
Running Job 1 of 1 freqs.in
qchem freqs.in_5547.0 ./freqs.d/ 1
/home/leeping/opt/qchem/5.0.2-openmp/exe/qcprog.exe_s freqs.in_5547.0 ./freqs.d/
Check license passed

                  Welcome to Q-Chem
     A Quantum Leap Into The Future Of Chemistry


 Q-Chem 5.0, Q-Chem, Inc., Pleasanton, CA (2017)

 Yihan Shao,  Zhengting Gan,  E. Epifanovsky,  A. T. B. Gilbert,  M. Wormit,  
 J. Kussmann,  A. W. Lange,  A. Behn,  Jia Deng,  Xintian Feng,  D. Ghosh,  
 M. Goldey,  P. R. Horn,  L. D. Jacobson,  I. Kaliman,  T. Kus,  A. Landau,  
 Jie Liu,  E. I. Proynov,  R. M. Richard,  R. P. Steele,  E. J. Sundstrom,  
 H. L. Woodcock III,  P. M. Zimmerman,  D. Zuev,  B. Albrecht,  E. Alguire,  
 S. A. Baeppler,  D. Barton,  Z. Benda,  Y. A. Bernard,  E. J. Berquist,  
 K. B. Bravaya,  H. Burton,  D. Casanova,  Chun-Min Chang,  Yunqing Chen,  
 A. Chien,  K. D. Closser,  M. P. Coons,  S. Dasgupta,  A. L. Dempwolff,  
 M. Diedenhofen,  Hainam Do,  R. G. Edgar,  Po-Tung Fang,  S. Fatehi,  
 Qingguo Feng,  J. Fosso-Tande,  Qinghui Ge,  A. Ghysels,  G. Gidofalvi,  
 J. Gomes,  J. Gonthier,  A. Gunina,  M. W. D. Hanson-Heine,  
 P. H. P. Harbach,  A. W. Hauser,  J. E. Herr,  E. G. Hohenstein,  
 Z. C. Holden,  Kerwin Hui,  T.-C. Jagau,  Hyunjun Ji,  B. Kaduk,  
 K. Khistyaev,  Jaehoon Kim,  P. Klunzinger,  K. Koh,  D. Kosenkov,  
 L. Koulias,  T. Kowalczyk,  C. M. Krauter,  A. Kunitsa,  Ka Un Lao,  
 A. Laurent,  K. V. Lawler,  Joonho Lee,  D. Lefrancois,  S. Lehtola,  
 D. S. Levine,  Yi-Pei Li,  You-Sheng Lin,  Fenglai Liu,  E. Livshits,  
 A. Luenser,  P. Manohar,  E. Mansoor,  S. F. Manzer,  Shan-Ping Mao,  
 Yuezhi Mao,  N. Mardirossian,  A. V. Marenich,  T. Markovich,  
 L. A. Martinez-Martinez,  S. A. Maurer,  N. J. Mayhall,  S. C. McKenzie,  
 J.-M. Mewes,  A. F. Morrison,  J. W. Mullinax,  K. Nanda,  
 T. S. Nguyen-Beck,  R. Olivares-Amaya,  J. A. Parkhill,  T. M. Perrine,  
 F. Plasser,  S. Prager,  A. Prociuk,  E. Ramos,  D. R. Rehn,  F. Rob,  
 M. Schneider,  N. Sergueev,  S. M. Sharada,  S. Sharma,  D. W. Small,  
 T. Stauch,  T. Stein,  Yu-Chuan Su,  A. J. W. Thom,  A. Tkatchenko,  
 T. Tsuchimochi,  L. Vogt,  O. Vydrov,  M. A. Watson,  J. Wenzel,  
 M. de Wergifosse,  T. A. Wesolowski,  A. White,  J. Witte,  A. Yamada,  
 Jun Yang,  K. Yao,  S. Yeganeh,  S. R. Yost,  Zhi-Qiang You,  A. Zech,  
 Igor Ying Zhang,  Xing Zhang,  Yan Zhao,  Ying Zhu,  B. R. Brooks,  
 G. K. L. Chan,  C. J. Cramer,  M. S. Gordon,  W. J. Hehre,  A. Klamt,  
 M. W. Schmidt,  C. D. Sherrill,  D. G. Truhlar,  A. Aspuru-Guzik,  R. Baer,  
 A. T. Bell,  N. A. Besley,  Jeng-Da Chai,  R. A. DiStasio Jr.,  A. Dreuw,  
 B. D. Dunietz,  T. R. Furlani,  Chao-Ping Hsu,  Yousung Jung,  Jing Kong,  
 D. S. Lambrecht,  WanZhen Liang,  C. Ochsenfeld,  V. A. Rassolov,  
 L. V. Slipchenko,  J. E. Subotnik,  T. Van Voorhis,  J. M. Herbert,  
 A. I. Krylov,  P. M. W. Gill,  M. Head-Gordon

 Contributors to earlier versions of Q-Chem not listed above: 
 R. D. Adamson,  B. Austin,  J. Baker,  G. J. O. Beran,  K. Brandhorst,  
 S. T. Brown,  E. F. C. Byrd,  A. K. Chakraborty,  C.-L. Cheng,  
 Siu Hung Chien,  D. M. Chipman,  D. L. Crittenden,  H. Dachsel,  
 R. J. Doerksen,  A. D. Dutoi,  L. Fusti-Molnar,  W. A. Goddard III,  
 A. Golubeva-Zadorozhnaya,  S. R. Gwaltney,  G. Hawkins,  A. Heyden,  
 S. Hirata,  G. Kedziora,  F. J. Keil,  C. Kelley,  Jihan Kim,  R. A. King,  
 R. Z. Khaliullin,  P. P. Korambath,  W. Kurlancheek,  A. M. Lee,  M. S. Lee,  
 S. V. Levchenko,  Ching Yeh Lin,  D. Liotard,  R. C. Lochan,  I. Lotan,  
 P. E. Maslen,  N. Nair,  D. P. O'Neill,  D. Neuhauser,  E. Neuscamman,  
 C. M. Oana,  R. Olson,  B. Peters,  R. Peverati,  P. A. Pieniazek,  
 Y. M. Rhee,  J. Ritchie,  M. A. Rohrdanz,  E. Rosta,  N. J. Russ,  
 H. F. Schaefer III,  N. E. Schultz,  N. Shenvi,  A. C. Simmonett,  A. Sodt,  
 D. Stuck,  K. S. Thanthiriwatte,  V. Vanovschi,  Tao Wang,  A. Warshel,  
 C. F. Williams,  Q. Wu,  X. Xu,  W. Zhang

 Please cite Q-Chem as follows:
 Y. Shao et al., Mol. Phys. 113, 184-215 (2015)
 DOI: 10.1080/00268976.2014.952696

 Q-Chem 5.0.2 for Intel X86 EM64T Linux

 Parts of Q-Chem use Armadillo 5.200.1 (Boston Tea Smuggler).
 http://arma.sourceforge.net/

 Q-Chem begins on Fri Mar 20 12:30:02 2020  

Host: 
0

     Scratch files written to ./freqs.d//
 Dec517 15110_ 26548  26544 5633   
Processing $rem in /home/leeping/opt/qchem/5.0.2-openmp/config/preferences.
 MEM_STATIC 2000
 MEM_TOTAL  8000
 SYMMETRY   OFF
 SYM_IGNORE TRUE 
Symmetry turned off for PCM/SM12/SMD calculation

Checking the input file for inconsistencies... 	...done.

--------------------------------------------------------------
User input:
--------------------------------------------------------------
$molecule
-3 1
C        0.3808550800    0.5166521633   -2.0571849685
C        0.6533999427    0.6900341199   -3.5625872368
O        0.4134572655    1.8355723364   -4.0332468201
O        1.0894286805   -0.2887240608   -4.2200489313
C        0.6385360142   -0.8802305461   -1.5198776672
H       -0.6575618227    0.8198425060   -1.8868134910
H        1.0035284536    1.2425284692   -1.5252642670
C        0.4312888356   -0.9611143777    0.0815469938
H        1.6736505799   -1.1735966256   -1.7109482120
H       -0.0187038409   -1.6116553825   -1.9949513569
C       -1.0924063491   -0.7454559366    0.3691001882
H       -1.3583780191    0.2933231497    0.1638916135
H       -1.2719183496   -0.9482686509    1.4287962731
H       -1.7110218662   -1.4133396202   -0.2355348943
O        0.7018853989   -2.2733213551    0.2941946351
O        1.1966821872   -0.0680415780    0.7170827518
O        1.1170172897   -0.3902027466    3.3531789191
H        1.1323311670   -0.2762832975    2.3583251868
O       -1.2761150540    0.7180523828    4.1739317051
H        0.2583844693   -0.0097935682    3.6512960986
O       -1.3175773202    1.8268483969    3.4563888748
$end

$rem
jobtype               freq
method                wb97x-v
basis                 def2-tzvpd
symmetry              off
sym_ignore            true
incdft                false
incfock               0
!scf_algorithm        diis_gdm
scf_convergence       8
thresh                14
unrestricted          true
!purecart             112
max_scf_cycles        1000
geom_opt_max_cycles   500
geom_opt_dmax         100
geom_opt_tol_gradient 10
solvent_method        pcm
ideriv                1
rpath_tol_displacement 1000
rpath_max_cycles      100
rpath_direction       1
scf_guess             read
$end

$pcm
theory              cosmo
method              iswig
Radii               bondi
vdwScale            1.20
hpoints             110
heavypoints         110
$end

$solvent
dielectric 78.400000
$end

--------------------------------------------------------------
 ----------------------------------------------------------------
             Standard Nuclear Orientation (Angstroms)
    I     Atom           X                Y                Z
 ----------------------------------------------------------------
    1      C       0.3808550800     0.5166521633    -2.0571849685
    2      C       0.6533999427     0.6900341199    -3.5625872368
    3      O       0.4134572655     1.8355723364    -4.0332468201
    4      O       1.0894286805    -0.2887240608    -4.2200489313
    5      C       0.6385360142    -0.8802305461    -1.5198776672
    6      H      -0.6575618227     0.8198425060    -1.8868134910
    7      H       1.0035284536     1.2425284692    -1.5252642670
    8      C       0.4312888356    -0.9611143777     0.0815469938
    9      H       1.6736505799    -1.1735966256    -1.7109482120
   10      H      -0.0187038409    -1.6116553825    -1.9949513569
   11      C      -1.0924063491    -0.7454559366     0.3691001882
   12      H      -1.3583780191     0.2933231497     0.1638916135
   13      H      -1.2719183496    -0.9482686509     1.4287962731
   14      H      -1.7110218662    -1.4133396202    -0.2355348943
   15      O       0.7018853989    -2.2733213551     0.2941946351
   16      O       1.1966821872    -0.0680415780     0.7170827518
   17      O       1.1170172897    -0.3902027466     3.3531789191
   18      H       1.1323311670    -0.2762832975     2.3583251868
   19      O      -1.2761150540     0.7180523828     4.1739317051
   20      H       0.2583844693    -0.0097935682     3.6512960986
   21      O      -1.3175773202     1.8268483969     3.4563888748
 ----------------------------------------------------------------
 Nuclear Repulsion Energy =   690.4920793781 hartrees
 There are       49 alpha and       49 beta electrons
 Requested basis set is def2-TZVPD
 There are 208 shells and 546 basis functions

 Total QAlloc Memory Limit   8000 MB
 Mega-Array Size      1956 MB
 MEM_STATIC part      2000 MB
 Discretize the solute cavity surface with Lebedev spheres
	Using 110 Lebedev grid points for each H atom
	Using 110 Lebedev grid points for other atoms
	Atomic van der Waals radii will be scaled by 1.20
 Remove points where switching function is < 1.0e-08
 Keep 1297 surface tesserae and discard 1013 interior tesserae
 Molecular Surface Area = 247.569 Angst**2
 A cutoff of  1.0D-14 yielded  18444 shell pairs
 There are    125294 function pairs (    158394 Cartesian)
 
 -------------------------------------------------------
 OpenMP Integral Computing Module                       
 Release: version 1.0, May 2013, Q-Chem Inc. Pittsburgh 
 -------------------------------------------------------
 Integral Job Info:
 Integral job number is                      11
 Integral operator is                         1
 short-range coefficients              16700000
 long-range coefficients              100000000
 Omega coefficients                         300
 if combine SR and LR in K                    1
 Integral screening is                        0
 Integral computing path is                   2
 max size of driver memory is            800000
 size of driver memory is                776718
 size of scratch memory is              4473992
 max col of scratch BK array              10000
 max len of scratch array in speh3          662
 max len of scratch index in speh4           32
 max int batch size is                      520
 min int batch size is                       52
 fixed nKL is                                52
 max L of basis functions is                  3
 order of int derivative is                   0
 number of shells is                        208
 number of basis is                         618
 number of cartesian basis is               618
 number of contracted shell pairs         18444
 number of primitive shell pairs          36291
 maxK2 (contraction) of shell pair           36
 max number of K2 of shell pair               1
 max number of CS2 of shell pair           3181
 max number of PS2 of shell pair           4074
 mem total for path MDJ                  848140
 -------------------------------------------------------
 Smallest overlap matrix eigenvalue = 2.90E-06
 Guess MOs from SCF MO coefficient file
 Reading MOs from coefficient file
 Reading MOs from coefficient file
 Long-range K will be added via erf
 Coulomb attenuation parameter = 0.3 bohr**(-1)
 An unrestricted hybrid HF-DFT SCF calculation will be
 performed using Pulay DIIS extrapolation
 Polarizable Continuum solvation model will be applied
 Exchange:     0.1670 Hartree-Fock + 1.0000 wB97X-V + LR-HF
 Correlation:  1.0000 wB97X-V
 Using SG-2 standard quadrature grid
 Nonlocal Correlation:  VV10 with C = 0.0100 and b = 6.00
 Grid used for NLC:  SG-1 standard quadrature
 SCF converges when DIIS error is below 1.0E-08
Using Q-Chem read-in guess as SCF_GUESS READ specified.

 using 16 threads for integral computing
 -------------------------------------------------------
 OpenMP Integral computing Module                
 Release: version 1.0, May 2013, Q-Chem Inc. Pittsburgh 
 -------------------------------------------------------
 using 16 threads for integral computing
 -------------------------------------------------------
 OpenMP Integral computing Module                
 Release: version 1.0, May 2013, Q-Chem Inc. Pittsburgh 
 -------------------------------------------------------
 -------------------------------------------------------
 OpenMP BLAS3 based DFT computing Module                
 Release: version 1.0, May 2013, Q-Chem Inc. Pittsburgh 
 -------------------------------------------------------
 -------------------------------------------------------
 OpenMP BLAS3 based DFT computing Module                
 Release: version 1.0, May 2013, Q-Chem Inc. Pittsburgh 
 -------------------------------------------------------
 -------------------------------------------------------
 OpenMP BLAS3 based DFT computing Module                
 Release: version 1.0, May 2013, Q-Chem Inc. Pittsburgh 
 -------------------------------------------------------
 ---------------------------------------
  Cycle       Energy         DIIS Error
 ---------------------------------------
    1    -722.2509060547      3.45E-04
    2    -722.8254756982      3.85E-04
    3    -722.8333679992      1.79E-04
    4    -722.8346584757      1.30E-04
    5    -722.8354757591      9.82E-05
    6    -722.8359171884      7.74E-05
    7    -722.8362290127      5.83E-05
    8    -722.8364038974      4.43E-05
    9    -722.8365108903      3.30E-05
   10    -722.8365559230      2.69E-05
   11    -722.8365912904      2.09E-05
   12    -722.8366082220      1.73E-05
   13    -722.8366197701      1.44E-05
   14    -722.8366301796      1.11E-05
   15    -722.8366347375      9.37E-06
   16    -722.8366373360      8.19E-06
   17    -722.8366456542      1.10E-07
   18    -722.8366456608      6.67E-08
   19    -722.8366456645      5.41E-08
   20    -722.8366456692      5.07E-08
   21    -722.8366456769      3.08E-08
   22    -722.8366456790      1.86E-08
   23    -722.8366456798      9.53E-09 Convergence criterion met
 ---------------------------------------

************** Final PCM Free Energy Summary **************
 G_electrostatic  =      -0.58574050 hartree =    -367.55771149 kcal/mol
 G_cavitation     =       0.00000000 hartree =       0.00000000 kcal/mol
 G_dispersion     =       0.00000000 hartree =       0.00000000 kcal/mol
 G_repulsion      =       0.00000000 hartree =       0.00000000 kcal/mol
 --------------------------------------------------
 Non-electrostatic Free Energy =       0.00000000 hartree =       0.00000000 kcal/mol
 Total                         =      -0.58574050 hartree =    -367.55771149 kcal/mol
 --------------------------------------------------
 SCF Energy (H0 + V/2)                       =    -722.83664568 
 Solute Internal Energy (H0)                 =    -722.25090518 
 Total Free Energy (H0 + V/2 + non-elec)     =    -722.83664568 hartree
                                             = -453586.84114996 kcal/mol
***********************************************************

 <S^2> = 1.0124
 SCF time:  CPU 9582.87 s  wall 720.05 s
 SCF   energy in the final basis set = -722.83664568
 Total energy in the final basis set = -722.83664568
 
 --------------------------------------------------------------
 
                    Orbital Energies (a.u.)
 --------------------------------------------------------------
 
 Alpha MOs
 -- Occupied --
-19.192 -19.190 -19.188 -19.155 -19.139 -19.136 -19.109 -10.340
-10.331 -10.258 -10.244 -10.244  -1.174  -1.142  -1.135  -1.074
 -1.047  -1.025  -0.888  -0.826  -0.802  -0.756  -0.631  -0.604
 -0.590  -0.565  -0.558  -0.539  -0.524  -0.513  -0.509  -0.493
 -0.484  -0.480  -0.469  -0.457  -0.441  -0.439  -0.422  -0.421
 -0.391  -0.381  -0.365  -0.345  -0.333  -0.331  -0.319  -0.297
 -0.258
 -- Virtual --
  0.055   0.061   0.074   0.080   0.086   0.090   0.098   0.105
  0.108   0.122   0.124   0.126   0.132   0.140   0.146   0.151
  0.156   0.163   0.164   0.168   0.175   0.181   0.188   0.190
  0.195   0.205   0.208   0.220   0.224   0.228   0.233   0.241
  0.246   0.250   0.253   0.265   0.271   0.275   0.284   0.290
  0.294   0.297   0.301   0.307   0.316   0.318   0.323   0.326
  0.333   0.339   0.344   0.349   0.360   0.363   0.370   0.375
  0.379   0.384   0.386   0.394   0.397   0.400   0.403   0.412
  0.415   0.420   0.424   0.426   0.431   0.438   0.441   0.445
  0.450   0.455   0.463   0.469   0.474   0.475   0.483   0.493
  0.494   0.498   0.508   0.512   0.514   0.521   0.522   0.529
  0.536   0.537   0.537   0.549   0.554   0.560   0.564   0.565
  0.573   0.575   0.577   0.587   0.590   0.594   0.598   0.603
  0.612   0.614   0.616   0.625   0.629   0.633   0.635   0.638
  0.656   0.658   0.667   0.669   0.674   0.676   0.687   0.694
  0.695   0.705   0.712   0.720   0.726   0.730   0.735   0.737
  0.742   0.760   0.761   0.771   0.775   0.777   0.782   0.788
  0.793   0.797   0.801   0.811   0.815   0.819   0.830   0.837
  0.841   0.849   0.854   0.855   0.861   0.867   0.872   0.887
  0.896   0.898   0.905   0.910   0.912   0.916   0.932   0.937
  0.947   0.953   0.963   0.969   0.974   0.981   0.992   1.001
  1.016   1.017   1.037   1.039   1.060   1.065   1.074   1.079
  1.093   1.097   1.111   1.117   1.125   1.133   1.149   1.170
  1.181   1.188   1.195   1.209   1.217   1.230   1.233   1.248
  1.249   1.260   1.266   1.288   1.295   1.326   1.335   1.344
  1.356   1.370   1.381   1.394   1.414   1.424   1.426   1.436
  1.456   1.468   1.486   1.502   1.508   1.531   1.564   1.590
  1.609   1.638   1.656   1.692   1.698   1.701   1.708   1.761
  1.790   1.806   1.823   1.833   1.847   1.861   1.866   1.919
  1.926   1.930   1.946   1.953   1.953   1.962   1.973   1.978
  2.001   2.007   2.021   2.030   2.034   2.046   2.047   2.068
  2.078   2.092   2.122   2.130   2.151   2.160   2.170   2.176
  2.201   2.216   2.242   2.250   2.272   2.288   2.295   2.314
  2.332   2.335   2.346   2.360   2.368   2.375   2.386   2.403
  2.412   2.424   2.449   2.457   2.472   2.496   2.497   2.522
  2.543   2.549   2.576   2.597   2.603   2.625   2.634   2.667
  2.685   2.696   2.701   2.738   2.752   2.765   2.783   2.807
  2.847   2.861   2.880   2.887   2.910   2.928   2.942   2.954
  2.964   2.981   2.995   2.998   3.027   3.032   3.046   3.066
  3.072   3.089   3.117   3.119   3.136   3.148   3.192   3.210
  3.219   3.244   3.257   3.260   3.282   3.301   3.310   3.312
  3.334   3.348   3.377   3.389   3.403   3.418   3.427   3.449
  3.469   3.494   3.500   3.520   3.521   3.540   3.551   3.559
  3.571   3.586   3.593   3.603   3.610   3.646   3.648   3.665
  3.687   3.703   3.708   3.713   3.724   3.725   3.741   3.776
  3.793   3.797   3.808   3.838   3.850   3.857   3.891   3.915
  3.938   3.965   4.024   4.060   4.113   4.142   4.160   4.173
  4.224   4.244   4.276   4.294   4.329   4.337   4.408   4.443
  4.464   4.595   4.638   4.656   4.676   4.688   4.773   4.785
  4.821   4.841   4.892   4.915   4.928   4.935   4.945   4.950
  5.013   5.081   5.140   5.157   5.210   5.247   5.271   5.279
  5.284   5.320   5.331   5.362   5.365   5.374   5.377   5.385
  5.407   5.413   5.421   5.464   5.504   5.517   5.568   5.580
  5.636   5.655   5.665   5.717   5.726   5.740   5.749   5.753
  5.784   5.857   6.007   6.099   6.201   6.229   6.248   6.289
  6.317   6.338   6.362   6.371   6.416   6.455   6.504   6.571
  6.598   6.621   6.631   6.638   6.653   6.676   6.683   6.697
  6.698   6.714   6.730   6.749   6.754   6.757   6.775   6.833
  6.838   6.944   6.962   6.973   7.052   7.061   7.085   7.165
  7.249   7.255   7.259   7.287   7.340   7.363   7.366   7.401
  7.413   7.456   7.508   7.550   8.651  22.736  22.901  22.939
 23.320  23.744  43.733  44.189  44.278  44.354  44.427  44.469
 44.614
 
 Beta MOs
 -- Occupied --
-19.202 -19.201 -19.178 -19.155 -19.139 -19.136 -19.108 -10.339
-10.332 -10.255 -10.244 -10.243  -1.203  -1.141  -1.112  -1.073
 -1.047  -1.007  -0.882  -0.847  -0.818  -0.746  -0.620  -0.601
 -0.587  -0.563  -0.547  -0.526  -0.518  -0.516  -0.509  -0.507
 -0.503  -0.489  -0.477  -0.465  -0.450  -0.440  -0.433  -0.419
 -0.381  -0.350  -0.345  -0.333  -0.327  -0.314  -0.312  -0.301
 -0.275
 -- Virtual --
 -0.026   0.062   0.074   0.080   0.086   0.090   0.098   0.104
  0.108   0.123   0.124   0.126   0.132   0.139   0.146   0.149
  0.154   0.163   0.164   0.167   0.175   0.181   0.188   0.190
  0.194   0.204   0.208   0.219   0.224   0.228   0.234   0.241
  0.246   0.250   0.252   0.263   0.270   0.275   0.284   0.290
  0.292   0.297   0.301   0.308   0.316   0.319   0.324   0.327
  0.333   0.340   0.345   0.349   0.360   0.364   0.372   0.375
  0.378   0.384   0.387   0.395   0.397   0.399   0.402   0.415
  0.416   0.420   0.425   0.427   0.432   0.438   0.441   0.445
  0.449   0.456   0.464   0.470   0.475   0.476   0.484   0.493
  0.496   0.498   0.509   0.512   0.515   0.520   0.521   0.529
  0.536   0.537   0.539   0.548   0.554   0.559   0.564   0.566
  0.572   0.574   0.578   0.587   0.590   0.594   0.599   0.603
  0.612   0.613   0.616   0.625   0.628   0.632   0.635   0.639
  0.657   0.658   0.667   0.668   0.673   0.676   0.687   0.694
  0.696   0.704   0.712   0.721   0.725   0.729   0.735   0.737
  0.743   0.760   0.762   0.771   0.776   0.777   0.783   0.789
  0.793   0.797   0.803   0.812   0.815   0.819   0.830   0.837
  0.842   0.850   0.854   0.857   0.862   0.867   0.873   0.888
  0.896   0.898   0.905   0.910   0.912   0.916   0.930   0.936
  0.948   0.954   0.963   0.969   0.972   0.980   0.992   1.001
  1.016   1.018   1.033   1.039   1.061   1.065   1.069   1.078
  1.092   1.096   1.111   1.117   1.127   1.134   1.150   1.170
  1.183   1.189   1.197   1.211   1.218   1.229   1.235   1.249
  1.251   1.261   1.268   1.291   1.300   1.328   1.336   1.346
  1.358   1.371   1.382   1.395   1.409   1.425   1.428   1.438
  1.457   1.470   1.489   1.504   1.511   1.532   1.565   1.591
  1.611   1.640   1.659   1.674   1.698   1.700   1.706   1.762
  1.784   1.804   1.816   1.831   1.847   1.848   1.865   1.922
  1.926   1.934   1.944   1.957   1.958   1.963   1.965   1.982
  2.001   2.008   2.022   2.026   2.034   2.037   2.048   2.067
  2.081   2.086   2.124   2.132   2.150   2.162   2.173   2.175
  2.203   2.219   2.243   2.255   2.271   2.290   2.293   2.316
  2.324   2.336   2.345   2.361   2.366   2.371   2.383   2.409
  2.413   2.425   2.449   2.459   2.476   2.497   2.497   2.524
  2.544   2.551   2.578   2.591   2.605   2.628   2.636   2.667
  2.686   2.695   2.703   2.741   2.754   2.766   2.784   2.808
  2.851   2.860   2.880   2.889   2.906   2.915   2.935   2.948
  2.964   2.983   2.998   3.000   3.029   3.033   3.048   3.062
  3.068   3.093   3.117   3.120   3.139   3.149   3.182   3.206
  3.215   3.221   3.257   3.262   3.284   3.295   3.312   3.314
  3.335   3.351   3.374   3.389   3.394   3.420   3.430   3.458
  3.473   3.498   3.503   3.518   3.523   3.541   3.552   3.560
  3.568   3.587   3.596   3.606   3.613   3.648   3.651   3.667
  3.691   3.706   3.711   3.716   3.726   3.727   3.744   3.781
  3.798   3.800   3.815   3.843   3.857   3.861   3.897   3.920
  3.942   3.970   4.027   4.065   4.115   4.143   4.160   4.175
  4.229   4.247   4.279   4.296   4.331   4.339   4.412   4.427
  4.467   4.598   4.642   4.659   4.679   4.690   4.775   4.787
  4.823   4.842   4.890   4.895   4.908   4.918   4.937   4.952
  5.019   5.088   5.139   5.148   5.211   5.219   5.246   5.272
  5.288   5.327   5.344   5.355   5.367   5.373   5.376   5.384
  5.387   5.423   5.438   5.469   5.504   5.533   5.574   5.596
  5.637   5.659   5.670   5.717   5.726   5.727   5.728   5.753
  5.784   5.866   6.008   6.131   6.202   6.233   6.249   6.301
  6.317   6.320   6.339   6.359   6.415   6.458   6.509   6.524
  6.550   6.621   6.623   6.638   6.641   6.646   6.661   6.693
  6.705   6.725   6.728   6.753   6.755   6.766   6.776   6.818
  6.843   6.953   6.962   6.974   7.053   7.093   7.095   7.176
  7.216   7.250   7.259   7.298   7.343   7.366   7.380   7.402
  7.413   7.459   7.491   7.553   8.637  22.738  22.903  22.941
 23.320  23.744  43.718  44.189  44.278  44.341  44.428  44.482
 44.619
 --------------------------------------------------------------
 
          Ground-State Mulliken Net Atomic Charges

     Atom                 Charge (a.u.)    Spin (a.u.)
  --------------------------------------------------------
      1 C                    -0.217076       0.030455
      2 C                    -0.003781       0.011059
      3 O                    -0.711734       0.006529
      4 O                    -0.690829      -0.000292
      5 C                    -0.296807       0.135275
      6 H                     0.180234       0.000120
      7 H                     0.186633       0.000607
      8 C                     1.011729      -0.071521
      9 H                     0.219232      -0.006055
     10 H                     0.236918      -0.004899
     11 C                    -1.026006       0.134178
     12 H                     0.227397       0.000042
     13 H                     0.209183      -0.006594
     14 H                     0.243827      -0.005090
     15 O                    -0.550767       0.699610
     16 O                    -0.957192       0.074154
     17 O                    -0.709381       0.000673
     18 H                     0.291529       0.000511
     19 O                    -0.500550      -0.478885
     20 H                     0.314666       0.000571
     21 O                    -0.457226      -0.520447
  --------------------------------------------------------
  Sum of atomic charges =    -3.000000
  Sum of spin   charges =     0.000000

 -----------------------------------------------------------------
                    Cartesian Multipole Moments
 -----------------------------------------------------------------
    Charge (ESU x 10^10)
               -14.4096
    Dipole Moment (Debye)
         X      -6.5271      Y      -4.6578      Z      -3.4745
       Tot       8.7391
    Quadrupole Moments (Debye-Ang)
        XX    -101.2465     XY      12.5357     YY    -114.3140
        XZ      25.0836     YZ       3.4791     ZZ    -257.8758
    Octopole Moments (Debye-Ang^2)
       XXX     -57.5794    XXY      -5.4778    XYY     -20.6740
       YYY      -7.5529    XXZ     -25.9338    XYZ      37.3909
       YYZ      22.5887    XZZ     -50.8921    YZZ    -133.0613
       ZZZ     145.9407
    Hexadecapole Moments (Debye-Ang^3)
      XXXX    -580.3819   XXXY     109.5573   XXYY    -238.6461
      XYYY     125.7873   YYYY    -884.6846   XXXZ     334.5813
      XXYZ     -30.0715   XYYZ     156.0419   YYYZ      78.5781
      XXZZ    -988.4801   XYZZ     143.1421   YYZZ   -1090.8700
      XZZZ     852.2386   YZZZ     124.7259   ZZZZ   -6887.2942
 -----------------------------------------------------------------
 Calculating analytic gradient of the SCF energy
 Gradient of SCF Energy
            1           2           3           4           5           6
    1  -0.0301178   0.0010471   0.0103406  -0.0235796   0.0544623   0.0694144
    2   0.0996300  -0.0134505  -0.0549494   0.0545347  -0.1750862  -0.0160673
    3   0.1102596  -0.0600307   0.0378034   0.0441113  -0.0799828   0.0020651
            7           8           9          10          11          12
    1  -0.0485183   0.0556617  -0.0877660   0.0557442  -0.1381770   0.0204410
    2  -0.0506793   0.0459167   0.0187200   0.0507658   0.0371334  -0.1202709
    3  -0.0351215   0.0070555  -0.0010695   0.0272918  -0.0234231   0.0500723
           13          14          15          16          17          18
    1   0.0144379   0.0564844  -0.0077768   0.0008217  -0.0453337  -0.0324723
    2   0.0283787   0.0650689   0.0273959   0.0022923   0.0334621  -0.0055312
    3  -0.1297506   0.0666301  -0.0057892  -0.0346333  -0.0337314   0.1007822
           19          20          21
    1   0.0024156   0.0771429  -0.0046724
    2  -0.0415883  -0.0259860   0.0403106
    3   0.0260180  -0.0411261  -0.0274311
 Max gradient component =       1.751E-01
 RMS gradient           =       5.727E-02
 Computing fast CPCM-ISWIG gradient
 Updating gradient with PCM contributions...
 -- total gradient after adding PCM contribution --
---------------------------------------------------
  Atom         X              Y              Z     
---------------------------------------------------
   1      -0.000004      -0.000023       0.000020
   2      -0.000005       0.000026      -0.000003
   3       0.000007      -0.000013       0.000003
   4      -0.000001      -0.000001      -0.000005
   5       0.000016       0.000011      -0.000033
   6      -0.000000      -0.000002      -0.000006
   7      -0.000004       0.000006      -0.000002
   8      -0.000026       0.000034       0.000004
   9      -0.000002       0.000002       0.000005
  10      -0.000011       0.000002       0.000016
  11       0.000025      -0.000013       0.000000
  12      -0.000004       0.000002       0.000004
  13      -0.000003      -0.000002      -0.000001
  14      -0.000004       0.000003      -0.000001
  15       0.000009      -0.000025       0.000012
  16       0.000000      -0.000004       0.000005
  17       0.000067      -0.000026      -0.000017
  18       0.000006      -0.000011      -0.000011
  19      -0.000027       0.000033      -0.000002
  20      -0.000033       0.000005       0.000009
  21      -0.000006      -0.000004       0.000002
---------------------------------------------------
 Number of fixed atoms: 0
 Gradient time:  CPU 1269.31 s  wall 94.90 s
 ######################################################
 ######################################################
 # Starting finite difference calculation for IDERIV  #
 Finite diff step size:  1.88973e-03 a.u.
 ----------------------------------------------------------------
             Standard Nuclear Orientation (Angstroms)
    I     Atom           X                Y                Z
 ----------------------------------------------------------------
    1      C       0.3818550800     0.5166521633    -2.0571849685
    2      C       0.6533999427     0.6900341199    -3.5625872368
    3      O       0.4134572655     1.8355723364    -4.0332468201
    4      O       1.0894286805    -0.2887240608    -4.2200489313
    5      C       0.6385360142    -0.8802305461    -1.5198776672
    6      H      -0.6575618227     0.8198425060    -1.8868134910
    7      H       1.0035284536     1.2425284692    -1.5252642670
    8      C       0.4312888356    -0.9611143777     0.0815469938
    9      H       1.6736505799    -1.1735966256    -1.7109482120
   10      H      -0.0187038409    -1.6116553825    -1.9949513569
   11      C      -1.0924063491    -0.7454559366     0.3691001882
   12      H      -1.3583780191     0.2933231497     0.1638916135
   13      H      -1.2719183496    -0.9482686509     1.4287962731
   14      H      -1.7110218662    -1.4133396202    -0.2355348943
   15      O       0.7018853989    -2.2733213551     0.2941946351
   16      O       1.1966821872    -0.0680415780     0.7170827518
   17      O       1.1170172897    -0.3902027466     3.3531789191
   18      H       1.1323311670    -0.2762832975     2.3583251868
   19      O      -1.2761150540     0.7180523828     4.1739317051
   20      H       0.2583844693    -0.0097935682     3.6512960986
   21      O      -1.3175773202     1.8268483969     3.4563888748
 ----------------------------------------------------------------
 Nuclear Repulsion Energy =   690.4948903642 hartrees
 There are       49 alpha and       49 beta electrons
 Discretize the solute cavity surface with Lebedev spheres
	Using 110 Lebedev grid points for each H atom
	Using 110 Lebedev grid points for other atoms
	Atomic van der Waals radii will be scaled by 1.20
 Remove points where switching function is < 1.0e-08
 Keep 1297 surface tesserae and discard 1013 interior tesserae
 Molecular Surface Area = 247.573 Angst**2
 Requested basis set is def2-TZVPD
 There are 208 shells and 546 basis functions
 A cutoff of  1.0D-14 yielded  18444 shell pairs
 There are    125294 function pairs (    158394 Cartesian)
 Smallest overlap matrix eigenvalue = 2.90E-06
 Guess MOs from SCF MO coefficient file
 Reading MOs from coefficient file
 Reading MOs from coefficient file
 Long-range K will be added via erf
 Coulomb attenuation parameter = 0.3 bohr**(-1)
 An unrestricted hybrid HF-DFT SCF calculation will be
 performed using Pulay DIIS extrapolation
 Polarizable Continuum solvation model will be applied
 Exchange:     0.1670 Hartree-Fock + 1.0000 wB97X-V + LR-HF
 Correlation:  1.0000 wB97X-V
 Using SG-2 standard quadrature grid
 Nonlocal Correlation:  VV10 with C = 0.0100 and b = 6.00
 Grid used for NLC:  SG-1 standard quadrature
 SCF converges when DIIS error is below 1.0E-08
Using Q-Chem read-in guess as SCF_GUESS READ specified.

 using 16 threads for integral computing
 -------------------------------------------------------
 OpenMP Integral computing Module                
 Release: version 1.0, May 2013, Q-Chem Inc. Pittsburgh 
 -------------------------------------------------------
 using 16 threads for integral computing
 -------------------------------------------------------
 OpenMP Integral computing Module                
 Release: version 1.0, May 2013, Q-Chem Inc. Pittsburgh 
 -------------------------------------------------------
 -------------------------------------------------------
 OpenMP BLAS3 based DFT computing Module                
 Release: version 1.0, May 2013, Q-Chem Inc. Pittsburgh 
 -------------------------------------------------------
 -------------------------------------------------------
 OpenMP BLAS3 based DFT computing Module                
 Release: version 1.0, May 2013, Q-Chem Inc. Pittsburgh 
 -------------------------------------------------------
 -------------------------------------------------------
 OpenMP BLAS3 based DFT computing Module                
 Release: version 1.0, May 2013, Q-Chem Inc. Pittsburgh 
 -------------------------------------------------------
 ---------------------------------------
  Cycle       Energy         DIIS Error
 ---------------------------------------
    1    -722.2507831772      3.46E-04
    2    -722.8254678498      3.86E-04
    3    -722.8333677122      1.79E-04
    4    -722.8346598290      1.30E-04
    5    -722.8354831983      9.78E-05
    6    -722.8359360723      7.63E-05
    7    -722.8362732484      5.50E-05
    8    -722.8364645533      3.81E-05
    9    -722.8365754272      2.35E-05
   10    -722.8366175651      1.45E-05
   11    -722.8366365199      7.70E-06
   12    -722.8366420054      4.18E-06
   13    -722.8366437064      2.38E-06
   14    -722.8366443907      1.21E-06
   15    -722.8366445360      8.38E-07
   16    -722.8366445961      5.94E-07
   17    -722.8366446532      7.59E-08
   18    -722.8366446608      6.48E-08
   19    -722.8366446705      5.11E-08
   20    -722.8366446786      3.71E-08
   21    -722.8366446814      2.34E-08
   22    -722.8366446822      1.60E-08
   23    -722.8366446825      1.16E-08
   24    -722.8366446827      1.05E-08
   25    -722.8366446828      1.01E-08
   26    -722.8366446830      9.79E-09 Convergence criterion met
 ---------------------------------------

************** Final PCM Free Energy Summary **************
 G_electrostatic  =      -0.58573587 hartree =    -367.55480329 kcal/mol
 G_cavitation     =       0.00000000 hartree =       0.00000000 kcal/mol
 G_dispersion     =       0.00000000 hartree =       0.00000000 kcal/mol
 G_repulsion      =       0.00000000 hartree =       0.00000000 kcal/mol
 --------------------------------------------------
 Non-electrostatic Free Energy =       0.00000000 hartree =       0.00000000 kcal/mol
 Total                         =      -0.58573587 hartree =    -367.55480329 kcal/mol
 --------------------------------------------------
 SCF Energy (H0 + V/2)                       =    -722.83664468 
 Solute Internal Energy (H0)                 =    -722.25090882 
 Total Free Energy (H0 + V/2 + non-elec)     =    -722.83664468 hartree
                                             = -453586.84052446 kcal/mol
***********************************************************

 <S^2> = 1.0124
 SCF time:  CPU 10787.41 s  wall 812.57 s
 SCF   energy in the final basis set = -722.83664468
 Total energy in the final basis set = -722.83664468
 
 --------------------------------------------------------------
 
                    Orbital Energies (a.u.)
 --------------------------------------------------------------
 
 Alpha MOs
 -- Occupied --
-19.192 -19.190 -19.188 -19.155 -19.139 -19.136 -19.109 -10.340
-10.331 -10.258 -10.244 -10.244  -1.174  -1.142  -1.135  -1.074
 -1.047  -1.025  -0.888  -0.826  -0.802  -0.756  -0.631  -0.604
 -0.590  -0.565  -0.558  -0.539  -0.524  -0.513  -0.509  -0.493
 -0.484  -0.480  -0.469  -0.457  -0.441  -0.439  -0.422  -0.421
 -0.391  -0.381  -0.365  -0.345  -0.333  -0.331  -0.319  -0.297
 -0.258
 -- Virtual --
  0.055   0.061   0.074   0.080   0.086   0.090   0.098   0.105
  0.108   0.122   0.124   0.126   0.132   0.140   0.146   0.151
  0.156   0.163   0.164   0.168   0.175   0.181   0.188   0.190
  0.195   0.205   0.208   0.220   0.224   0.228   0.233   0.241
  0.246   0.250   0.253   0.265   0.271   0.275   0.284   0.290
  0.294   0.297   0.301   0.307   0.316   0.318   0.323   0.326
  0.333   0.339   0.344   0.349   0.360   0.363   0.370   0.375
  0.379   0.384   0.386   0.394   0.397   0.400   0.403   0.412
  0.415   0.420   0.424   0.426   0.431   0.438   0.441   0.445
  0.450   0.455   0.464   0.469   0.474   0.475   0.483   0.493
  0.494   0.498   0.508   0.512   0.514   0.521   0.522   0.529
  0.536   0.537   0.537   0.549   0.553   0.560   0.564   0.565
  0.573   0.575   0.577   0.587   0.590   0.594   0.599   0.603
  0.612   0.614   0.616   0.625   0.629   0.633   0.635   0.638
  0.656   0.658   0.667   0.669   0.674   0.676   0.687   0.694
  0.695   0.705   0.712   0.720   0.726   0.730   0.735   0.737
  0.742   0.760   0.761   0.771   0.775   0.777   0.782   0.788
  0.793   0.797   0.801   0.811   0.815   0.819   0.830   0.837
  0.841   0.849   0.854   0.855   0.861   0.867   0.872   0.887
  0.896   0.898   0.905   0.910   0.912   0.916   0.932   0.937
  0.947   0.953   0.963   0.969   0.974   0.981   0.992   1.001
  1.016   1.017   1.037   1.039   1.060   1.065   1.074   1.079
  1.093   1.097   1.111   1.117   1.125   1.133   1.149   1.170
  1.181   1.188   1.195   1.209   1.217   1.230   1.233   1.248
  1.249   1.260   1.266   1.288   1.295   1.326   1.335   1.344
  1.356   1.370   1.381   1.394   1.414   1.424   1.426   1.436
  1.456   1.468   1.486   1.502   1.508   1.531   1.564   1.590
  1.609   1.638   1.656   1.692   1.698   1.701   1.708   1.761
  1.790   1.806   1.823   1.833   1.847   1.861   1.866   1.919
  1.925   1.930   1.946   1.953   1.953   1.962   1.973   1.978
  2.001   2.007   2.021   2.030   2.034   2.046   2.047   2.068
  2.078   2.092   2.122   2.129   2.151   2.160   2.170   2.176
  2.201   2.216   2.242   2.250   2.272   2.288   2.295   2.314
  2.332   2.335   2.346   2.360   2.368   2.375   2.386   2.403
  2.412   2.424   2.448   2.457   2.472   2.496   2.497   2.522
  2.543   2.549   2.576   2.597   2.603   2.625   2.634   2.667
  2.686   2.695   2.701   2.738   2.752   2.765   2.782   2.807
  2.847   2.861   2.880   2.887   2.910   2.928   2.942   2.954
  2.964   2.981   2.995   2.998   3.027   3.033   3.046   3.066
  3.072   3.089   3.117   3.120   3.136   3.148   3.192   3.210
  3.219   3.244   3.257   3.260   3.282   3.301   3.310   3.312
  3.334   3.348   3.377   3.389   3.403   3.418   3.427   3.449
  3.469   3.494   3.500   3.520   3.521   3.540   3.551   3.559
  3.571   3.586   3.593   3.603   3.610   3.646   3.648   3.665
  3.687   3.703   3.708   3.713   3.724   3.725   3.741   3.776
  3.793   3.797   3.808   3.838   3.850   3.857   3.891   3.915
  3.938   3.965   4.024   4.060   4.113   4.141   4.160   4.173
  4.224   4.245   4.276   4.294   4.329   4.337   4.408   4.443
  4.464   4.595   4.638   4.656   4.676   4.688   4.772   4.785
  4.821   4.841   4.892   4.915   4.928   4.935   4.945   4.950
  5.013   5.081   5.140   5.157   5.210   5.247   5.271   5.279
  5.284   5.320   5.331   5.362   5.365   5.374   5.377   5.385
  5.407   5.413   5.421   5.464   5.504   5.517   5.568   5.580
  5.636   5.655   5.665   5.717   5.726   5.740   5.749   5.753
  5.784   5.857   6.007   6.099   6.201   6.229   6.248   6.289
  6.317   6.339   6.362   6.371   6.416   6.455   6.504   6.571
  6.598   6.621   6.631   6.638   6.653   6.676   6.683   6.697
  6.698   6.714   6.730   6.749   6.754   6.757   6.775   6.833
  6.838   6.944   6.962   6.973   7.052   7.061   7.085   7.165
  7.249   7.255   7.259   7.287   7.340   7.363   7.366   7.401
  7.413   7.456   7.508   7.550   8.651  22.736  22.901  22.939
 23.320  23.744  43.733  44.189  44.278  44.354  44.427  44.469
 44.614
 
 Beta MOs
 -- Occupied --
-19.202 -19.201 -19.178 -19.155 -19.139 -19.136 -19.108 -10.339
-10.332 -10.254 -10.244 -10.243  -1.203  -1.141  -1.112  -1.073
 -1.047  -1.008  -0.882  -0.847  -0.818  -0.746  -0.620  -0.601
 -0.587  -0.563  -0.547  -0.526  -0.518  -0.516  -0.509  -0.507
 -0.503  -0.489  -0.477  -0.465  -0.450  -0.440  -0.433  -0.419
 -0.381  -0.350  -0.345  -0.333  -0.327  -0.314  -0.312  -0.301
 -0.275
 -- Virtual --
 -0.026   0.062   0.074   0.080   0.086   0.090   0.098   0.104
  0.108   0.123   0.124   0.126   0.132   0.139   0.146   0.149
  0.154   0.162   0.164   0.167   0.175   0.181   0.188   0.190
  0.194   0.204   0.208   0.219   0.224   0.228   0.234   0.241
  0.246   0.250   0.252   0.263   0.270   0.275   0.283   0.290
  0.292   0.297   0.301   0.308   0.316   0.319   0.324   0.327
  0.333   0.340   0.345   0.349   0.360   0.364   0.372   0.375
  0.378   0.384   0.387   0.395   0.397   0.399   0.402   0.415
  0.416   0.420   0.425   0.427   0.432   0.438   0.441   0.445
  0.449   0.456   0.464   0.470   0.475   0.476   0.484   0.493
  0.496   0.498   0.509   0.512   0.515   0.520   0.521   0.529
  0.536   0.537   0.539   0.548   0.554   0.559   0.564   0.566
  0.572   0.574   0.578   0.587   0.590   0.594   0.599   0.603
  0.612   0.613   0.616   0.626   0.629   0.632   0.635   0.639
  0.656   0.658   0.667   0.668   0.673   0.676   0.687   0.694
  0.696   0.704   0.712   0.721   0.725   0.729   0.735   0.737
  0.743   0.760   0.762   0.771   0.776   0.777   0.783   0.789
  0.793   0.796   0.803   0.812   0.815   0.819   0.830   0.837
  0.842   0.850   0.855   0.857   0.862   0.867   0.873   0.888
  0.896   0.898   0.905   0.911   0.912   0.916   0.930   0.936
  0.948   0.954   0.963   0.969   0.972   0.980   0.992   1.001
  1.016   1.018   1.033   1.039   1.061   1.065   1.069   1.078
  1.092   1.096   1.111   1.117   1.127   1.134   1.150   1.170
  1.183   1.189   1.197   1.211   1.218   1.229   1.235   1.249
  1.251   1.261   1.268   1.291   1.300   1.328   1.335   1.346
  1.358   1.371   1.382   1.395   1.409   1.425   1.428   1.438
  1.457   1.470   1.489   1.504   1.511   1.532   1.565   1.591
  1.611   1.640   1.659   1.674   1.698   1.700   1.706   1.762
  1.784   1.804   1.816   1.831   1.847   1.848   1.865   1.922
  1.926   1.934   1.944   1.957   1.958   1.963   1.965   1.982
  2.001   2.008   2.022   2.026   2.034   2.037   2.048   2.067
  2.081   2.087   2.124   2.132   2.150   2.162   2.173   2.175
  2.203   2.219   2.243   2.255   2.271   2.290   2.293   2.316
  2.324   2.336   2.345   2.361   2.366   2.371   2.383   2.409
  2.413   2.425   2.449   2.459   2.476   2.497   2.497   2.524
  2.544   2.551   2.578   2.591   2.605   2.629   2.636   2.667
  2.686   2.695   2.703   2.741   2.754   2.766   2.784   2.808
  2.851   2.860   2.880   2.889   2.907   2.915   2.935   2.948
  2.964   2.983   2.998   3.000   3.029   3.033   3.048   3.062
  3.068   3.092   3.117   3.120   3.139   3.149   3.182   3.206
  3.215   3.221   3.257   3.262   3.284   3.295   3.312   3.314
  3.335   3.351   3.374   3.389   3.394   3.419   3.430   3.458
  3.473   3.498   3.503   3.518   3.523   3.542   3.552   3.560
  3.568   3.587   3.596   3.606   3.612   3.648   3.651   3.667
  3.691   3.706   3.711   3.716   3.726   3.728   3.744   3.781
  3.798   3.800   3.815   3.843   3.857   3.861   3.897   3.920
  3.942   3.970   4.027   4.065   4.115   4.142   4.160   4.175
  4.229   4.247   4.279   4.296   4.331   4.339   4.412   4.427
  4.467   4.598   4.642   4.659   4.679   4.691   4.775   4.787
  4.822   4.842   4.890   4.895   4.908   4.918   4.937   4.952
  5.019   5.088   5.139   5.148   5.211   5.219   5.246   5.272
  5.288   5.327   5.344   5.355   5.367   5.373   5.376   5.384
  5.387   5.423   5.438   5.469   5.504   5.533   5.574   5.596
  5.637   5.659   5.670   5.717   5.726   5.727   5.728   5.753
  5.784   5.866   6.008   6.131   6.202   6.233   6.249   6.301
  6.317   6.320   6.339   6.359   6.415   6.458   6.509   6.524
  6.550   6.621   6.623   6.638   6.641   6.646   6.661   6.693
  6.705   6.725   6.728   6.753   6.755   6.766   6.776   6.818
  6.843   6.953   6.962   6.974   7.053   7.093   7.095   7.176
  7.216   7.250   7.259   7.298   7.343   7.366   7.380   7.402
  7.413   7.459   7.491   7.553   8.637  22.738  22.903  22.941
 23.320  23.745  43.718  44.189  44.278  44.341  44.428  44.482
 44.619
 --------------------------------------------------------------
 
          Ground-State Mulliken Net Atomic Charges

     Atom                 Charge (a.u.)    Spin (a.u.)
  --------------------------------------------------------
      1 C                    -0.216891       0.030460
      2 C                    -0.003990       0.011053
      3 O                    -0.711761       0.006524
      4 O                    -0.690862      -0.000292
      5 C                    -0.296303       0.135207
      6 H                     0.179445       0.000114
      7 H                     0.187124       0.000611
      8 C                     1.011688      -0.071500
      9 H                     0.219253      -0.006035
     10 H                     0.236834      -0.004916
     11 C                    -1.026025       0.134184
     12 H                     0.227401       0.000042
     13 H                     0.209191      -0.006590
     14 H                     0.243820      -0.005086
     15 O                    -0.550741       0.699646
     16 O                    -0.957216       0.074150
     17 O                    -0.709381       0.000675
     18 H                     0.291512       0.000513
     19 O                    -0.500547      -0.478887
     20 H                     0.314678       0.000570
     21 O                    -0.457229      -0.520444
  --------------------------------------------------------
  Sum of atomic charges =    -3.000000
  Sum of spin   charges =    -0.000000

 -----------------------------------------------------------------
                    Cartesian Multipole Moments
 -----------------------------------------------------------------
    Charge (ESU x 10^10)
               -14.4096
    Dipole Moment (Debye)
         X      -6.5263      Y      -4.6580      Z      -3.4736
       Tot       8.7381
    Quadrupole Moments (Debye-Ang)
        XX    -101.2473     XY      12.5381     YY    -114.3121
        XZ      25.0814     YZ       3.4788     ZZ    -257.8790
    Octopole Moments (Debye-Ang^2)
       XXX     -57.5909    XXY      -5.4767    XYY     -20.6767
       YYY      -7.5543    XXZ     -25.9331    XYZ      37.3846
       YYZ      22.5885    XZZ     -50.8907    YZZ    -133.0582
       ZZZ     145.9609
    Hexadecapole Moments (Debye-Ang^3)
      XXXX    -580.4071   XXXY     109.5579   XXYY    -238.6501
      XYYY     125.7891   YYYY    -884.6642   XXXZ     334.6062
      XXYZ     -30.0759   XYYZ     156.0452   YYYZ      78.5751
      XXZZ    -988.4795   XYZZ     143.1538   YYZZ   -1090.8632
      XZZZ     852.2298   YZZZ     124.7162   ZZZZ   -6887.3698
 -----------------------------------------------------------------
 Calculating analytic gradient of the SCF energy
 Gradient of SCF Energy
            1           2           3           4           5           6
    1  -0.0290909   0.0008927   0.0103613  -0.0235582   0.0542530   0.0688369
    2   0.0996708  -0.0134549  -0.0549488   0.0545369  -0.1750575  -0.0158515
    3   0.1102984  -0.0599313   0.0377986   0.0441246  -0.0800566   0.0021273
            7           8           9          10          11          12
    1  -0.0487026   0.0556576  -0.0877544   0.0557660  -0.1381625   0.0204308
    2  -0.0509588   0.0458962   0.0187799   0.0507080   0.0371506  -0.1202839
    3  -0.0352537   0.0070202  -0.0009900   0.0272404  -0.0234424   0.0500962
           13          14          15          16          17          18
    1   0.0144433   0.0564901  -0.0077725   0.0008230  -0.0453320  -0.0324678
    2   0.0283747   0.0650793   0.0273971   0.0022925   0.0334612  -0.0055282
    3  -0.1297482   0.0666315  -0.0057897  -0.0346317  -0.0337300   0.1007708
           19          20          21
    1   0.0024159   0.0771429  -0.0046726
    2  -0.0415868  -0.0259866   0.0403098
    3   0.0260196  -0.0411222  -0.0274318
 Max gradient component =       1.751E-01
 RMS gradient           =       5.726E-02
 Computing fast CPCM-ISWIG gradient
 Updating gradient with PCM contributions...
 -- total gradient after adding PCM contribution --
---------------------------------------------------
  Atom         X              Y              Z     
---------------------------------------------------
   1       0.001057      -0.000028       0.000052
   2      -0.000182       0.000009       0.000017
   3       0.000041      -0.000000      -0.000002
   4       0.000031       0.000019       0.000035
   5      -0.000144       0.000051      -0.000051
   6      -0.000540       0.000124       0.000074
   7      -0.000255      -0.000186      -0.000153
   8      -0.000032       0.000022       0.000017
   9      -0.000011       0.000060      -0.000015
  10      -0.000003      -0.000033       0.000029
  11       0.000027      -0.000010      -0.000001
  12      -0.000005       0.000002       0.000005
  13      -0.000003      -0.000002      -0.000001
  14      -0.000004       0.000003      -0.000001
  15       0.000015      -0.000023       0.000011
  16       0.000003      -0.000005       0.000005
  17       0.000067      -0.000026      -0.000017
  18       0.000006      -0.000011      -0.000011
  19      -0.000027       0.000033      -0.000002
  20      -0.000034       0.000005       0.000009
  21      -0.000006      -0.000004       0.000002
---------------------------------------------------
 Number of fixed atoms: 0
 Gradient time:  CPU 1269.53 s  wall 94.15 s
 ----------------------------------------------------------------
             Standard Nuclear Orientation (Angstroms)
    I     Atom           X                Y                Z
 ----------------------------------------------------------------
    1      C       0.3798550800     0.5166521633    -2.0571849685
    2      C       0.6533999427     0.6900341199    -3.5625872368
    3      O       0.4134572655     1.8355723364    -4.0332468201
    4      O       1.0894286805    -0.2887240608    -4.2200489313
    5      C       0.6385360142    -0.8802305461    -1.5198776672
    6      H      -0.6575618227     0.8198425060    -1.8868134910
    7      H       1.0035284536     1.2425284692    -1.5252642670
    8      C       0.4312888356    -0.9611143777     0.0815469938
    9      H       1.6736505799    -1.1735966256    -1.7109482120
   10      H      -0.0187038409    -1.6116553825    -1.9949513569
   11      C      -1.0924063491    -0.7454559366     0.3691001882
   12      H      -1.3583780191     0.2933231497     0.1638916135
   13      H      -1.2719183496    -0.9482686509     1.4287962731
   14      H      -1.7110218662    -1.4133396202    -0.2355348943
   15      O       0.7018853989    -2.2733213551     0.2941946351
   16      O       1.1966821872    -0.0680415780     0.7170827518
   17      O       1.1170172897    -0.3902027466     3.3531789191
   18      H       1.1323311670    -0.2762832975     2.3583251868
   19      O      -1.2761150540     0.7180523828     4.1739317051
   20      H       0.2583844693    -0.0097935682     3.6512960986
   21      O      -1.3175773202     1.8268483969     3.4563888748
 ----------------------------------------------------------------
 Nuclear Repulsion Energy =   690.4892563349 hartrees
 There are       49 alpha and       49 beta electrons
 Discretize the solute cavity surface with Lebedev spheres
	Using 110 Lebedev grid points for each H atom
	Using 110 Lebedev grid points for other atoms
	Atomic van der Waals radii will be scaled by 1.20
 Remove points where switching function is < 1.0e-08
 Keep 1297 surface tesserae and discard 1013 interior tesserae
 Molecular Surface Area = 247.565 Angst**2
 Requested basis set is def2-TZVPD
 There are 208 shells and 546 basis functions
 A cutoff of  1.0D-14 yielded  18444 shell pairs
 There are    125294 function pairs (    158394 Cartesian)
 Smallest overlap matrix eigenvalue = 2.90E-06
 Guess MOs from SCF MO coefficient file
 Reading MOs from coefficient file
 Reading MOs from coefficient file
 Long-range K will be added via erf
 Coulomb attenuation parameter = 0.3 bohr**(-1)
 An unrestricted hybrid HF-DFT SCF calculation will be
 performed using Pulay DIIS extrapolation
 Polarizable Continuum solvation model will be applied
 Exchange:     0.1670 Hartree-Fock + 1.0000 wB97X-V + LR-HF
 Correlation:  1.0000 wB97X-V
 Using SG-2 standard quadrature grid
 Nonlocal Correlation:  VV10 with C = 0.0100 and b = 6.00
 Grid used for NLC:  SG-1 standard quadrature
 SCF converges when DIIS error is below 1.0E-08
Using Q-Chem read-in guess as SCF_GUESS READ specified.

 using 16 threads for integral computing
 -------------------------------------------------------
 OpenMP Integral computing Module                
 Release: version 1.0, May 2013, Q-Chem Inc. Pittsburgh 
 -------------------------------------------------------
 using 16 threads for integral computing
 -------------------------------------------------------
 OpenMP Integral computing Module                
 Release: version 1.0, May 2013, Q-Chem Inc. Pittsburgh 
 -------------------------------------------------------
 -------------------------------------------------------
 OpenMP BLAS3 based DFT computing Module                
 Release: version 1.0, May 2013, Q-Chem Inc. Pittsburgh 
 -------------------------------------------------------
 -------------------------------------------------------
 OpenMP BLAS3 based DFT computing Module                
 Release: version 1.0, May 2013, Q-Chem Inc. Pittsburgh 
 -------------------------------------------------------
 -------------------------------------------------------
 OpenMP BLAS3 based DFT computing Module                
 Release: version 1.0, May 2013, Q-Chem Inc. Pittsburgh 
 -------------------------------------------------------
 ---------------------------------------
  Cycle       Energy         DIIS Error
 ---------------------------------------
    1    -722.2511541380      3.46E-04
    2    -722.8254900427      3.85E-04
    3    -722.8333750917      1.78E-04
    4    -722.8346668131      1.30E-04
    5    -722.8354982768      9.71E-05
    6    -722.8359810394      7.38E-05
    7    -722.8363701026      4.71E-05
    8    -722.8365560052      2.65E-05
    9    -722.8366262919      1.17E-05
   10    -722.8366401647      5.28E-06
   11    -722.8366432663      2.36E-06
   12    -722.8366440543      1.27E-06
   13    -722.8366443990      7.36E-07
   14    -722.8366445590      4.25E-07
   15    -722.8366446053      2.89E-07
   16    -722.8366446252      1.77E-07
   17    -722.8366446386      6.87E-08
   18    -722.8366446446      6.02E-08
   19    -722.8366446534      4.77E-08
   20    -722.8366446604      3.53E-08
   21    -722.8366446631      2.35E-08
   22    -722.8366446640      1.72E-08
   23    -722.8366446644      1.25E-08
   24    -722.8366446646      1.16E-08
   25    -722.8366446647      1.12E-08
   26    -722.8366446651      1.08E-08
   27    -722.8366446659      1.01E-08
   28    -722.8366446674      7.65E-09 Convergence criterion met
 ---------------------------------------

************** Final PCM Free Energy Summary **************
 G_electrostatic  =      -0.58574514 hartree =    -367.56062426 kcal/mol
 G_cavitation     =       0.00000000 hartree =       0.00000000 kcal/mol
 G_dispersion     =       0.00000000 hartree =       0.00000000 kcal/mol
 G_repulsion      =       0.00000000 hartree =       0.00000000 kcal/mol
 --------------------------------------------------
 Non-electrostatic Free Energy =       0.00000000 hartree =       0.00000000 kcal/mol
 Total                         =      -0.58574514 hartree =    -367.56062426 kcal/mol
 --------------------------------------------------
 SCF Energy (H0 + V/2)                       =    -722.83664467 
 Solute Internal Energy (H0)                 =    -722.25089953 
 Total Free Energy (H0 + V/2 + non-elec)     =    -722.83664467 hartree
                                             = -453586.84051467 kcal/mol
***********************************************************

 <S^2> = 1.0124
 SCF time:  CPU 11634.81 s  wall 876.67 s
 SCF   energy in the final basis set = -722.83664467
 Total energy in the final basis set = -722.83664467
 
 --------------------------------------------------------------
 
                    Orbital Energies (a.u.)
 --------------------------------------------------------------
 
 Alpha MOs
 -- Occupied --
-19.192 -19.190 -19.188 -19.155 -19.139 -19.136 -19.109 -10.340
-10.331 -10.258 -10.244 -10.244  -1.174  -1.142  -1.135  -1.074
 -1.047  -1.025  -0.888  -0.826  -0.802  -0.756  -0.631  -0.604
 -0.590  -0.565  -0.558  -0.539  -0.524  -0.513  -0.509  -0.493
 -0.484  -0.480  -0.469  -0.457  -0.441  -0.439  -0.422  -0.421
 -0.391  -0.381  -0.365  -0.345  -0.333  -0.331  -0.319  -0.297
 -0.258
 -- Virtual --
  0.055   0.061   0.074   0.080   0.086   0.090   0.098   0.105
  0.108   0.122   0.124   0.126   0.132   0.140   0.146   0.151
  0.156   0.163   0.164   0.168   0.175   0.181   0.188   0.190
  0.195   0.205   0.208   0.220   0.224   0.228   0.233   0.241
  0.246   0.250   0.253   0.265   0.271   0.275   0.284   0.290
  0.294   0.297   0.301   0.307   0.316   0.318   0.323   0.326
  0.333   0.339   0.344   0.349   0.360   0.363   0.370   0.375
  0.379   0.384   0.386   0.394   0.397   0.400   0.403   0.412
  0.415   0.420   0.424   0.426   0.431   0.438   0.441   0.445
  0.450   0.455   0.463   0.469   0.474   0.475   0.483   0.493
  0.494   0.498   0.508   0.512   0.514   0.521   0.522   0.529
  0.536   0.537   0.537   0.549   0.554   0.560   0.564   0.565
  0.573   0.575   0.577   0.587   0.590   0.594   0.598   0.603
  0.612   0.614   0.616   0.625   0.629   0.633   0.635   0.638
  0.656   0.658   0.668   0.669   0.674   0.676   0.687   0.694
  0.695   0.705   0.712   0.720   0.726   0.730   0.735   0.737
  0.742   0.760   0.761   0.771   0.775   0.777   0.782   0.788
  0.793   0.797   0.801   0.812   0.815   0.819   0.830   0.837
  0.841   0.849   0.854   0.855   0.861   0.867   0.872   0.887
  0.896   0.898   0.905   0.910   0.912   0.916   0.932   0.937
  0.947   0.953   0.963   0.969   0.974   0.981   0.992   1.001
  1.016   1.017   1.037   1.039   1.060   1.065   1.074   1.079
  1.093   1.097   1.111   1.117   1.125   1.133   1.149   1.170
  1.181   1.188   1.195   1.209   1.217   1.230   1.233   1.248
  1.249   1.260   1.266   1.288   1.295   1.326   1.335   1.344
  1.356   1.370   1.381   1.394   1.414   1.424   1.426   1.436
  1.456   1.468   1.486   1.502   1.508   1.531   1.564   1.590
  1.609   1.638   1.656   1.692   1.698   1.701   1.708   1.761
  1.790   1.806   1.823   1.833   1.847   1.861   1.866   1.919
  1.926   1.930   1.946   1.953   1.953   1.962   1.973   1.978
  2.001   2.007   2.021   2.030   2.034   2.046   2.047   2.068
  2.078   2.092   2.122   2.130   2.151   2.160   2.170   2.176
  2.201   2.215   2.242   2.250   2.272   2.288   2.295   2.314
  2.332   2.335   2.346   2.360   2.368   2.375   2.386   2.403
  2.412   2.424   2.449   2.457   2.472   2.496   2.497   2.522
  2.543   2.549   2.576   2.597   2.603   2.625   2.634   2.667
  2.685   2.696   2.701   2.738   2.752   2.765   2.783   2.807
  2.847   2.861   2.880   2.887   2.910   2.928   2.942   2.954
  2.964   2.981   2.995   2.998   3.027   3.032   3.046   3.066
  3.072   3.089   3.118   3.119   3.136   3.148   3.192   3.210
  3.219   3.244   3.257   3.260   3.283   3.301   3.310   3.312
  3.334   3.348   3.377   3.389   3.403   3.418   3.427   3.449
  3.469   3.494   3.500   3.520   3.521   3.540   3.551   3.559
  3.571   3.586   3.593   3.603   3.610   3.646   3.649   3.665
  3.687   3.703   3.708   3.713   3.724   3.725   3.741   3.776
  3.793   3.797   3.808   3.838   3.850   3.857   3.891   3.915
  3.938   3.965   4.024   4.060   4.113   4.142   4.160   4.173
  4.224   4.244   4.276   4.294   4.329   4.337   4.408   4.443
  4.464   4.595   4.638   4.656   4.676   4.688   4.773   4.785
  4.821   4.841   4.892   4.915   4.928   4.935   4.945   4.950
  5.013   5.081   5.140   5.157   5.210   5.247   5.271   5.279
  5.284   5.320   5.331   5.362   5.365   5.374   5.377   5.385
  5.407   5.413   5.421   5.464   5.504   5.517   5.568   5.580
  5.636   5.655   5.665   5.717   5.726   5.740   5.749   5.753
  5.784   5.857   6.007   6.099   6.201   6.229   6.248   6.289
  6.317   6.338   6.362   6.371   6.416   6.455   6.504   6.571
  6.598   6.621   6.631   6.638   6.653   6.676   6.683   6.697
  6.698   6.714   6.730   6.749   6.754   6.757   6.775   6.833
  6.838   6.944   6.961   6.973   7.052   7.061   7.085   7.165
  7.249   7.255   7.259   7.287   7.340   7.363   7.366   7.401
  7.413   7.456   7.508   7.550   8.651  22.736  22.901  22.939
 23.320  23.744  43.733  44.189  44.278  44.354  44.427  44.469
 44.614
 
 Beta MOs
 -- Occupied --
-19.202 -19.201 -19.178 -19.155 -19.139 -19.136 -19.108 -10.339
-10.332 -10.255 -10.244 -10.243  -1.203  -1.141  -1.112  -1.073
 -1.047  -1.007  -0.882  -0.847  -0.818  -0.746  -0.620  -0.601
 -0.587  -0.563  -0.547  -0.526  -0.518  -0.516  -0.509  -0.507
 -0.503  -0.489  -0.477  -0.465  -0.450  -0.440  -0.433  -0.419
 -0.381  -0.350  -0.345  -0.333  -0.327  -0.314  -0.312  -0.301
 -0.275
 -- Virtual --
 -0.026   0.062   0.074   0.080   0.086   0.090   0.098   0.104
  0.108   0.123   0.124   0.126   0.132   0.139   0.146   0.149
  0.154   0.163   0.164   0.167   0.175   0.181   0.188   0.190
  0.194   0.204   0.208   0.219   0.224   0.228   0.234   0.241
  0.246   0.250   0.252   0.263   0.270   0.275   0.284   0.290
  0.292   0.297   0.301   0.308   0.316   0.319   0.324   0.327
  0.333   0.340   0.345   0.349   0.360   0.364   0.372   0.375
  0.378   0.384   0.387   0.395   0.397   0.399   0.402   0.415
  0.416   0.420   0.425   0.427   0.432   0.438   0.441   0.445
  0.449   0.456   0.464   0.470   0.475   0.476   0.484   0.493
  0.496   0.498   0.509   0.512   0.515   0.520   0.521   0.529
  0.536   0.537   0.539   0.548   0.554   0.559   0.564   0.566
  0.572   0.574   0.577   0.587   0.590   0.594   0.599   0.603
  0.612   0.613   0.616   0.625   0.628   0.632   0.635   0.639
  0.657   0.658   0.667   0.668   0.673   0.676   0.687   0.694
  0.696   0.704   0.712   0.721   0.725   0.729   0.735   0.737
  0.743   0.760   0.762   0.771   0.776   0.777   0.783   0.789
  0.793   0.797   0.803   0.812   0.815   0.819   0.830   0.837
  0.842   0.850   0.854   0.857   0.862   0.867   0.873   0.888
  0.896   0.898   0.905   0.910   0.912   0.916   0.930   0.936
  0.948   0.954   0.963   0.969   0.972   0.980   0.992   1.001
  1.016   1.018   1.033   1.039   1.061   1.065   1.069   1.078
  1.092   1.096   1.111   1.117   1.127   1.134   1.150   1.170
  1.183   1.189   1.197   1.211   1.218   1.229   1.235   1.249
  1.251   1.261   1.268   1.291   1.300   1.327   1.336   1.346
  1.358   1.371   1.382   1.395   1.409   1.425   1.428   1.438
  1.457   1.470   1.489   1.504   1.511   1.532   1.565   1.591
  1.611   1.640   1.659   1.674   1.698   1.700   1.706   1.762
  1.784   1.804   1.816   1.831   1.847   1.848   1.865   1.922
  1.926   1.934   1.944   1.957   1.958   1.963   1.965   1.982
  2.001   2.008   2.022   2.026   2.034   2.037   2.048   2.067
  2.081   2.086   2.124   2.132   2.150   2.162   2.173   2.175
  2.203   2.219   2.243   2.255   2.271   2.290   2.293   2.316
  2.324   2.336   2.345   2.361   2.366   2.371   2.383   2.409
  2.413   2.425   2.449   2.459   2.476   2.497   2.497   2.524
  2.544   2.551   2.578   2.591   2.605   2.628   2.636   2.667
  2.685   2.695   2.703   2.740   2.754   2.766   2.784   2.808
  2.851   2.860   2.879   2.889   2.906   2.915   2.935   2.948
  2.964   2.983   2.998   3.000   3.029   3.033   3.048   3.062
  3.068   3.093   3.117   3.120   3.139   3.149   3.182   3.206
  3.215   3.221   3.257   3.262   3.284   3.295   3.312   3.314
  3.335   3.351   3.374   3.389   3.394   3.420   3.430   3.458
  3.473   3.498   3.503   3.518   3.523   3.541   3.552   3.560
  3.568   3.587   3.596   3.606   3.613   3.648   3.651   3.667
  3.690   3.706   3.711   3.716   3.726   3.727   3.744   3.781
  3.798   3.800   3.815   3.843   3.857   3.861   3.897   3.920
  3.942   3.970   4.027   4.065   4.115   4.143   4.160   4.175
  4.229   4.247   4.280   4.296   4.331   4.339   4.412   4.427
  4.467   4.598   4.641   4.659   4.679   4.690   4.775   4.787
  4.823   4.842   4.890   4.895   4.908   4.918   4.937   4.952
  5.019   5.088   5.139   5.148   5.211   5.219   5.246   5.272
  5.288   5.327   5.344   5.355   5.367   5.373   5.376   5.384
  5.387   5.423   5.438   5.469   5.504   5.533   5.574   5.596
  5.637   5.659   5.670   5.717   5.726   5.727   5.728   5.753
  5.784   5.866   6.008   6.131   6.202   6.233   6.249   6.301
  6.317   6.320   6.339   6.359   6.415   6.458   6.509   6.524
  6.550   6.621   6.623   6.638   6.641   6.646   6.661   6.693
  6.705   6.725   6.728   6.753   6.755   6.766   6.776   6.818
  6.843   6.953   6.962   6.974   7.053   7.093   7.095   7.176
  7.216   7.250   7.259   7.298   7.343   7.366   7.380   7.402
  7.413   7.459   7.491   7.553   8.637  22.738  22.903  22.941
 23.320  23.744  43.718  44.189  44.278  44.341  44.428  44.482
 44.619
 --------------------------------------------------------------
 
          Ground-State Mulliken Net Atomic Charges

     Atom                 Charge (a.u.)    Spin (a.u.)
  --------------------------------------------------------
      1 C                    -0.217277       0.030451
      2 C                    -0.003571       0.011064
      3 O                    -0.711708       0.006534
      4 O                    -0.690795      -0.000291
      5 C                    -0.297304       0.135347
      6 H                     0.181030       0.000126
      7 H                     0.186146       0.000603
      8 C                     1.011770      -0.071542
      9 H                     0.219213      -0.006075
     10 H                     0.237001      -0.004883
     11 C                    -1.025988       0.134167
     12 H                     0.227392       0.000043
     13 H                     0.209175      -0.006598
     14 H                     0.243834      -0.005095
     15 O                    -0.550798       0.699566
     16 O                    -0.957165       0.074163
     17 O                    -0.709379       0.000672
     18 H                     0.291546       0.000510
     19 O                    -0.500550      -0.478887
     20 H                     0.314654       0.000571
     21 O                    -0.457225      -0.520446
  --------------------------------------------------------
  Sum of atomic charges =    -3.000000
  Sum of spin   charges =     0.000000

 -----------------------------------------------------------------
                    Cartesian Multipole Moments
 -----------------------------------------------------------------
    Charge (ESU x 10^10)
               -14.4096
    Dipole Moment (Debye)
         X      -6.5280      Y      -4.6575      Z      -3.4755
       Tot       8.7400
    Quadrupole Moments (Debye-Ang)
        XX    -101.2456     XY      12.5334     YY    -114.3161
        XZ      25.0857     YZ       3.4793     ZZ    -257.8724
    Octopole Moments (Debye-Ang^2)
       XXX     -57.5684    XXY      -5.4789    XYY     -20.6712
       YYY      -7.5512    XXZ     -25.9341    XYZ      37.3976
       YYZ      22.5886    XZZ     -50.8928    YZZ    -133.0652
       ZZZ     145.9195
    Hexadecapole Moments (Debye-Ang^3)
      XXXX    -580.3550   XXXY     109.5564   XXYY    -238.6425
      XYYY     125.7868   YYYY    -884.7070   XXXZ     334.5544
      XXYZ     -30.0676   XYYZ     156.0399   YYYZ      78.5794
      XXZZ    -988.4795   XYZZ     143.1328   YYZZ   -1090.8788
      XZZZ     852.2508   YZZZ     124.7308   ZZZZ   -6887.2227
 -----------------------------------------------------------------
 Calculating analytic gradient of the SCF energy
 Gradient of SCF Energy
            1           2           3           4           5           6
    1  -0.0311473   0.0012019   0.0103198  -0.0236010   0.0546703   0.0699944
    2   0.0995892  -0.0134460  -0.0549500   0.0545323  -0.1751126  -0.0162842
    3   0.1102211  -0.0601296   0.0378080   0.0440980  -0.0799087   0.0020025
            7           8           9          10          11          12
    1  -0.0483345   0.0556675  -0.0877776   0.0557228  -0.1381920   0.0204514
    2  -0.0504001   0.0459356   0.0186601   0.0508233   0.0371175  -0.1202582
    3  -0.0349896   0.0070896  -0.0011488   0.0273433  -0.0234039   0.0500485
           13          14          15          16          17          18
    1   0.0144325   0.0564789  -0.0077820   0.0008211  -0.0453350  -0.0324767
    2   0.0283826   0.0650587   0.0273944   0.0022924   0.0334629  -0.0055343
    3  -0.1297533   0.0666288  -0.0057873  -0.0346350  -0.0337327   0.1007931
           19          20          21
    1   0.0024150   0.0771427  -0.0046722
    2  -0.0415902  -0.0259851   0.0403116
    3   0.0260156  -0.0411296  -0.0274302
 Max gradient component =       1.751E-01
 RMS gradient           =       5.729E-02
 Computing fast CPCM-ISWIG gradient
 Updating gradient with PCM contributions...
 -- total gradient after adding PCM contribution --
---------------------------------------------------
  Atom         X              Y              Z     
---------------------------------------------------
   1      -0.001068      -0.000017      -0.000010
   2       0.000172       0.000042      -0.000024
   3      -0.000027      -0.000026       0.000009
   4      -0.000034      -0.000022      -0.000045
   5       0.000176      -0.000029      -0.000014
   6       0.000542      -0.000128      -0.000086
   7       0.000248       0.000197       0.000149
   8      -0.000019       0.000047      -0.000012
   9       0.000008      -0.000055       0.000024
  10      -0.000020       0.000037       0.000003
  11       0.000022      -0.000016       0.000002
  12      -0.000002       0.000001       0.000002
  13      -0.000003      -0.000002      -0.000001
  14      -0.000004       0.000003      -0.000001
  15       0.000004      -0.000027       0.000015
  16      -0.000002      -0.000003       0.000006
  17       0.000066      -0.000026      -0.000018
  18       0.000006      -0.000011      -0.000011
  19      -0.000028       0.000032      -0.000003
  20      -0.000033       0.000006       0.000010
  21      -0.000006      -0.000004       0.000002
---------------------------------------------------
 Number of fixed atoms: 0
 Gradient time:  CPU 1265.67 s  wall 93.93 s
 ----------------------------------------------------------------
             Standard Nuclear Orientation (Angstroms)
    I     Atom           X                Y                Z
 ----------------------------------------------------------------
    1      C       0.3808550800     0.5176521633    -2.0571849685
    2      C       0.6533999427     0.6900341199    -3.5625872368
    3      O       0.4134572655     1.8355723364    -4.0332468201
    4      O       1.0894286805    -0.2887240608    -4.2200489313
    5      C       0.6385360142    -0.8802305461    -1.5198776672
    6      H      -0.6575618227     0.8198425060    -1.8868134910
    7      H       1.0035284536     1.2425284692    -1.5252642670
    8      C       0.4312888356    -0.9611143777     0.0815469938
    9      H       1.6736505799    -1.1735966256    -1.7109482120
   10      H      -0.0187038409    -1.6116553825    -1.9949513569
   11      C      -1.0924063491    -0.7454559366     0.3691001882
   12      H      -1.3583780191     0.2933231497     0.1638916135
   13      H      -1.2719183496    -0.9482686509     1.4287962731
   14      H      -1.7110218662    -1.4133396202    -0.2355348943
   15      O       0.7018853989    -2.2733213551     0.2941946351
   16      O       1.1966821872    -0.0680415780     0.7170827518
   17      O       1.1170172897    -0.3902027466     3.3531789191
   18      H       1.1323311670    -0.2762832975     2.3583251868
   19      O      -1.2761150540     0.7180523828     4.1739317051
   20      H       0.2583844693    -0.0097935682     3.6512960986
   21      O      -1.3175773202     1.8268483969     3.4563888748
 ----------------------------------------------------------------
 Nuclear Repulsion Energy =   690.4830503044 hartrees
 There are       49 alpha and       49 beta electrons
 Discretize the solute cavity surface with Lebedev spheres
	Using 110 Lebedev grid points for each H atom
	Using 110 Lebedev grid points for other atoms
	Atomic van der Waals radii will be scaled by 1.20
 Remove points where switching function is < 1.0e-08
 Keep 1297 surface tesserae and discard 1013 interior tesserae
 Molecular Surface Area = 247.572 Angst**2
 Requested basis set is def2-TZVPD
 There are 208 shells and 546 basis functions
 A cutoff of  1.0D-14 yielded  18444 shell pairs
 There are    125294 function pairs (    158394 Cartesian)
 Smallest overlap matrix eigenvalue = 2.91E-06
 Guess MOs from SCF MO coefficient file
 Reading MOs from coefficient file
 Reading MOs from coefficient file
 Long-range K will be added via erf
 Coulomb attenuation parameter = 0.3 bohr**(-1)
 An unrestricted hybrid HF-DFT SCF calculation will be
 performed using Pulay DIIS extrapolation
 Polarizable Continuum solvation model will be applied
 Exchange:     0.1670 Hartree-Fock + 1.0000 wB97X-V + LR-HF
 Correlation:  1.0000 wB97X-V
 Using SG-2 standard quadrature grid
 Nonlocal Correlation:  VV10 with C = 0.0100 and b = 6.00
 Grid used for NLC:  SG-1 standard quadrature
 SCF converges when DIIS error is below 1.0E-08
Using Q-Chem read-in guess as SCF_GUESS READ specified.

 using 16 threads for integral computing
 -------------------------------------------------------
 OpenMP Integral computing Module                
 Release: version 1.0, May 2013, Q-Chem Inc. Pittsburgh 
 -------------------------------------------------------
 using 16 threads for integral computing
 -------------------------------------------------------
 OpenMP Integral computing Module                
 Release: version 1.0, May 2013, Q-Chem Inc. Pittsburgh 
 -------------------------------------------------------
 -------------------------------------------------------
 OpenMP BLAS3 based DFT computing Module                
 Release: version 1.0, May 2013, Q-Chem Inc. Pittsburgh 
 -------------------------------------------------------
 -------------------------------------------------------
 OpenMP BLAS3 based DFT computing Module                
 Release: version 1.0, May 2013, Q-Chem Inc. Pittsburgh 
 -------------------------------------------------------
 -------------------------------------------------------
 OpenMP BLAS3 based DFT computing Module                
 Release: version 1.0, May 2013, Q-Chem Inc. Pittsburgh 
 -------------------------------------------------------
 ---------------------------------------
  Cycle       Energy         DIIS Error
 ---------------------------------------
    1    -722.2511241439      3.46E-04
    2    -722.8254628914      3.86E-04
    3    -722.8333677198      1.79E-04
    4    -722.8346612585      1.30E-04
    5    -722.8354897164      9.76E-05
    6    -722.8359539733      7.53E-05
    7    -722.8363125799      5.20E-05
    8    -722.8365074310      3.32E-05
    9    -722.8366048696      1.76E-05
   10    -722.8366329977      9.26E-06
   11    -722.8366416375      4.35E-06
   12    -722.8366436573      2.27E-06
   13    -722.8366443165      1.28E-06
   14    -722.8366445998      6.85E-07
   15    -722.8366446704      4.86E-07
   16    -722.8366447030      3.21E-07
   17    -722.8366447271      7.24E-08
   18    -722.8366447341      6.31E-08
   19    -722.8366447432      4.98E-08
   20    -722.8366447508      3.51E-08
   21    -722.8366447533      2.21E-08
   22    -722.8366447539      1.52E-08
   23    -722.8366447542      9.74E-09 Convergence criterion met
 ---------------------------------------

************** Final PCM Free Energy Summary **************
 G_electrostatic  =      -0.58574193 hartree =    -367.55861139 kcal/mol
 G_cavitation     =       0.00000000 hartree =       0.00000000 kcal/mol
 G_dispersion     =       0.00000000 hartree =       0.00000000 kcal/mol
 G_repulsion      =       0.00000000 hartree =       0.00000000 kcal/mol
 --------------------------------------------------
 Non-electrostatic Free Energy =       0.00000000 hartree =       0.00000000 kcal/mol
 Total                         =      -0.58574193 hartree =    -367.55861139 kcal/mol
 --------------------------------------------------
 SCF Energy (H0 + V/2)                       =    -722.83664475 
 Solute Internal Energy (H0)                 =    -722.25090282 
 Total Free Energy (H0 + V/2 + non-elec)     =    -722.83664475 hartree
                                             = -453586.84056911 kcal/mol
***********************************************************

 <S^2> = 1.0124
 SCF time:  CPU 9504.99 s  wall 714.67 s
 SCF   energy in the final basis set = -722.83664475
 Total energy in the final basis set = -722.83664475
 
 --------------------------------------------------------------
 
                    Orbital Energies (a.u.)
 --------------------------------------------------------------
 
 Alpha MOs
 -- Occupied --
-19.192 -19.190 -19.188 -19.155 -19.139 -19.136 -19.109 -10.340
-10.331 -10.258 -10.244 -10.244  -1.174  -1.142  -1.135  -1.074
 -1.047  -1.025  -0.888  -0.826  -0.802  -0.756  -0.631  -0.604
 -0.590  -0.565  -0.558  -0.539  -0.524  -0.513  -0.509  -0.493
 -0.484  -0.480  -0.469  -0.457  -0.441  -0.439  -0.423  -0.421
 -0.391  -0.381  -0.365  -0.345  -0.333  -0.330  -0.319  -0.297
 -0.258
 -- Virtual --
  0.055   0.061   0.074   0.080   0.086   0.090   0.098   0.105
  0.108   0.122   0.124   0.126   0.132   0.140   0.146   0.151
  0.156   0.163   0.164   0.168   0.175   0.181   0.188   0.190
  0.195   0.205   0.208   0.220   0.224   0.228   0.233   0.241
  0.246   0.250   0.253   0.265   0.271   0.275   0.284   0.290
  0.294   0.297   0.301   0.307   0.316   0.318   0.323   0.326
  0.333   0.339   0.344   0.349   0.360   0.363   0.370   0.375
  0.378   0.384   0.386   0.394   0.397   0.400   0.403   0.412
  0.415   0.420   0.424   0.426   0.431   0.438   0.441   0.444
  0.450   0.455   0.463   0.469   0.474   0.475   0.483   0.493
  0.494   0.498   0.508   0.512   0.514   0.521   0.522   0.529
  0.536   0.537   0.537   0.549   0.554   0.560   0.564   0.565
  0.573   0.575   0.577   0.587   0.590   0.594   0.598   0.603
  0.612   0.614   0.616   0.625   0.629   0.633   0.635   0.638
  0.656   0.658   0.667   0.669   0.674   0.676   0.687   0.694
  0.695   0.705   0.712   0.720   0.726   0.730   0.735   0.737
  0.742   0.760   0.761   0.771   0.775   0.777   0.782   0.788
[...]
 O          0.016 -0.052  0.021    0.003 -0.023  0.005    0.007 -0.027  0.006
 O          0.016  0.006 -0.005   -0.016 -0.030 -0.025    0.002  0.001  0.005
 O          0.001  0.002 -0.000    0.000 -0.000 -0.000   -0.000 -0.000 -0.000
 H         -0.025 -0.055 -0.006   -0.003 -0.004  0.005    0.002  0.004  0.001
 O         -0.000  0.000  0.000   -0.000  0.000  0.000   -0.000 -0.000  0.000
 H         -0.002 -0.004  0.001   -0.002  0.002 -0.006    0.000 -0.000  0.001
 O         -0.000  0.000 -0.000   -0.000 -0.000 -0.000   -0.000  0.000 -0.000
 TransDip  -0.029 -0.007  0.043    0.026  0.132  0.103   -0.048  0.249 -0.035

 Mode:                37                     38                     39
 Frequency:      1252.44                1281.81                1302.54
 Force Cnst:      4.1334                15.4620                 1.2279
 Red. Mass:       4.4725                15.9722                 1.2284
 IR Active:          YES                    YES                    YES
 IR Intens:      460.612                  0.796                 54.488
 Raman Active:       YES                    YES                    YES
               X      Y      Z        X      Y      Z        X      Y      Z
 C          0.021 -0.000  0.036    0.000  0.000 -0.000    0.057 -0.004  0.043
 C          0.035  0.008  0.021    0.000  0.000 -0.000    0.028  0.007  0.005
 O         -0.008  0.010 -0.006    0.000 -0.000  0.000   -0.004  0.004 -0.004
 O          0.001 -0.014 -0.009   -0.000 -0.000  0.000   -0.003 -0.002 -0.001
 C         -0.082 -0.038 -0.051   -0.000  0.000 -0.000   -0.062  0.005 -0.045
 H         -0.013 -0.245  0.269    0.000 -0.002  0.003   -0.003 -0.334  0.239
 H         -0.038  0.361 -0.380   -0.001  0.001 -0.000   -0.037  0.390 -0.388
 C          0.235  0.357  0.187    0.001  0.001  0.001   -0.055 -0.044 -0.035
 H          0.019  0.149  0.186   -0.000  0.000  0.001    0.006  0.331 -0.169
 H          0.073 -0.097 -0.159    0.001 -0.001 -0.000    0.061 -0.411  0.438
 C         -0.017 -0.060 -0.049   -0.000  0.000 -0.000    0.015  0.004  0.006
 H          0.069  0.019  0.152    0.002  0.000 -0.002   -0.029 -0.013 -0.018
 H          0.053  0.209  0.025    0.002 -0.003  0.000   -0.055 -0.007 -0.010
 H         -0.316  0.118  0.074    0.000  0.000 -0.001    0.016  0.003  0.002
 O          0.002 -0.080  0.005   -0.000 -0.000  0.000    0.001  0.002  0.002
 O         -0.129 -0.149 -0.103   -0.001 -0.001 -0.001    0.021  0.022  0.015
 O          0.002 -0.001 -0.009    0.005 -0.003 -0.003   -0.000  0.000  0.002
 H         -0.003  0.016  0.058    0.022 -0.009 -0.004    0.003 -0.001 -0.010
 O         -0.001 -0.000  0.001   -0.028  0.595 -0.381    0.000 -0.000 -0.000
 H         -0.005  0.007 -0.023    0.002  0.029  0.007   -0.000 -0.002  0.002
 O         -0.000  0.001 -0.000    0.022 -0.593  0.383    0.000 -0.000  0.000
 TransDip   0.294  0.474  0.401    0.002 -0.023  0.017   -0.105 -0.118 -0.176

 Mode:                40                     41                     42
 Frequency:      1335.97                1354.24                1424.67
 Force Cnst:      1.6691                 1.3202                 8.3345
 Red. Mass:       1.5873                 1.2218                 6.9695
 IR Active:          YES                    YES                    YES
 IR Intens:        5.268                 11.876                520.557
 Raman Active:       YES                    YES                    YES
               X      Y      Z        X      Y      Z        X      Y      Z
 C          0.022  0.085 -0.137    0.000  0.006  0.001    0.037  0.019 -0.182
 C          0.013  0.035 -0.047    0.002  0.002  0.005   -0.084 -0.095  0.526
 O          0.009 -0.059  0.033   -0.001  0.000  0.000   -0.043  0.241 -0.134
 O         -0.010  0.017  0.013    0.001 -0.004 -0.003    0.096 -0.192 -0.179
 C         -0.030 -0.049  0.103    0.000 -0.002 -0.009   -0.011  0.014  0.018
 H          0.020 -0.336  0.610   -0.001 -0.028  0.051    0.173  0.156  0.414
 H         -0.124 -0.114  0.317   -0.006  0.022 -0.013   -0.384  0.080  0.240
 C          0.006 -0.019  0.023   -0.018  0.030  0.010   -0.014 -0.030  0.013
 H         -0.055  0.178 -0.439   -0.004 -0.016 -0.018   -0.061 -0.080 -0.107
 H          0.155  0.020 -0.285    0.022 -0.044  0.023    0.133 -0.081 -0.039
 C          0.002 -0.001 -0.008   -0.129  0.017  0.022    0.009 -0.000 -0.014
 H         -0.005  0.006  0.038    0.537  0.136 -0.145   -0.022  0.021  0.127
 H         -0.003  0.037 -0.001    0.545 -0.105  0.097   -0.049  0.080 -0.006
 H          0.005 -0.012  0.004    0.452 -0.237 -0.259    0.028 -0.048  0.026
 O         -0.005  0.020 -0.006    0.007 -0.018 -0.000    0.001  0.009 -0.002
 O         -0.003 -0.003 -0.006    0.004 -0.001 -0.002    0.006  0.004  0.004
 O          0.000 -0.000  0.000   -0.000  0.001 -0.001    0.000  0.000 -0.000
 H         -0.007 -0.002 -0.000    0.003 -0.009 -0.000   -0.004 -0.007  0.001
 O         -0.000 -0.000 -0.000    0.000 -0.000  0.000   -0.000  0.000 -0.000
 H          0.002  0.005 -0.001   -0.001 -0.005  0.005    0.001  0.001  0.001
 O          0.000  0.000 -0.000   -0.000  0.000 -0.000   -0.000 -0.000  0.000
 TransDip  -0.018  0.071 -0.006    0.038  0.095  0.040   -0.119 -0.189  0.696

 Mode:                43                     44                     45
 Frequency:      1454.34                1462.83                1468.58
 Force Cnst:      1.4566                 1.3306                 1.3730
 Red. Mass:       1.1689                 1.0554                 1.0805
 IR Active:          YES                    YES                    YES
 IR Intens:       35.289                  7.457                  8.773
 Raman Active:       YES                    YES                    YES
               X      Y      Z        X      Y      Z        X      Y      Z
 C          0.023 -0.089  0.002    0.003 -0.010 -0.003   -0.007  0.005  0.027
 C          0.001  0.024 -0.050    0.000  0.006 -0.008    0.003 -0.009 -0.009
 O          0.005 -0.028  0.014    0.001 -0.006  0.003   -0.000  0.003 -0.001
 O         -0.005  0.010  0.011   -0.001  0.001  0.002   -0.003  0.006  0.005
 C         -0.004  0.035 -0.016    0.005 -0.012 -0.007   -0.014  0.054  0.011
 H          0.241  0.575  0.256    0.033  0.075  0.047   -0.051 -0.075 -0.123
 H         -0.563  0.340  0.132   -0.080  0.045  0.024    0.123 -0.050 -0.058
 C         -0.003  0.001  0.001   -0.000  0.013 -0.007   -0.004 -0.010 -0.006
 H         -0.064 -0.176 -0.031    0.039  0.080  0.044   -0.158 -0.376 -0.161
 H          0.145 -0.109 -0.006   -0.084  0.052  0.021    0.362 -0.242 -0.076
 C          0.001 -0.006  0.003   -0.002  0.045 -0.040   -0.008 -0.023 -0.039
 H         -0.044 -0.017 -0.004    0.368  0.168  0.188    0.035  0.107  0.530
 H          0.034  0.048  0.018   -0.359 -0.305 -0.153   -0.116  0.424  0.041
 H         -0.000  0.052 -0.057    0.013 -0.484  0.527    0.186 -0.194 -0.024
 O          0.001 -0.002  0.001    0.001 -0.001 -0.000    0.001  0.002 -0.000
 O          0.001  0.001 -0.000   -0.001 -0.002  0.000    0.001  0.001  0.000
 O          0.000 -0.000  0.000    0.000 -0.000  0.000   -0.000  0.000  0.000
 H         -0.006  0.002  0.000   -0.003  0.008  0.001    0.004  0.001 -0.002
 O         -0.000 -0.000 -0.000   -0.000 -0.000 -0.000    0.000  0.000  0.000
 H          0.001  0.004 -0.002   -0.001  0.003 -0.008   -0.001 -0.002  0.001
 O          0.000  0.000  0.000   -0.000 -0.000 -0.000   -0.000 -0.000  0.000
 TransDip  -0.034  0.178 -0.059   -0.023 -0.048  0.069    0.034 -0.083 -0.030

 Mode:                46                     47                     48
 Frequency:      1473.83                1582.18                1649.79
 Force Cnst:      1.3855                14.8246                 1.7088
 Red. Mass:       1.0826                10.0513                 1.0656
 IR Active:          YES                    YES                    YES
 IR Intens:       13.629               1239.853                 76.379
 Raman Active:       YES                    YES                    YES
               X      Y      Z        X      Y      Z        X      Y      Z
 C          0.007 -0.007 -0.017    0.011 -0.053  0.025    0.000  0.000 -0.000
 C         -0.002  0.007 -0.006   -0.241  0.717  0.110    0.000 -0.001 -0.001
 O          0.001 -0.006  0.003    0.056 -0.247  0.085   -0.000  0.000  0.000
 O         -0.000  0.001  0.001    0.110 -0.253 -0.156   -0.000  0.001  0.000
 C          0.019 -0.059 -0.013   -0.004  0.009  0.015   -0.000 -0.000  0.000
 H          0.043  0.093  0.048   -0.058 -0.036 -0.358    0.002  0.004  0.005
 H         -0.100  0.045  0.043    0.196 -0.000 -0.251   -0.003  0.000  0.002
 C         -0.002 -0.018 -0.017   -0.003 -0.004 -0.000   -0.001  0.004 -0.000
 H          0.178  0.415  0.181   -0.030 -0.022 -0.025   -0.003 -0.004 -0.005
 H         -0.407  0.261  0.107    0.041 -0.002 -0.012    0.005 -0.001 -0.003
 C         -0.013 -0.032 -0.021    0.003 -0.001 -0.002    0.001 -0.000 -0.000
 H         -0.035  0.061  0.431   -0.021 -0.001  0.026   -0.000 -0.001 -0.005
 H         -0.012  0.466  0.082   -0.004  0.019  0.001   -0.009 -0.008 -0.005
 H          0.193 -0.069 -0.169    0.000  0.003 -0.002   -0.006 -0.001  0.009
 O         -0.000  0.003  0.000    0.001  0.000 -0.001    0.000 -0.001 -0.000
 O          0.002  0.005  0.004    0.001  0.001 -0.000   -0.005  0.001 -0.000
 O         -0.001  0.000 -0.000   -0.001  0.000 -0.000   -0.044  0.026 -0.034
 H          0.011 -0.002 -0.003    0.011 -0.006 -0.001    0.670 -0.311 -0.025
 O          0.000  0.000  0.000    0.000 -0.000  0.000    0.000 -0.000 -0.003
 H         -0.000 -0.006  0.007    0.001 -0.004  0.010    0.134 -0.173  0.634
 O         -0.000 -0.000  0.000   -0.000 -0.000  0.000   -0.001  0.002 -0.001
 TransDip  -0.035  0.101  0.052   -0.350  1.065  0.119    0.204 -0.087  0.170

 Mode:                49                     50                     51
 Frequency:      3042.32                3054.27                3072.97
 Force Cnst:      5.8725                 5.6752                 5.9018
 Red. Mass:       1.0769                 1.0326                 1.0608
 IR Active:          YES                    YES                    YES
 IR Intens:     2155.175                 58.939                 36.679
 Raman Active:       YES                    YES                    YES
               X      Y      Z        X      Y      Z        X      Y      Z
 C          0.001  0.000  0.000   -0.005  0.005  0.003   -0.031  0.050  0.033
 C          0.000  0.000 -0.000   -0.000  0.000 -0.000   -0.000  0.001 -0.001
 O         -0.000 -0.000  0.000    0.000  0.000 -0.000    0.000 -0.000  0.000
 O         -0.000  0.000  0.000    0.000 -0.000 -0.000    0.000 -0.000  0.000
 C          0.002 -0.001  0.002    0.001 -0.003 -0.002    0.006 -0.009 -0.004
 H         -0.011  0.003  0.002    0.093 -0.026 -0.014    0.731 -0.201 -0.115
 H         -0.001 -0.001 -0.002   -0.028 -0.030 -0.022   -0.357 -0.396 -0.288
 C         -0.006 -0.003 -0.006    0.000 -0.001 -0.000    0.000  0.001 -0.000
 H         -0.020  0.006  0.002   -0.037  0.010  0.006   -0.126  0.034  0.022
 H          0.001  0.000  0.002    0.026  0.028  0.018    0.056  0.060  0.037
 C          0.003  0.000  0.001    0.045 -0.001 -0.013   -0.006 -0.004  0.003
 H         -0.002  0.021 -0.004   -0.109  0.487 -0.103    0.005 -0.022  0.007
 H         -0.004 -0.003  0.019   -0.086 -0.117  0.590    0.013  0.015 -0.083
 H         -0.022 -0.025 -0.023   -0.324 -0.367 -0.335    0.047  0.052  0.049
 O          0.001 -0.000  0.001   -0.000  0.000  0.000   -0.000 -0.000  0.000
 O          0.003  0.002  0.007   -0.000 -0.000 -0.000   -0.000 -0.000  0.000
 O          0.003  0.006 -0.066   -0.000 -0.000  0.003    0.000  0.000 -0.001
 H         -0.040 -0.102  0.990    0.003  0.004 -0.045   -0.001 -0.001  0.010
 O         -0.001  0.000  0.000    0.000 -0.000 -0.000    0.000  0.000  0.000
 H          0.006  0.002 -0.025    0.000  0.000  0.002   -0.000 -0.000 -0.001
 O         -0.000  0.000  0.000   -0.000  0.000 -0.000   -0.000 -0.000  0.000
 TransDip  -0.002  0.300  1.456    0.197 -0.057 -0.136   -0.087  0.173 -0.014

 Mode:                52                     53                     54
 Frequency:      3084.01                3113.53                3136.75
 Force Cnst:      5.9279                 6.2855                 6.4028
 Red. Mass:       1.0578                 1.1005                 1.1045
 IR Active:          YES                    YES                    YES
 IR Intens:       43.863                  7.044                 30.621
 Raman Active:       YES                    YES                    YES
               X      Y      Z        X      Y      Z        X      Y      Z
 C         -0.005  0.007  0.007   -0.078 -0.028 -0.022    0.008  0.003  0.002
 C         -0.000  0.001  0.001   -0.001 -0.000 -0.000    0.000 -0.000  0.000
 O          0.000 -0.000 -0.000    0.000  0.000  0.000   -0.000  0.000 -0.000
 O          0.000 -0.001  0.000   -0.000  0.000  0.000   -0.000  0.000 -0.000
 C         -0.023  0.053  0.032    0.030  0.009  0.006    0.024  0.006  0.004
 H          0.120 -0.032 -0.019    0.531 -0.159 -0.097   -0.052  0.015  0.009
 H         -0.061 -0.068 -0.050    0.417  0.494  0.364   -0.040 -0.048 -0.035
 C         -0.000 -0.001  0.002    0.000 -0.000 -0.000    0.000 -0.000 -0.001
 H          0.692 -0.186 -0.116   -0.212  0.061  0.042   -0.179  0.053  0.033
 H         -0.411 -0.439 -0.278   -0.152 -0.171 -0.112   -0.110 -0.124 -0.078
 C          0.001 -0.002 -0.002   -0.002 -0.009  0.001   -0.021 -0.002 -0.087
 H         -0.010  0.034 -0.007   -0.017  0.063 -0.012    0.043 -0.195  0.022
 H         -0.004 -0.007  0.031    0.005  0.004 -0.032   -0.119 -0.142  0.710
 H         -0.001 -0.002 -0.002    0.031  0.034  0.032    0.323  0.363  0.314
 O          0.000  0.001 -0.001   -0.000  0.000 -0.000    0.000 -0.000  0.000
 O         -0.000 -0.000 -0.000   -0.000  0.000 -0.000   -0.000  0.000  0.000
 O          0.000  0.000 -0.001    0.000  0.000 -0.000   -0.000  0.000 -0.001
 H         -0.000 -0.002  0.015   -0.000 -0.001  0.005    0.001 -0.000  0.009
 O         -0.000 -0.000 -0.000   -0.000 -0.000 -0.000    0.000 -0.000  0.000
 H          0.001  0.000  0.000    0.000  0.001  0.001    0.001 -0.001 -0.001
 O          0.000  0.000  0.000    0.000  0.000  0.000   -0.000  0.000 -0.000
 TransDip  -0.086  0.080  0.177   -0.070 -0.043  0.020    0.011  0.009 -0.177

 Mode:                55                     56                     57
 Frequency:      3143.92                3150.00                3379.08
 Force Cnst:      6.4445                 6.4559                 7.1978
 Red. Mass:       1.1066                 1.1043                 1.0699
 IR Active:          YES                    YES                    YES
 IR Intens:       77.175                 33.971               1262.295
 Raman Active:       YES                    YES                    YES
               X      Y      Z        X      Y      Z        X      Y      Z
 C         -0.030 -0.008 -0.007    0.006 -0.001  0.000    0.000 -0.000 -0.000
 C         -0.000  0.000 -0.000    0.000 -0.000 -0.000   -0.000 -0.000  0.000
 O          0.000 -0.000  0.000   -0.000 -0.000  0.000    0.000  0.000 -0.000
 O          0.000 -0.000  0.000    0.000  0.000  0.000    0.000 -0.000 -0.000
 C         -0.080 -0.024 -0.015   -0.009 -0.004 -0.002    0.000  0.000 -0.000
 H          0.214 -0.065 -0.036   -0.065  0.018  0.012   -0.000  0.000  0.000
 H          0.140  0.167  0.120   -0.009 -0.012 -0.009    0.000 -0.000  0.000
 C         -0.001 -0.001 -0.000   -0.001 -0.002 -0.001    0.000  0.000  0.001
 H          0.562 -0.164 -0.104    0.059 -0.017 -0.012   -0.001  0.000  0.000
 H          0.397  0.448  0.283    0.056  0.063  0.040   -0.000 -0.000 -0.000
 C         -0.006  0.008 -0.025   -0.010 -0.092  0.001   -0.000  0.000  0.000
 H          0.032 -0.134  0.023   -0.194  0.780 -0.162   -0.000  0.001 -0.000
 H         -0.035 -0.041  0.212    0.023  0.014 -0.157    0.000  0.000 -0.001
 H          0.074  0.084  0.071    0.295  0.315  0.299   -0.001 -0.001 -0.001
 O          0.000  0.000  0.000    0.000  0.000 -0.000   -0.000  0.000 -0.000
 O          0.000  0.000  0.000    0.000  0.001  0.000   -0.000 -0.000 -0.001
 O         -0.000  0.000 -0.001    0.000  0.000 -0.000   -0.055  0.024  0.021
 H         -0.000 -0.002  0.020   -0.001 -0.001  0.008   -0.020  0.008  0.011
 O         -0.000  0.000  0.000    0.000  0.000  0.000    0.003 -0.000 -0.001
 H          0.001 -0.001 -0.001   -0.001 -0.001 -0.001    0.863 -0.383 -0.322
 O         -0.000  0.000 -0.000   -0.000 -0.000 -0.000   -0.000 -0.001  0.001
 TransDip  -0.265 -0.058 -0.076   -0.053 -0.179  0.001    0.912 -0.600 -0.322

 STANDARD THERMODYNAMIC QUANTITIES AT   298.15 K  AND     1.00 ATM

   This Molecule has  0 Imaginary Frequencies
   Zero point vibrational energy:       91.175 kcal/mol

   Atom    1 Element C  Has Mass   12.00000
   Atom    2 Element C  Has Mass   12.00000
   Atom    3 Element O  Has Mass   15.99491
   Atom    4 Element O  Has Mass   15.99491
   Atom    5 Element C  Has Mass   12.00000
   Atom    6 Element H  Has Mass    1.00783
   Atom    7 Element H  Has Mass    1.00783
   Atom    8 Element C  Has Mass   12.00000
   Atom    9 Element H  Has Mass    1.00783
   Atom   10 Element H  Has Mass    1.00783
   Atom   11 Element C  Has Mass   12.00000
   Atom   12 Element H  Has Mass    1.00783
   Atom   13 Element H  Has Mass    1.00783
   Atom   14 Element H  Has Mass    1.00783
   Atom   15 Element O  Has Mass   15.99491
   Atom   16 Element O  Has Mass   15.99491
   Atom   17 Element O  Has Mass   15.99491
   Atom   18 Element H  Has Mass    1.00783
   Atom   19 Element O  Has Mass   15.99491
   Atom   20 Element H  Has Mass    1.00783
   Atom   21 Element O  Has Mass   15.99491
   Molecular Mass:   181.034840 amu
   Principal axes and moments of inertia in amu*Bohr^2:
                             1           2           3
    Eigenvalues --     1302.24958  5685.51579  6388.06916
          X              -0.16864    -0.40620     0.89809
          Y              -0.00002     0.91114     0.41210
          Z               0.98568    -0.06947     0.15366
   Rotational Symmetry Number is   1
   The Molecule is an Asymmetric Top
   Translational Enthalpy:        0.889 kcal/mol
   Rotational Enthalpy:           0.889 kcal/mol
   Vibrational Enthalpy:         99.316 kcal/mol
   gas constant (RT):             0.592 kcal/mol
   Translational Entropy:        41.487  cal/mol.K
   Rotational Entropy:           32.225  cal/mol.K
   Vibrational Entropy:          62.395  cal/mol.K

   Total Enthalpy:              101.686 kcal/mol
   Total Entropy:               136.108  cal/mol.K
Archival summary:
1\1\g5-2\FREQ\ProcedureUnspecified\BasisUnspecified\759(3-,1)\leeping\SatMar2120:29:342020SatMar2120:29:342020\0\\#,FREQ,ProcedureUnspecified,BasisUnspecified,\\-3,1\O\C,1,1.3369\O,2,1.35659,1,117.223\C,2,1.56552,1,112.202,3,124.934,0\H,4,1.09175,2,109.491,1,52.3731,0\H,4,1.09286,2,111.415,1,174.093,0\H,4,1.09376,2,108.189,1,-65.7905,0\C,2,1.6168,1,111.349,3,-114.588,0\H,8,1.09208,2,108.677,1,-178.915,0\H,8,1.09272,2,106.331,1,64.6817,0\C,8,1.51868,2,112.006,1,-55.7879,0\H,11,1.09433,8,109.974,2,54.7168,0\H,11,1.09511,8,111.131,2,-62.6827,0\C,11,1.53967,8,114.801,2,176.008,0\O,14,1.25712,11,119.017,8,-1.80778,0\O,14,1.26149,11,115.683,8,178.33,0\H,1,1.65565,2,111.406,3,-58.2012,0\O,17,1.00147,1,178.479,2,156.439,0\H,18,0.98531,17,105.663,1,126.948,0\O,19,1.77696,18,178.499,17,-63.918,0\O,20,1.32137,19,102.186,18,20.4173,0\\\@

 Total job time:  115171.96s(wall), 1529711.06s(cpu) 
 Sat Mar 21 20:29:34 2020

        *************************************************************
        *                                                           *
        *  Thank you very much for using Q-Chem.  Have a nice day.  *
        *                                                           *
        *************************************************************


