19   
From 3-product-freq.out: Frame 1 / 115, Energy=    -646.9663126300
C       -2.6789969502    0.9766734932   -0.9087165815
H       -2.0287318318    1.7883805570   -1.2440821134
H       -3.4459154986    0.8031331201   -1.6676498011
H       -3.1644714512    1.2672408383    0.0270070661
C       -1.8577507274   -0.3087167476   -0.7572009318
C        1.2207340169   -0.7593837065    0.2601844391
H        1.2041294179   -0.5200145138   -0.8060079335
H        1.7294449816   -1.7187134956    0.3967779024
C        1.9035057068    0.3302576388    1.0699873610
H        1.8641254168    0.0749638759    2.1360974610
H        1.3692591379    1.2779480781    0.9549557548
C        3.3779500008    0.5633401942    0.7050149350
O       -0.9223032825    0.1016131918    0.3513430279
O       -2.7387143788   -1.2895665326   -0.1596743544
H       -2.3385606605   -2.1348334705   -0.3998045347
O       -1.2502113578   -0.7560728050   -1.8112542904
O        3.9400710278    1.5470398758    1.2563181874
O        3.9245828999   -0.2367821770   -0.0971130857
O       -0.1123143695   -1.0158051368    0.7005821710
