
Running Job 1 of 1 qc-freq2.in
qchem qc-freq2.in_26763.0 /scratch/leeping/1862739/qc-freq2.d/ 1
/home/leeping/opt/qchem/5.0.2-openmp/exe/qcprog.exe_s qc-freq2.in_26763.0 /scratch/leeping/1862739/qc-freq2.d/
Check license passed

                  Welcome to Q-Chem
     A Quantum Leap Into The Future Of Chemistry


 Q-Chem 5.0, Q-Chem, Inc., Pleasanton, CA (2017)

 Yihan Shao,  Zhengting Gan,  E. Epifanovsky,  A. T. B. Gilbert,  M. Wormit,  
 J. Kussmann,  A. W. Lange,  A. Behn,  Jia Deng,  Xintian Feng,  D. Ghosh,  
 M. Goldey,  P. R. Horn,  L. D. Jacobson,  I. Kaliman,  T. Kus,  A. Landau,  
 Jie Liu,  E. I. Proynov,  R. M. Richard,  R. P. Steele,  E. J. Sundstrom,  
 H. L. Woodcock III,  P. M. Zimmerman,  D. Zuev,  B. Albrecht,  E. Alguire,  
 S. A. Baeppler,  D. Barton,  Z. Benda,  Y. A. Bernard,  E. J. Berquist,  
 K. B. Bravaya,  H. Burton,  D. Casanova,  Chun-Min Chang,  Yunqing Chen,  
 A. Chien,  K. D. Closser,  M. P. Coons,  S. Dasgupta,  A. L. Dempwolff,  
 M. Diedenhofen,  Hainam Do,  R. G. Edgar,  Po-Tung Fang,  S. Fatehi,  
 Qingguo Feng,  J. Fosso-Tande,  Qinghui Ge,  A. Ghysels,  G. Gidofalvi,  
 J. Gomes,  J. Gonthier,  A. Gunina,  M. W. D. Hanson-Heine,  
 P. H. P. Harbach,  A. W. Hauser,  J. E. Herr,  E. G. Hohenstein,  
 Z. C. Holden,  Kerwin Hui,  T.-C. Jagau,  Hyunjun Ji,  B. Kaduk,  
 K. Khistyaev,  Jaehoon Kim,  P. Klunzinger,  K. Koh,  D. Kosenkov,  
 L. Koulias,  T. Kowalczyk,  C. M. Krauter,  A. Kunitsa,  Ka Un Lao,  
 A. Laurent,  K. V. Lawler,  Joonho Lee,  D. Lefrancois,  S. Lehtola,  
 D. S. Levine,  Yi-Pei Li,  You-Sheng Lin,  Fenglai Liu,  E. Livshits,  
 A. Luenser,  P. Manohar,  E. Mansoor,  S. F. Manzer,  Shan-Ping Mao,  
 Yuezhi Mao,  N. Mardirossian,  A. V. Marenich,  T. Markovich,  
 L. A. Martinez-Martinez,  S. A. Maurer,  N. J. Mayhall,  S. C. McKenzie,  
 J.-M. Mewes,  A. F. Morrison,  J. W. Mullinax,  K. Nanda,  
 T. S. Nguyen-Beck,  R. Olivares-Amaya,  J. A. Parkhill,  T. M. Perrine,  
 F. Plasser,  S. Prager,  A. Prociuk,  E. Ramos,  D. R. Rehn,  F. Rob,  
 M. Schneider,  N. Sergueev,  S. M. Sharada,  S. Sharma,  D. W. Small,  
 T. Stauch,  T. Stein,  Yu-Chuan Su,  A. J. W. Thom,  A. Tkatchenko,  
 T. Tsuchimochi,  L. Vogt,  O. Vydrov,  M. A. Watson,  J. Wenzel,  
 M. de Wergifosse,  T. A. Wesolowski,  A. White,  J. Witte,  A. Yamada,  
 Jun Yang,  K. Yao,  S. Yeganeh,  S. R. Yost,  Zhi-Qiang You,  A. Zech,  
 Igor Ying Zhang,  Xing Zhang,  Yan Zhao,  Ying Zhu,  B. R. Brooks,  
 G. K. L. Chan,  C. J. Cramer,  M. S. Gordon,  W. J. Hehre,  A. Klamt,  
 M. W. Schmidt,  C. D. Sherrill,  D. G. Truhlar,  A. Aspuru-Guzik,  R. Baer,  
 A. T. Bell,  N. A. Besley,  Jeng-Da Chai,  R. A. DiStasio Jr.,  A. Dreuw,  
 B. D. Dunietz,  T. R. Furlani,  Chao-Ping Hsu,  Yousung Jung,  Jing Kong,  
 D. S. Lambrecht,  WanZhen Liang,  C. Ochsenfeld,  V. A. Rassolov,  
 L. V. Slipchenko,  J. E. Subotnik,  T. Van Voorhis,  J. M. Herbert,  
 A. I. Krylov,  P. M. W. Gill,  M. Head-Gordon

 Contributors to earlier versions of Q-Chem not listed above: 
 R. D. Adamson,  B. Austin,  J. Baker,  G. J. O. Beran,  K. Brandhorst,  
 S. T. Brown,  E. F. C. Byrd,  A. K. Chakraborty,  C.-L. Cheng,  
 Siu Hung Chien,  D. M. Chipman,  D. L. Crittenden,  H. Dachsel,  
 R. J. Doerksen,  A. D. Dutoi,  L. Fusti-Molnar,  W. A. Goddard III,  
 A. Golubeva-Zadorozhnaya,  S. R. Gwaltney,  G. Hawkins,  A. Heyden,  
 S. Hirata,  G. Kedziora,  F. J. Keil,  C. Kelley,  Jihan Kim,  R. A. King,  
 R. Z. Khaliullin,  P. P. Korambath,  W. Kurlancheek,  A. M. Lee,  M. S. Lee,  
 S. V. Levchenko,  Ching Yeh Lin,  D. Liotard,  R. C. Lochan,  I. Lotan,  
 P. E. Maslen,  N. Nair,  D. P. O'Neill,  D. Neuhauser,  E. Neuscamman,  
 C. M. Oana,  R. Olson,  B. Peters,  R. Peverati,  P. A. Pieniazek,  
 Y. M. Rhee,  J. Ritchie,  M. A. Rohrdanz,  E. Rosta,  N. J. Russ,  
 H. F. Schaefer III,  N. E. Schultz,  N. Shenvi,  A. C. Simmonett,  A. Sodt,  
 D. Stuck,  K. S. Thanthiriwatte,  V. Vanovschi,  Tao Wang,  A. Warshel,  
 C. F. Williams,  Q. Wu,  X. Xu,  W. Zhang

 Please cite Q-Chem as follows:
 Y. Shao et al., Mol. Phys. 113, 184-215 (2015)
 DOI: 10.1080/00268976.2014.952696

 Q-Chem 5.0.2 for Intel X86 EM64T Linux

 Parts of Q-Chem use Armadillo 5.200.1 (Boston Tea Smuggler).
 http://arma.sourceforge.net/

 Q-Chem begins on Fri Mar 20 21:31:05 2020  

Host: 
0

     Scratch files written to /scratch/leeping/1862739/qc-freq2.d//
 Dec517 15110_ 26548  26544 5633   
Processing $rem in /home/leeping/opt/qchem/5.0.2-openmp/config/preferences.
 MEM_STATIC 2000
 MEM_TOTAL  8000
 SYMMETRY   OFF
 SYM_IGNORE TRUE 
Symmetry turned off for PCM/SM12/SMD calculation

Checking the input file for inconsistencies... 	...done.

--------------------------------------------------------------
User input:
--------------------------------------------------------------
$molecule
-2 1
C       -2.6988028888   -0.2670301482   -0.6445361871
H       -2.7168413314    0.7316406188   -0.2023403780
H       -2.9045773228   -0.1928913652   -1.7153722006
H       -3.4791206402   -0.8759225570   -0.1782584241
C       -1.3499866765   -0.9582737116   -0.4411735824
C        0.7310962069    1.3687738479    0.5320681103
H        0.3804278044    0.9018828608    1.4566227684
H        0.7920408396    2.4516248371    0.6852387825
C        2.0899000627    0.8146746958    0.1427549473
H        2.8316072056    1.2555389504    0.8223615485
H        2.3560155733    1.1310406242   -0.8696306205
C        2.2605000739   -0.7070385298    0.2648178294
O       -0.2691382764   -0.0738413525   -1.0257208040
O       -1.1133580734   -0.9854668546    0.9716954969
H       -0.1602969329   -1.1913048827    1.0807543356
O       -1.1881231628   -2.0984283330   -1.0480191441
O        3.0436669913   -1.2575657260   -0.5463199577
O        1.6551748963   -1.2975408237    1.2059780147
O       -0.2616659210    1.2532890317   -0.4915404641
$end

$rem
jobtype               freq
method                wb97x-v
basis                 def2-tzvpd
symmetry              off
sym_ignore            true
incdft                false
incfock               0
!scf_algorithm        diis_gdm
scf_convergence       8
thresh                14
!purecart             112
max_scf_cycles        1000
geom_opt_max_cycles   500
geom_opt_dmax         100
geom_opt_tol_gradient 10
solvent_method        pcm
ideriv                1
rpath_tol_displacement 1000
rpath_max_cycles      100
rpath_direction       1
!scf_guess            read
scf_guess             read
$end

$pcm
theory              cosmo
method              iswig
Radii               bondi
vdwScale            1.20
hpoints             110
heavypoints         110
$end

$solvent
dielectric 78.400000
$end

--------------------------------------------------------------
 ----------------------------------------------------------------
             Standard Nuclear Orientation (Angstroms)
    I     Atom           X                Y                Z
 ----------------------------------------------------------------
    1      C      -2.6988028888    -0.2670301482    -0.6445361871
    2      H      -2.7168413314     0.7316406188    -0.2023403780
    3      H      -2.9045773228    -0.1928913652    -1.7153722006
    4      H      -3.4791206402    -0.8759225570    -0.1782584241
    5      C      -1.3499866765    -0.9582737116    -0.4411735824
    6      C       0.7310962069     1.3687738479     0.5320681103
    7      H       0.3804278044     0.9018828608     1.4566227684
    8      H       0.7920408396     2.4516248371     0.6852387825
    9      C       2.0899000627     0.8146746958     0.1427549473
   10      H       2.8316072056     1.2555389504     0.8223615485
   11      H       2.3560155733     1.1310406242    -0.8696306205
   12      C       2.2605000739    -0.7070385298     0.2648178294
   13      O      -0.2691382764    -0.0738413525    -1.0257208040
   14      O      -1.1133580734    -0.9854668546     0.9716954969
   15      H      -0.1602969329    -1.1913048827     1.0807543356
   16      O      -1.1881231628    -2.0984283330    -1.0480191441
   17      O       3.0436669913    -1.2575657260    -0.5463199577
   18      O       1.6551748963    -1.2975408237     1.2059780147
   19      O      -0.2616659210     1.2532890317    -0.4915404641
 ----------------------------------------------------------------
 Nuclear Repulsion Energy =   685.3587675200 hartrees
 There are       44 alpha and       44 beta electrons
 Requested basis set is def2-TZVPD
 There are 189 shells and 497 basis functions

 Total QAlloc Memory Limit   8000 MB
 Mega-Array Size      1956 MB
 MEM_STATIC part      2000 MB
 Discretize the solute cavity surface with Lebedev spheres
	Using 110 Lebedev grid points for each H atom
	Using 110 Lebedev grid points for other atoms
	Atomic van der Waals radii will be scaled by 1.20
 Remove points where switching function is < 1.0e-08
 Keep 1074 surface tesserae and discard 1016 interior tesserae
 Molecular Surface Area = 188.266 Angst**2
 A cutoff of  1.0D-14 yielded  16620 shell pairs
 There are    116410 function pairs (    149041 Cartesian)
 
 -------------------------------------------------------
 OpenMP Integral Computing Module                       
 Release: version 1.0, May 2013, Q-Chem Inc. Pittsburgh 
 -------------------------------------------------------
 Integral Job Info:
 Integral job number is                      11
 Integral operator is                         1
 short-range coefficients              16700000
 long-range coefficients              100000000
 Omega coefficients                         300
 if combine SR and LR in K                    1
 Integral screening is                        0
 Integral computing path is                   2
 max size of driver memory is            800000
 size of driver memory is                776718
 size of scratch memory is              4473992
 max col of scratch BK array              10000
 max len of scratch array in speh3          662
 max len of scratch index in speh4           32
 max int batch size is                      520
 min int batch size is                       52
 fixed nKL is                                52
 max L of basis functions is                  3
 order of int derivative is                   0
 number of shells is                        189
 number of basis is                         563
 number of cartesian basis is               563
 number of contracted shell pairs         16620
 number of primitive shell pairs          33556
 maxK2 (contraction) of shell pair           36
 max number of K2 of shell pair               1
 max number of CS2 of shell pair           2678
 max number of PS2 of shell pair           3846
 mem total for path MDJ                  857964
 -------------------------------------------------------
 Smallest overlap matrix eigenvalue = 4.72E-06
 Guess MOs from SCF MO coefficient file
 Reading MOs from coefficient file
 Reading MOs from coefficient file
 Long-range K will be added via erf
 Coulomb attenuation parameter = 0.3 bohr**(-1)
 A restricted hybrid HF-DFT SCF calculation will be
 performed using Pulay DIIS extrapolation
 Polarizable Continuum solvation model will be applied
 Exchange:     0.1670 Hartree-Fock + 1.0000 wB97X-V + LR-HF
 Correlation:  1.0000 wB97X-V
 Using SG-2 standard quadrature grid
 Nonlocal Correlation:  VV10 with C = 0.0100 and b = 6.00
 Grid used for NLC:  SG-1 standard quadrature
 SCF converges when DIIS error is below 1.0E-08
Using Q-Chem read-in guess as SCF_GUESS READ specified.

 using 16 threads for integral computing
 -------------------------------------------------------
 OpenMP Integral computing Module                
 Release: version 1.0, May 2013, Q-Chem Inc. Pittsburgh 
 -------------------------------------------------------
 using 16 threads for integral computing
 -------------------------------------------------------
 OpenMP Integral computing Module                
 Release: version 1.0, May 2013, Q-Chem Inc. Pittsburgh 
 -------------------------------------------------------
 -------------------------------------------------------
 OpenMP BLAS3 based DFT computing Module                
 Release: version 1.0, May 2013, Q-Chem Inc. Pittsburgh 
 -------------------------------------------------------
 -------------------------------------------------------
 OpenMP BLAS3 based DFT computing Module                
 Release: version 1.0, May 2013, Q-Chem Inc. Pittsburgh 
 -------------------------------------------------------
 -------------------------------------------------------
 OpenMP BLAS3 based DFT computing Module                
 Release: version 1.0, May 2013, Q-Chem Inc. Pittsburgh 
 -------------------------------------------------------
 ---------------------------------------
  Cycle       Energy         DIIS Error
 ---------------------------------------
    1    -646.6317709445      5.25E-04
    2    -646.9511685148      5.98E-04
    3    -646.9655868386      2.63E-04
    4    -646.9678200245      1.92E-04
    5    -646.9691664357      1.46E-04
    6    -646.9698837570      1.16E-04
    7    -646.9703867694      8.93E-05
    8    -646.9706666542      7.04E-05
    9    -646.9708887939      5.06E-05
   10    -646.9709836793      3.91E-05
   11    -646.9710477477      2.89E-05
   12    -646.9710790095      2.23E-05
   13    -646.9710963734      1.76E-05
   14    -646.9711086768      1.33E-05
   15    -646.9711149577      1.05E-05
   16    -646.9711193204      7.91E-06
   17    -646.9711250836      7.77E-09 Convergence criterion met
 ---------------------------------------

************** Final PCM Free Energy Summary **************
 G_electrostatic  =      -0.33935585 hartree =    -212.94900984 kcal/mol
 G_cavitation     =       0.00000000 hartree =       0.00000000 kcal/mol
 G_dispersion     =       0.00000000 hartree =       0.00000000 kcal/mol
 G_repulsion      =       0.00000000 hartree =       0.00000000 kcal/mol
 --------------------------------------------------
 Non-electrostatic Free Energy =       0.00000000 hartree =       0.00000000 kcal/mol
 Total                         =      -0.33935585 hartree =    -212.94900984 kcal/mol
 --------------------------------------------------
 SCF Energy (H0 + V/2)                       =    -646.97112508 
 Solute Internal Energy (H0)                 =    -646.63176923 
 Total Free Energy (H0 + V/2 + non-elec)     =    -646.97112508 hartree
                                             = -405980.50845348 kcal/mol
***********************************************************

 SCF time:  CPU 5905.45 s  wall 415.49 s
 SCF   energy in the final basis set = -646.97112508
 Total energy in the final basis set = -646.97112508
 
 --------------------------------------------------------------
 
                    Orbital Energies (a.u.)
 --------------------------------------------------------------
 
 Alpha MOs
 -- Occupied --
-19.244 -19.227 -19.172 -19.144 -19.143 -19.106 -10.367 -10.346
-10.297 -10.250 -10.232  -1.227  -1.148  -1.135  -1.055  -1.046
 -0.988  -0.868  -0.832  -0.741  -0.668  -0.618  -0.611  -0.590
 -0.574  -0.541  -0.529  -0.522  -0.517  -0.514  -0.482  -0.471
 -0.464  -0.457  -0.446  -0.428  -0.400  -0.367  -0.352  -0.344
 -0.341  -0.333  -0.320  -0.309
 -- Virtual --
  0.062   0.078   0.081   0.082   0.103   0.109   0.109   0.113
  0.115   0.132   0.142   0.147   0.149   0.155   0.159   0.160
  0.170   0.176   0.182   0.193   0.200   0.201   0.208   0.212
  0.219   0.227   0.236   0.241   0.246   0.260   0.265   0.269
  0.276   0.280   0.286   0.293   0.299   0.300   0.308   0.313
  0.314   0.319   0.323   0.328   0.334   0.345   0.348   0.352
  0.360   0.363   0.365   0.367   0.377   0.380   0.386   0.390
  0.393   0.403   0.407   0.413   0.417   0.422   0.427   0.429
  0.435   0.438   0.445   0.451   0.454   0.461   0.466   0.471
  0.480   0.483   0.490   0.499   0.500   0.511   0.518   0.523
  0.526   0.528   0.532   0.543   0.545   0.549   0.561   0.561
  0.563   0.569   0.571   0.578   0.589   0.598   0.603   0.613
  0.614   0.621   0.636   0.646   0.659   0.663   0.667   0.672
  0.685   0.691   0.692   0.698   0.704   0.711   0.716   0.727
  0.732   0.734   0.745   0.752   0.759   0.772   0.776   0.783
  0.785   0.796   0.798   0.802   0.811   0.816   0.822   0.823
  0.826   0.829   0.839   0.843   0.854   0.866   0.868   0.874
  0.883   0.892   0.900   0.904   0.910   0.920   0.926   0.937
  0.942   0.947   0.971   0.975   0.986   0.995   1.010   1.020
  1.036   1.050   1.052   1.064   1.075   1.090   1.102   1.114
  1.120   1.133   1.144   1.151   1.157   1.175   1.192   1.199
  1.212   1.224   1.241   1.255   1.266   1.280   1.299   1.313
  1.320   1.325   1.335   1.349   1.367   1.377   1.389   1.400
  1.408   1.418   1.426   1.443   1.466   1.472   1.479   1.493
  1.515   1.527   1.541   1.560   1.571   1.585   1.600   1.620
  1.637   1.673   1.688   1.728   1.774   1.832   1.859   1.877
  1.885   1.899   1.923   1.926   1.945   1.952   1.971   1.972
  1.983   1.994   2.004   2.014   2.029   2.040   2.043   2.063
  2.077   2.089   2.097   2.123   2.145   2.158   2.172   2.182
  2.185   2.202   2.220   2.233   2.260   2.270   2.293   2.311
  2.325   2.341   2.355   2.369   2.372   2.406   2.419   2.440
  2.460   2.464   2.489   2.491   2.514   2.536   2.543   2.574
  2.596   2.607   2.615   2.636   2.644   2.684   2.691   2.695
  2.708   2.727   2.757   2.763   2.776   2.821   2.828   2.846
  2.860   2.894   2.904   2.924   2.947   2.957   2.973   2.988
  2.993   3.018   3.025   3.037   3.087   3.117   3.148   3.168
  3.209   3.212   3.233   3.248   3.266   3.284   3.293   3.306
  3.320   3.347   3.351   3.379   3.391   3.412   3.424   3.439
  3.463   3.471   3.475   3.488   3.491   3.514   3.525   3.532
  3.556   3.570   3.578   3.607   3.618   3.623   3.635   3.653
  3.664   3.674   3.689   3.714   3.722   3.735   3.759   3.772
  3.773   3.789   3.806   3.825   3.829   3.850   3.884   3.888
  3.906   3.914   3.944   3.984   4.010   4.066   4.099   4.135
  4.151   4.177   4.213   4.243   4.262   4.305   4.340   4.368
  4.403   4.462   4.596   4.606   4.629   4.652   4.686   4.761
  4.771   4.800   4.848   4.892   4.918   4.927   4.968   5.058
  5.087   5.100   5.171   5.214   5.291   5.327   5.361   5.366
  5.375   5.395   5.398   5.413   5.453   5.504   5.514   5.539
  5.588   5.639   5.650   5.704   5.713   5.727   5.730   5.775
  5.785   5.866   5.941   5.983   6.016   6.111   6.178   6.208
  6.267   6.277   6.311   6.331   6.354   6.379   6.431   6.474
  6.486   6.630   6.675   6.709   6.720   6.740   6.763   6.778
  6.813   6.834   6.850   6.880   6.935   6.959   6.961   7.016
  7.055   7.068   7.084   7.158   7.187   7.233   7.261   7.336
  7.353   7.375   7.387   7.435   7.455   7.490   7.552   7.632
  7.668   8.412  22.711  22.822  22.862  23.243  23.766  44.386
 44.402  44.491  44.512  44.595  44.832
 --------------------------------------------------------------
 
          Ground-State Mulliken Net Atomic Charges

     Atom                 Charge (a.u.)
  ----------------------------------------
      1 C                    -1.022540
      2 H                     0.185503
      3 H                     0.226342
      4 H                     0.250809
      5 C                     0.765693
      6 C                    -0.217991
      7 H                     0.151686
      8 H                     0.244926
      9 C                    -0.108265
     10 H                     0.241615
     11 H                     0.153310
     12 C                     0.337735
     13 O                    -0.249657
     14 O                    -0.586522
     15 H                     0.320809
     16 O                    -0.885001
     17 O                    -0.719640
     18 O                    -0.774424
     19 O                    -0.314387
  ----------------------------------------
  Sum of atomic charges =    -2.000000

 -----------------------------------------------------------------
                    Cartesian Multipole Moments
 -----------------------------------------------------------------
    Charge (ESU x 10^10)
                -9.6064
    Dipole Moment (Debye)
         X      -4.1404      Y      15.6344      Z       3.8674
       Tot      16.6293
    Quadrupole Moments (Debye-Ang)
        XX    -105.6729     XY       9.6724     YY    -100.5898
        XZ       0.3938     YZ      -3.3377     ZZ     -85.0193
    Octopole Moments (Debye-Ang^2)
       XXX    -123.7750    XXY      89.9214    XYY     -13.7210
       YYY     144.3754    XXZ      21.8728    XYZ       8.4824
       YYZ      25.4890    XZZ     -15.9368    YZZ      47.8506
       ZZZ      20.8687
    Hexadecapole Moments (Debye-Ang^3)
      XXXX   -1753.0911   XXXY     111.2541   XXYY    -454.6842
      XYYY     -27.2772   YYYY    -789.3496   XXXZ     -38.8545
      XXYZ     -27.0269   XYYZ     -54.6717   YYYZ     -56.5037
      XXZZ    -335.2221   XYZZ      -6.0122   YYZZ    -206.6115
      XZZZ    -101.9338   YZZZ     -32.4555   ZZZZ    -366.7329
 -----------------------------------------------------------------
 Calculating analytic gradient of the SCF energy
 Gradient of SCF Energy
            1           2           3           4           5           6
    1  -0.1109134   0.0036278   0.0062331   0.0568328   0.0835195  -0.0207531
    2   0.0549906  -0.0784197  -0.0068464   0.0526068  -0.0559130  -0.0032267
    3  -0.0423865  -0.0348823   0.0862549  -0.0381209   0.0219882   0.0876523
            7           8           9          10          11          12
    1   0.0169523   0.0034033   0.0415328  -0.0439475  -0.0112052   0.0362123
    2   0.0289392  -0.0492031   0.0543215  -0.0157361  -0.0232890  -0.0539778
    3  -0.0693381  -0.0095796  -0.0554343  -0.0366676   0.0632276   0.0318899
           13          14          15          16          17          18
    1  -0.0054701   0.0417165  -0.0723067  -0.0041687  -0.0413498   0.0203207
    2  -0.0330546  -0.0224125   0.0326973   0.0303653   0.0361085   0.0216562
    3  -0.0284357   0.0129167  -0.0175654   0.0204842   0.0382505  -0.0419456
           19
    1  -0.0002366
    2   0.0303933
    3   0.0116918
 Max gradient component =       1.109E-01
 RMS gradient           =       4.359E-02
 Computing fast CPCM-ISWIG gradient
 Updating gradient with PCM contributions...
 -- total gradient after adding PCM contribution --
---------------------------------------------------
  Atom         X              Y              Z     
---------------------------------------------------
   1       0.000021       0.000025      -0.000003
   2       0.000001       0.000002      -0.000009
   3      -0.000008      -0.000018      -0.000002
   4      -0.000007       0.000005       0.000007
   5      -0.000014      -0.000087      -0.000064
   6      -0.000048      -0.000014      -0.000013
   7       0.000008      -0.000008      -0.000013
   8      -0.000014       0.000003       0.000025
   9       0.000011       0.000020       0.000025
  10       0.000015      -0.000001      -0.000015
  11      -0.000011      -0.000010      -0.000003
  12      -0.000017      -0.000006       0.000014
  13      -0.000011       0.000020       0.000019
  14      -0.000013      -0.000013       0.000029
  15       0.000003      -0.000002      -0.000003
  16       0.000006       0.000058       0.000011
  17       0.000008      -0.000004       0.000002
  18      -0.000005      -0.000006      -0.000007
  19       0.000076       0.000037      -0.000000
---------------------------------------------------
 Number of fixed atoms: 0
 Gradient time:  CPU 1235.82 s  wall 87.86 s
 ######################################################
 ######################################################
 # Starting finite difference calculation for IDERIV  #
 Finite diff step size:  1.88973e-03 a.u.
 ----------------------------------------------------------------
             Standard Nuclear Orientation (Angstroms)
    I     Atom           X                Y                Z
 ----------------------------------------------------------------
    1      C      -2.6978028888    -0.2670301482    -0.6445361871
    2      H      -2.7168413314     0.7316406188    -0.2023403780
    3      H      -2.9045773228    -0.1928913652    -1.7153722006
    4      H      -3.4791206402    -0.8759225570    -0.1782584241
    5      C      -1.3499866765    -0.9582737116    -0.4411735824
    6      C       0.7310962069     1.3687738479     0.5320681103
    7      H       0.3804278044     0.9018828608     1.4566227684
    8      H       0.7920408396     2.4516248371     0.6852387825
    9      C       2.0899000627     0.8146746958     0.1427549473
   10      H       2.8316072056     1.2555389504     0.8223615485
   11      H       2.3560155733     1.1310406242    -0.8696306205
   12      C       2.2605000739    -0.7070385298     0.2648178294
   13      O      -0.2691382764    -0.0738413525    -1.0257208040
   14      O      -1.1133580734    -0.9854668546     0.9716954969
   15      H      -0.1602969329    -1.1913048827     1.0807543356
   16      O      -1.1881231628    -2.0984283330    -1.0480191441
   17      O       3.0436669913    -1.2575657260    -0.5463199577
   18      O       1.6551748963    -1.2975408237     1.2059780147
   19      O      -0.2616659210     1.2532890317    -0.4915404641
 ----------------------------------------------------------------
 Nuclear Repulsion Energy =   685.3809232985 hartrees
 There are       44 alpha and       44 beta electrons
 Discretize the solute cavity surface with Lebedev spheres
	Using 110 Lebedev grid points for each H atom
	Using 110 Lebedev grid points for other atoms
	Atomic van der Waals radii will be scaled by 1.20
 Remove points where switching function is < 1.0e-08
 Keep 1074 surface tesserae and discard 1016 interior tesserae
 Molecular Surface Area = 188.258 Angst**2
 Requested basis set is def2-TZVPD
 There are 189 shells and 497 basis functions
 A cutoff of  1.0D-14 yielded  16620 shell pairs
 There are    116410 function pairs (    149041 Cartesian)
 Smallest overlap matrix eigenvalue = 4.72E-06
 Guess MOs from SCF MO coefficient file
 Reading MOs from coefficient file
 Reading MOs from coefficient file
 Long-range K will be added via erf
 Coulomb attenuation parameter = 0.3 bohr**(-1)
 A restricted hybrid HF-DFT SCF calculation will be
 performed using Pulay DIIS extrapolation
 Polarizable Continuum solvation model will be applied
 Exchange:     0.1670 Hartree-Fock + 1.0000 wB97X-V + LR-HF
 Correlation:  1.0000 wB97X-V
 Using SG-2 standard quadrature grid
 Nonlocal Correlation:  VV10 with C = 0.0100 and b = 6.00
 Grid used for NLC:  SG-1 standard quadrature
 SCF converges when DIIS error is below 1.0E-08
Using Q-Chem read-in guess as SCF_GUESS READ specified.

 using 16 threads for integral computing
 -------------------------------------------------------
 OpenMP Integral computing Module                
 Release: version 1.0, May 2013, Q-Chem Inc. Pittsburgh 
 -------------------------------------------------------
 using 16 threads for integral computing
 -------------------------------------------------------
 OpenMP Integral computing Module                
 Release: version 1.0, May 2013, Q-Chem Inc. Pittsburgh 
 -------------------------------------------------------
 -------------------------------------------------------
 OpenMP BLAS3 based DFT computing Module                
 Release: version 1.0, May 2013, Q-Chem Inc. Pittsburgh 
 -------------------------------------------------------
 -------------------------------------------------------
 OpenMP BLAS3 based DFT computing Module                
 Release: version 1.0, May 2013, Q-Chem Inc. Pittsburgh 
 -------------------------------------------------------
 -------------------------------------------------------
 OpenMP BLAS3 based DFT computing Module                
 Release: version 1.0, May 2013, Q-Chem Inc. Pittsburgh 
 -------------------------------------------------------
 ---------------------------------------
  Cycle       Energy         DIIS Error
 ---------------------------------------
    1    -646.6316279720      5.25E-04
    2    -646.9511704676      5.98E-04
    3    -646.9655881390      2.63E-04
    4    -646.9678214964      1.92E-04
    5    -646.9691712565      1.46E-04
    6    -646.9698951131      1.15E-04
    7    -646.9704198778      8.72E-05
    8    -646.9707254990      6.56E-05
    9    -646.9709667673      4.13E-05
   10    -646.9710680427      2.47E-05
   11    -646.9711139972      1.05E-05
   12    -646.9711232074      3.22E-06
   13    -646.9711241130      7.08E-07
   14    -646.9711241572      1.23E-07
   15    -646.9711241584      4.01E-08
   16    -646.9711241586      7.58E-09 Convergence criterion met
 ---------------------------------------

************** Final PCM Free Energy Summary **************
 G_electrostatic  =      -0.33936562 hartree =    -212.95513797 kcal/mol
 G_cavitation     =       0.00000000 hartree =       0.00000000 kcal/mol
 G_dispersion     =       0.00000000 hartree =       0.00000000 kcal/mol
 G_repulsion      =       0.00000000 hartree =       0.00000000 kcal/mol
 --------------------------------------------------
 Non-electrostatic Free Energy =       0.00000000 hartree =       0.00000000 kcal/mol
 Total                         =      -0.33936562 hartree =    -212.95513797 kcal/mol
 --------------------------------------------------
 SCF Energy (H0 + V/2)                       =    -646.97112416 
 Solute Internal Energy (H0)                 =    -646.63175854 
 Total Free Energy (H0 + V/2 + non-elec)     =    -646.97112416 hartree
                                             = -405980.50787303 kcal/mol
***********************************************************

 SCF time:  CPU 5552.22 s  wall 391.00 s
 SCF   energy in the final basis set = -646.97112416
 Total energy in the final basis set = -646.97112416
 
 --------------------------------------------------------------
 
                    Orbital Energies (a.u.)
 --------------------------------------------------------------
 
 Alpha MOs
 -- Occupied --
-19.244 -19.227 -19.172 -19.144 -19.143 -19.106 -10.367 -10.346
-10.297 -10.250 -10.232  -1.227  -1.148  -1.135  -1.055  -1.046
 -0.988  -0.868  -0.832  -0.741  -0.668  -0.618  -0.611  -0.590
 -0.574  -0.541  -0.529  -0.522  -0.517  -0.514  -0.482  -0.471
 -0.464  -0.457  -0.446  -0.428  -0.400  -0.367  -0.352  -0.344
 -0.341  -0.333  -0.320  -0.309
 -- Virtual --
  0.062   0.078   0.081   0.082   0.103   0.109   0.109   0.113
  0.115   0.133   0.142   0.147   0.149   0.155   0.159   0.160
  0.170   0.176   0.182   0.193   0.200   0.201   0.208   0.212
  0.219   0.227   0.236   0.241   0.246   0.260   0.265   0.269
  0.276   0.280   0.286   0.293   0.299   0.300   0.308   0.313
  0.314   0.319   0.323   0.328   0.334   0.345   0.348   0.352
  0.360   0.363   0.365   0.367   0.377   0.380   0.386   0.390
  0.393   0.403   0.407   0.413   0.417   0.422   0.427   0.429
  0.435   0.438   0.445   0.451   0.454   0.461   0.466   0.471
  0.480   0.483   0.491   0.499   0.500   0.511   0.519   0.523
  0.526   0.528   0.532   0.543   0.545   0.549   0.561   0.561
  0.563   0.569   0.571   0.578   0.589   0.598   0.603   0.613
  0.614   0.621   0.636   0.646   0.659   0.663   0.667   0.672
  0.685   0.691   0.692   0.698   0.704   0.711   0.716   0.727
  0.732   0.734   0.745   0.752   0.759   0.772   0.776   0.783
  0.785   0.796   0.798   0.802   0.811   0.816   0.822   0.823
  0.826   0.829   0.839   0.843   0.854   0.866   0.868   0.874
  0.883   0.892   0.900   0.904   0.910   0.920   0.926   0.937
  0.942   0.947   0.971   0.975   0.986   0.995   1.010   1.020
  1.036   1.050   1.052   1.065   1.075   1.090   1.102   1.114
  1.120   1.133   1.144   1.151   1.157   1.175   1.192   1.199
  1.212   1.224   1.241   1.255   1.266   1.280   1.299   1.313
  1.320   1.325   1.335   1.349   1.367   1.377   1.389   1.400
  1.408   1.418   1.426   1.443   1.466   1.472   1.479   1.493
  1.515   1.527   1.541   1.560   1.571   1.585   1.600   1.620
  1.637   1.673   1.688   1.728   1.774   1.832   1.859   1.877
  1.885   1.899   1.923   1.926   1.945   1.952   1.971   1.972
  1.983   1.994   2.004   2.014   2.029   2.040   2.043   2.063
  2.077   2.089   2.097   2.123   2.145   2.159   2.172   2.182
  2.185   2.202   2.220   2.233   2.260   2.270   2.293   2.311
  2.325   2.341   2.355   2.370   2.372   2.406   2.419   2.440
  2.460   2.464   2.489   2.491   2.514   2.536   2.543   2.574
  2.596   2.607   2.616   2.636   2.644   2.684   2.691   2.695
  2.708   2.727   2.757   2.763   2.776   2.821   2.828   2.846
  2.860   2.894   2.904   2.924   2.947   2.957   2.973   2.988
  2.993   3.018   3.025   3.037   3.087   3.117   3.148   3.168
  3.209   3.212   3.233   3.248   3.266   3.284   3.293   3.306
  3.320   3.347   3.351   3.379   3.391   3.412   3.424   3.439
  3.463   3.470   3.475   3.488   3.491   3.514   3.524   3.532
  3.556   3.570   3.578   3.607   3.618   3.623   3.635   3.653
  3.664   3.674   3.689   3.714   3.722   3.735   3.759   3.772
  3.773   3.789   3.806   3.825   3.830   3.850   3.884   3.889
  3.906   3.914   3.944   3.985   4.010   4.066   4.099   4.135
  4.151   4.177   4.213   4.244   4.263   4.305   4.341   4.368
  4.403   4.462   4.596   4.606   4.629   4.652   4.685   4.761
  4.770   4.800   4.848   4.892   4.919   4.927   4.968   5.058
  5.087   5.100   5.171   5.214   5.291   5.327   5.361   5.366
  5.375   5.395   5.398   5.413   5.453   5.504   5.514   5.539
  5.588   5.639   5.650   5.704   5.714   5.727   5.730   5.775
  5.785   5.866   5.941   5.983   6.016   6.112   6.178   6.208
  6.267   6.277   6.311   6.331   6.354   6.379   6.431   6.474
  6.486   6.630   6.675   6.709   6.720   6.740   6.763   6.778
  6.813   6.834   6.850   6.880   6.935   6.959   6.961   7.016
  7.055   7.068   7.084   7.158   7.187   7.233   7.261   7.336
  7.353   7.375   7.387   7.435   7.455   7.490   7.552   7.632
  7.668   8.412  22.710  22.822  22.862  23.244  23.766  44.386
 44.402  44.491  44.512  44.595  44.832
 --------------------------------------------------------------
 
          Ground-State Mulliken Net Atomic Charges

     Atom                 Charge (a.u.)
  ----------------------------------------
      1 C                    -1.023108
      2 H                     0.185542
      3 H                     0.226393
      4 H                     0.250505
      5 C                     0.766616
      6 C                    -0.218034
      7 H                     0.151708
      8 H                     0.244929
      9 C                    -0.108262
     10 H                     0.241615
     11 H                     0.153304
     12 C                     0.337730
     13 O                    -0.249740
     14 O                    -0.586535
     15 H                     0.320790
     16 O                    -0.885048
     17 O                    -0.719644
     18 O                    -0.774432
     19 O                    -0.314329
  ----------------------------------------
  Sum of atomic charges =    -2.000000

 -----------------------------------------------------------------
                    Cartesian Multipole Moments
 -----------------------------------------------------------------
    Charge (ESU x 10^10)
                -9.6064
    Dipole Moment (Debye)
         X      -4.1418      Y      15.6353      Z       3.8671
       Tot      16.6305
    Quadrupole Moments (Debye-Ang)
        XX    -105.6672     XY       9.6686     YY    -100.5914
        XZ       0.3960     YZ      -3.3377     ZZ     -85.0202
    Octopole Moments (Debye-Ang^2)
       XXX    -123.8163    XXY      89.9352    XYY     -13.7227
       YYY     144.3786    XXZ      21.8622    XYZ       8.4825
       YYZ      25.4892    XZZ     -15.9423    YZZ      47.8512
       ZZZ      20.8701
    Hexadecapole Moments (Debye-Ang^3)
      XXXX   -1752.8304   XXXY     111.2048   XXYY    -454.6688
      XYYY     -27.2869   YYYY    -789.3580   XXXZ     -38.8001
      XXYZ     -27.0276   XYYZ     -54.6690   YYYZ     -56.5046
      XXZZ    -335.1890   XYZZ      -6.0138   YYZZ    -206.6134
      XZZZ    -101.9226   YZZZ     -32.4556   ZZZZ    -366.7392
 -----------------------------------------------------------------
 Calculating analytic gradient of the SCF energy
 Gradient of SCF Energy
            1           2           3           4           5           6
    1  -0.1102920   0.0036458   0.0062115   0.0565082   0.0832987  -0.0207512
    2   0.0551544  -0.0784163  -0.0068568   0.0523369  -0.0558191  -0.0032219
    3  -0.0424703  -0.0348810   0.0861480  -0.0379338   0.0219800   0.0876426
            7           8           9          10          11          12
    1   0.0169559   0.0034008   0.0415304  -0.0439491  -0.0112052   0.0362150
    2   0.0289397  -0.0492053   0.0543115  -0.0157351  -0.0232894  -0.0539730
    3  -0.0693377  -0.0095777  -0.0554339  -0.0366677   0.0632267   0.0318952
           13          14          15          16          17          18
    1  -0.0055208   0.0417003  -0.0723064  -0.0041815  -0.0413511   0.0203170
    2  -0.0330629  -0.0224099   0.0326983   0.0303970   0.0361096   0.0216556
    3  -0.0284270   0.0128969  -0.0175760   0.0205150   0.0382507  -0.0419483
           19
    1  -0.0002264
    2   0.0303865
    3   0.0116981
 Max gradient component =       1.103E-01
 RMS gradient           =       4.354E-02
 Computing fast CPCM-ISWIG gradient
 Updating gradient with PCM contributions...
 -- total gradient after adding PCM contribution --
---------------------------------------------------
  Atom         X              Y              Z     
---------------------------------------------------
   1       0.000958       0.000095      -0.000021
   2      -0.000089       0.000012      -0.000007
   3      -0.000111      -0.000011      -0.000097
   4      -0.000350      -0.000199       0.000162
   5      -0.000323      -0.000006      -0.000107
   6      -0.000048      -0.000014      -0.000011
   7       0.000008      -0.000008      -0.000014
   8      -0.000015       0.000002       0.000024
   9       0.000010       0.000020       0.000025
  10       0.000015      -0.000001      -0.000015
  11      -0.000011      -0.000010      -0.000003
  12      -0.000016      -0.000007       0.000014
  13      -0.000077       0.000016       0.000028
  14      -0.000033       0.000001       0.000011
  15       0.000005      -0.000002      -0.000004
  16       0.000004       0.000083       0.000019
  17       0.000008      -0.000003       0.000002
  18      -0.000005      -0.000006      -0.000007
  19       0.000071       0.000037      -0.000001
---------------------------------------------------
 Number of fixed atoms: 0
 Gradient time:  CPU 1232.69 s  wall 87.39 s
 ----------------------------------------------------------------
             Standard Nuclear Orientation (Angstroms)
    I     Atom           X                Y                Z
 ----------------------------------------------------------------
    1      C      -2.6998028888    -0.2670301482    -0.6445361871
    2      H      -2.7168413314     0.7316406188    -0.2023403780
    3      H      -2.9045773228    -0.1928913652    -1.7153722006
    4      H      -3.4791206402    -0.8759225570    -0.1782584241
    5      C      -1.3499866765    -0.9582737116    -0.4411735824
    6      C       0.7310962069     1.3687738479     0.5320681103
    7      H       0.3804278044     0.9018828608     1.4566227684
    8      H       0.7920408396     2.4516248371     0.6852387825
    9      C       2.0899000627     0.8146746958     0.1427549473
   10      H       2.8316072056     1.2555389504     0.8223615485
   11      H       2.3560155733     1.1310406242    -0.8696306205
   12      C       2.2605000739    -0.7070385298     0.2648178294
   13      O      -0.2691382764    -0.0738413525    -1.0257208040
   14      O      -1.1133580734    -0.9854668546     0.9716954969
   15      H      -0.1602969329    -1.1913048827     1.0807543356
   16      O      -1.1881231628    -2.0984283330    -1.0480191441
   17      O       3.0436669913    -1.2575657260    -0.5463199577
   18      O       1.6551748963    -1.2975408237     1.2059780147
   19      O      -0.2616659210     1.2532890317    -0.4915404641
 ----------------------------------------------------------------
 Nuclear Repulsion Energy =   685.3366226515 hartrees
 There are       44 alpha and       44 beta electrons
 Discretize the solute cavity surface with Lebedev spheres
	Using 110 Lebedev grid points for each H atom
	Using 110 Lebedev grid points for other atoms
	Atomic van der Waals radii will be scaled by 1.20
 Remove points where switching function is < 1.0e-08
 Keep 1074 surface tesserae and discard 1016 interior tesserae
 Molecular Surface Area = 188.275 Angst**2
 Requested basis set is def2-TZVPD
 There are 189 shells and 497 basis functions
 A cutoff of  1.0D-14 yielded  16620 shell pairs
 There are    116410 function pairs (    149041 Cartesian)
 Smallest overlap matrix eigenvalue = 4.72E-06
 Guess MOs from SCF MO coefficient file
 Reading MOs from coefficient file
 Reading MOs from coefficient file
 Long-range K will be added via erf
 Coulomb attenuation parameter = 0.3 bohr**(-1)
 A restricted hybrid HF-DFT SCF calculation will be
 performed using Pulay DIIS extrapolation
 Polarizable Continuum solvation model will be applied
 Exchange:     0.1670 Hartree-Fock + 1.0000 wB97X-V + LR-HF
 Correlation:  1.0000 wB97X-V
 Using SG-2 standard quadrature grid
 Nonlocal Correlation:  VV10 with C = 0.0100 and b = 6.00
 Grid used for NLC:  SG-1 standard quadrature
 SCF converges when DIIS error is below 1.0E-08
Using Q-Chem read-in guess as SCF_GUESS READ specified.

 using 16 threads for integral computing
 -------------------------------------------------------
 OpenMP Integral computing Module                
 Release: version 1.0, May 2013, Q-Chem Inc. Pittsburgh 
 -------------------------------------------------------
 using 16 threads for integral computing
 -------------------------------------------------------
 OpenMP Integral computing Module                
 Release: version 1.0, May 2013, Q-Chem Inc. Pittsburgh 
 -------------------------------------------------------
 -------------------------------------------------------
 OpenMP BLAS3 based DFT computing Module                
 Release: version 1.0, May 2013, Q-Chem Inc. Pittsburgh 
 -------------------------------------------------------
 -------------------------------------------------------
 OpenMP BLAS3 based DFT computing Module                
 Release: version 1.0, May 2013, Q-Chem Inc. Pittsburgh 
 -------------------------------------------------------
 -------------------------------------------------------
 OpenMP BLAS3 based DFT computing Module                
 Release: version 1.0, May 2013, Q-Chem Inc. Pittsburgh 
 -------------------------------------------------------
 ---------------------------------------
  Cycle       Energy         DIIS Error
 ---------------------------------------
    1    -646.6320431545      5.25E-04
    2    -646.9511599796      5.98E-04
    3    -646.9655869098      2.63E-04
    4    -646.9678227707      1.92E-04
    5    -646.9691772112      1.45E-04
    6    -646.9699223806      1.14E-04
    7    -646.9705103219      8.14E-05
    8    -646.9708494849      5.44E-05
    9    -646.9710642178      2.55E-05
   10    -646.9711154522      9.79E-06
   11    -646.9711238149      2.16E-06
   12    -646.9711242190      4.63E-07
   13    -646.9711242372      8.84E-08
   14    -646.9711242379      1.26E-08
   15    -646.9711242379      4.36E-09 Convergence criterion met
 ---------------------------------------

************** Final PCM Free Energy Summary **************
 G_electrostatic  =      -0.33934606 hartree =    -212.94286439 kcal/mol
 G_cavitation     =       0.00000000 hartree =       0.00000000 kcal/mol
 G_dispersion     =       0.00000000 hartree =       0.00000000 kcal/mol
 G_repulsion      =       0.00000000 hartree =       0.00000000 kcal/mol
 --------------------------------------------------
 Non-electrostatic Free Energy =       0.00000000 hartree =       0.00000000 kcal/mol
 Total                         =      -0.33934606 hartree =    -212.94286439 kcal/mol
 --------------------------------------------------
 SCF Energy (H0 + V/2)                       =    -646.97112424 
 Solute Internal Energy (H0)                 =    -646.63177818 
 Total Free Energy (H0 + V/2 + non-elec)     =    -646.97112424 hartree
                                             = -405980.50792279 kcal/mol
***********************************************************

 SCF time:  CPU 5218.96 s  wall 367.28 s
 SCF   energy in the final basis set = -646.97112424
 Total energy in the final basis set = -646.97112424
 
 --------------------------------------------------------------
 
                    Orbital Energies (a.u.)
 --------------------------------------------------------------
 
 Alpha MOs
 -- Occupied --
-19.244 -19.228 -19.172 -19.144 -19.143 -19.106 -10.367 -10.346
-10.297 -10.250 -10.232  -1.227  -1.148  -1.135  -1.055  -1.046
 -0.988  -0.868  -0.832  -0.741  -0.668  -0.618  -0.611  -0.590
 -0.574  -0.541  -0.529  -0.522  -0.517  -0.514  -0.483  -0.471
 -0.464  -0.457  -0.446  -0.428  -0.400  -0.367  -0.352  -0.344
 -0.341  -0.333  -0.320  -0.308
 -- Virtual --
  0.062   0.078   0.081   0.082   0.103   0.109   0.109   0.113
  0.115   0.132   0.142   0.147   0.149   0.155   0.159   0.160
  0.170   0.176   0.182   0.193   0.200   0.201   0.208   0.212
  0.219   0.227   0.236   0.241   0.246   0.260   0.265   0.269
  0.276   0.280   0.286   0.293   0.299   0.300   0.308   0.313
  0.314   0.319   0.323   0.328   0.334   0.345   0.348   0.352
  0.360   0.363   0.365   0.367   0.377   0.380   0.386   0.390
  0.393   0.403   0.407   0.413   0.417   0.422   0.427   0.429
  0.435   0.438   0.445   0.451   0.454   0.461   0.466   0.471
  0.480   0.483   0.490   0.499   0.500   0.511   0.518   0.523
  0.526   0.528   0.532   0.543   0.545   0.549   0.561   0.561
  0.563   0.569   0.571   0.578   0.589   0.598   0.603   0.613
  0.614   0.621   0.636   0.646   0.659   0.663   0.667   0.672
  0.684   0.691   0.692   0.698   0.704   0.711   0.716   0.727
  0.732   0.734   0.745   0.751   0.759   0.772   0.776   0.783
  0.785   0.796   0.798   0.802   0.811   0.816   0.822   0.823
  0.826   0.829   0.839   0.843   0.854   0.866   0.868   0.874
  0.883   0.892   0.900   0.904   0.910   0.920   0.926   0.937
  0.942   0.947   0.971   0.975   0.986   0.995   1.010   1.020
  1.036   1.050   1.052   1.064   1.075   1.090   1.102   1.114
  1.120   1.133   1.144   1.151   1.157   1.175   1.192   1.199
  1.212   1.224   1.241   1.255   1.266   1.280   1.299   1.313
  1.320   1.325   1.335   1.349   1.367   1.377   1.389   1.400
  1.408   1.418   1.426   1.443   1.466   1.472   1.479   1.493
  1.515   1.527   1.541   1.560   1.570   1.585   1.600   1.620
  1.637   1.673   1.688   1.728   1.774   1.832   1.859   1.877
  1.885   1.899   1.923   1.926   1.945   1.952   1.971   1.972
  1.983   1.994   2.004   2.014   2.029   2.040   2.043   2.063
  2.077   2.089   2.097   2.123   2.145   2.158   2.172   2.182
  2.185   2.202   2.220   2.233   2.260   2.270   2.293   2.311
  2.325   2.341   2.355   2.369   2.372   2.405   2.419   2.440
  2.460   2.464   2.489   2.491   2.514   2.536   2.543   2.574
  2.596   2.607   2.615   2.636   2.644   2.683   2.691   2.695
  2.708   2.727   2.757   2.763   2.776   2.821   2.828   2.846
  2.860   2.894   2.905   2.924   2.947   2.957   2.973   2.988
  2.993   3.018   3.025   3.037   3.087   3.117   3.148   3.168
  3.209   3.212   3.233   3.248   3.266   3.284   3.293   3.306
  3.320   3.348   3.351   3.379   3.391   3.412   3.424   3.439
  3.463   3.471   3.475   3.488   3.491   3.514   3.525   3.532
  3.556   3.570   3.578   3.606   3.618   3.623   3.635   3.653
  3.664   3.674   3.689   3.714   3.721   3.735   3.759   3.772
  3.773   3.789   3.806   3.824   3.829   3.850   3.884   3.888
  3.906   3.914   3.944   3.984   4.009   4.066   4.099   4.135
  4.151   4.176   4.212   4.243   4.262   4.305   4.340   4.368
  4.403   4.462   4.596   4.606   4.629   4.652   4.686   4.761
  4.771   4.800   4.848   4.892   4.918   4.927   4.968   5.058
  5.087   5.100   5.171   5.214   5.291   5.327   5.361   5.366
  5.375   5.395   5.398   5.413   5.453   5.504   5.513   5.539
  5.588   5.639   5.650   5.704   5.713   5.727   5.730   5.775
  5.785   5.866   5.941   5.983   6.016   6.111   6.178   6.208
  6.267   6.277   6.311   6.331   6.354   6.379   6.430   6.474
  6.486   6.630   6.675   6.709   6.720   6.740   6.763   6.778
  6.813   6.834   6.850   6.880   6.935   6.959   6.961   7.016
  7.054   7.068   7.084   7.158   7.187   7.233   7.261   7.336
  7.353   7.375   7.387   7.435   7.455   7.490   7.552   7.632
  7.668   8.412  22.711  22.822  22.862  23.243  23.766  44.386
 44.402  44.491  44.512  44.595  44.832
 --------------------------------------------------------------
 
          Ground-State Mulliken Net Atomic Charges

     Atom                 Charge (a.u.)
  ----------------------------------------
      1 C                    -1.021973
      2 H                     0.185464
      3 H                     0.226291
      4 H                     0.251115
      5 C                     0.764767
      6 C                    -0.217949
      7 H                     0.151664
      8 H                     0.244923
      9 C                    -0.108268
     10 H                     0.241615
     11 H                     0.153317
     12 C                     0.337739
     13 O                    -0.249573
     14 O                    -0.586509
     15 H                     0.320827
     16 O                    -0.884954
     17 O                    -0.719637
     18 O                    -0.774415
     19 O                    -0.314445
  ----------------------------------------
  Sum of atomic charges =    -2.000000

 -----------------------------------------------------------------
                    Cartesian Multipole Moments
 -----------------------------------------------------------------
    Charge (ESU x 10^10)
                -9.6064
    Dipole Moment (Debye)
         X      -4.1389      Y      15.6335      Z       3.8676
       Tot      16.6282
    Quadrupole Moments (Debye-Ang)
        XX    -105.6786     XY       9.6761     YY    -100.5881
        XZ       0.3915     YZ      -3.3377     ZZ     -85.0184
    Octopole Moments (Debye-Ang^2)
       XXX    -123.7335    XXY      89.9076    XYY     -13.7193
       YYY     144.3722    XXZ      21.8833    XYZ       8.4824
       YYZ      25.4887    XZZ     -15.9313    YZZ      47.8500
       ZZZ      20.8674
    Hexadecapole Moments (Debye-Ang^3)
      XXXX   -1753.3526   XXXY     111.3033   XXYY    -454.6998
      XYYY     -27.2676   YYYY    -789.3413   XXXZ     -38.9091
      XXYZ     -27.0262   XYYZ     -54.6744   YYYZ     -56.5028
      XXZZ    -335.2553   XYZZ      -6.0107   YYZZ    -206.6096
      XZZZ    -101.9452   YZZZ     -32.4555   ZZZZ    -366.7265
 -----------------------------------------------------------------
 Calculating analytic gradient of the SCF energy
 Gradient of SCF Energy
            1           2           3           4           5           6
    1  -0.1115334   0.0036096   0.0062544   0.0571580   0.0837387  -0.0207549
    2   0.0548242  -0.0784223  -0.0068359   0.0528777  -0.0560064  -0.0032315
    3  -0.0423016  -0.0348834   0.0863614  -0.0383088   0.0219959   0.0876620
            7           8           9          10          11          12
    1   0.0169487   0.0034058   0.0415353  -0.0439459  -0.0112052   0.0362096
    2   0.0289387  -0.0492010   0.0543316  -0.0157371  -0.0232886  -0.0539831
    3  -0.0693385  -0.0095814  -0.0554346  -0.0366675   0.0632285   0.0318845
           13          14          15          16          17          18
    1  -0.0054196   0.0417326  -0.0723070  -0.0041560  -0.0413486   0.0203244
    2  -0.0330462  -0.0224150   0.0326963   0.0303337   0.0361077   0.0216571
    3  -0.0284444   0.0129364  -0.0175548   0.0204534   0.0382503  -0.0419430
           19
    1  -0.0002468
    2   0.0304001
    3   0.0116855
 Max gradient component =       1.115E-01
 RMS gradient           =       4.364E-02
 Computing fast CPCM-ISWIG gradient
 Updating gradient with PCM contributions...
 -- total gradient after adding PCM contribution --
---------------------------------------------------
  Atom         X              Y              Z     
---------------------------------------------------
   1      -0.000916      -0.000048       0.000016
   2       0.000091      -0.000008      -0.000011
   3       0.000095      -0.000024       0.000093
   4       0.000337       0.000210      -0.000150
   5       0.000294      -0.000168      -0.000021
   6      -0.000049      -0.000014      -0.000014
   7       0.000008      -0.000008      -0.000013
   8      -0.000014       0.000003       0.000025
   9       0.000011       0.000020       0.000026
  10       0.000015      -0.000000      -0.000015
  11      -0.000011      -0.000010      -0.000003
  12      -0.000017      -0.000005       0.000014
  13       0.000056       0.000024       0.000009
  14       0.000007      -0.000026       0.000048
  15       0.000001      -0.000003      -0.000003
  16       0.000008       0.000033       0.000003
  17       0.000008      -0.000004       0.000002
  18      -0.000005      -0.000007      -0.000007
  19       0.000082       0.000036       0.000001
---------------------------------------------------
 Number of fixed atoms: 0
 Gradient time:  CPU 1230.05 s  wall 87.41 s
 ----------------------------------------------------------------
             Standard Nuclear Orientation (Angstroms)
    I     Atom           X                Y                Z
 ----------------------------------------------------------------
    1      C      -2.6988028888    -0.2660301482    -0.6445361871
    2      H      -2.7168413314     0.7316406188    -0.2023403780
    3      H      -2.9045773228    -0.1928913652    -1.7153722006
    4      H      -3.4791206402    -0.8759225570    -0.1782584241
    5      C      -1.3499866765    -0.9582737116    -0.4411735824
    6      C       0.7310962069     1.3687738479     0.5320681103
    7      H       0.3804278044     0.9018828608     1.4566227684
    8      H       0.7920408396     2.4516248371     0.6852387825
    9      C       2.0899000627     0.8146746958     0.1427549473
   10      H       2.8316072056     1.2555389504     0.8223615485
   11      H       2.3560155733     1.1310406242    -0.8696306205
   12      C       2.2605000739    -0.7070385298     0.2648178294
   13      O      -0.2691382764    -0.0738413525    -1.0257208040
   14      O      -1.1133580734    -0.9854668546     0.9716954969
   15      H      -0.1602969329    -1.1913048827     1.0807543356
   16      O      -1.1881231628    -2.0984283330    -1.0480191441
   17      O       3.0436669913    -1.2575657260    -0.5463199577
   18      O       1.6551748963    -1.2975408237     1.2059780147
   19      O      -0.2616659210     1.2532890317    -0.4915404641
 ----------------------------------------------------------------
 Nuclear Repulsion Energy =   685.3538315921 hartrees
 There are       44 alpha and       44 beta electrons
 Discretize the solute cavity surface with Lebedev spheres
	Using 110 Lebedev grid points for each H atom
	Using 110 Lebedev grid points for other atoms
	Atomic van der Waals radii will be scaled by 1.20
 Remove points where switching function is < 1.0e-08
 Keep 1074 surface tesserae and discard 1016 interior tesserae
 Molecular Surface Area = 188.266 Angst**2
 Requested basis set is def2-TZVPD
 There are 189 shells and 497 basis functions
 A cutoff of  1.0D-14 yielded  16620 shell pairs
 There are    116410 function pairs (    149041 Cartesian)
 Smallest overlap matrix eigenvalue = 4.72E-06
 Guess MOs from SCF MO coefficient file
 Reading MOs from coefficient file
 Reading MOs from coefficient file
 Long-range K will be added via erf
 Coulomb attenuation parameter = 0.3 bohr**(-1)
 A restricted hybrid HF-DFT SCF calculation will be
 performed using Pulay DIIS extrapolation
 Polarizable Continuum solvation model will be applied
 Exchange:     0.1670 Hartree-Fock + 1.0000 wB97X-V + LR-HF
 Correlation:  1.0000 wB97X-V
 Using SG-2 standard quadrature grid
 Nonlocal Correlation:  VV10 with C = 0.0100 and b = 6.00
 Grid used for NLC:  SG-1 standard quadrature
 SCF converges when DIIS error is below 1.0E-08
Using Q-Chem read-in guess as SCF_GUESS READ specified.

 using 16 threads for integral computing
 -------------------------------------------------------
 OpenMP Integral computing Module                
 Release: version 1.0, May 2013, Q-Chem Inc. Pittsburgh 
 -------------------------------------------------------
 using 16 threads for integral computing
 -------------------------------------------------------
 OpenMP Integral computing Module                
 Release: version 1.0, May 2013, Q-Chem Inc. Pittsburgh 
 -------------------------------------------------------
 -------------------------------------------------------
 OpenMP BLAS3 based DFT computing Module                
 Release: version 1.0, May 2013, Q-Chem Inc. Pittsburgh 
 -------------------------------------------------------
 -------------------------------------------------------
 OpenMP BLAS3 based DFT computing Module                
 Release: version 1.0, May 2013, Q-Chem Inc. Pittsburgh 
 -------------------------------------------------------
 -------------------------------------------------------
 OpenMP BLAS3 based DFT computing Module                
 Release: version 1.0, May 2013, Q-Chem Inc. Pittsburgh 
 -------------------------------------------------------
 ---------------------------------------
  Cycle       Energy         DIIS Error
 ---------------------------------------
    1    -646.6318538832      5.25E-04
    2    -646.9511725879      5.98E-04
    3    -646.9655900692      2.63E-04
    4    -646.9678234748      1.92E-04
    5    -646.9691734993      1.46E-04
    6    -646.9699026202      1.15E-04
    7    -646.9704439849      8.57E-05
    8    -646.9707621574      6.25E-05
    9    -646.9710027676      3.62E-05
   10    -646.9710911638      1.89E-05
   11    -646.9711202745      6.39E-06
   12    -646.9711237724      1.64E-06
   13    -646.9711240073      3.27E-07
   14    -646.9711240167      5.24E-08
   15    -646.9711240169      1.72E-08
   16    -646.9711240169      3.39E-09 Convergence criterion met
 ---------------------------------------

************** Final PCM Free Energy Summary **************
 G_electrostatic  =      -0.33934575 hartree =    -212.94267382 kcal/mol
 G_cavitation     =       0.00000000 hartree =       0.00000000 kcal/mol
 G_dispersion     =       0.00000000 hartree =       0.00000000 kcal/mol
 G_repulsion      =       0.00000000 hartree =       0.00000000 kcal/mol
 --------------------------------------------------
 Non-electrostatic Free Energy =       0.00000000 hartree =       0.00000000 kcal/mol
 Total                         =      -0.33934575 hartree =    -212.94267382 kcal/mol
 --------------------------------------------------
 SCF Energy (H0 + V/2)                       =    -646.97112402 
 Solute Internal Energy (H0)                 =    -646.63177826 
 Total Free Energy (H0 + V/2 + non-elec)     =    -646.97112402 hartree
                                             = -405980.50778413 kcal/mol
***********************************************************

 SCF time:  CPU 5557.60 s  wall 391.48 s
 SCF   energy in the final basis set = -646.97112402
 Total energy in the final basis set = -646.97112402
 
 --------------------------------------------------------------
 
                    Orbital Energies (a.u.)
 --------------------------------------------------------------
 
 Alpha MOs
 -- Occupied --
-19.244 -19.227 -19.172 -19.144 -19.143 -19.106 -10.367 -10.346
-10.297 -10.250 -10.232  -1.227  -1.148  -1.135  -1.055  -1.046
 -0.988  -0.868  -0.832  -0.741  -0.668  -0.618  -0.611  -0.590
 -0.574  -0.541  -0.529  -0.522  -0.517  -0.514  -0.482  -0.471
 -0.464  -0.457  -0.446  -0.428  -0.400  -0.367  -0.352  -0.344
 -0.341  -0.333  -0.320  -0.309
 -- Virtual --
  0.062   0.078   0.081   0.082   0.103   0.109   0.109   0.113
  0.115   0.132   0.142   0.147   0.149   0.155   0.159   0.160
  0.170   0.176   0.182   0.193   0.200   0.201   0.208   0.212
  0.219   0.227   0.236   0.241   0.246   0.260   0.265   0.269
  0.276   0.280   0.286   0.293   0.299   0.300   0.308   0.313
  0.314   0.319   0.323   0.328   0.334   0.345   0.348   0.352
  0.360   0.363   0.365   0.367   0.377   0.380   0.386   0.390
  0.393   0.403   0.407   0.413   0.417   0.422   0.427   0.429
  0.435   0.438   0.445   0.451   0.454   0.461   0.466   0.471
  0.480   0.483   0.490   0.499   0.500   0.511   0.518   0.523
  0.526   0.528   0.532   0.543   0.545   0.549   0.561   0.561
  0.563   0.569   0.571   0.578   0.589   0.598   0.603   0.613
  0.614   0.621   0.636   0.646   0.659   0.663   0.667   0.672
  0.685   0.691   0.692   0.698   0.704   0.711   0.716   0.727
  0.732   0.734   0.745   0.752   0.759   0.772   0.776   0.783
  0.785   0.796   0.798   0.802   0.811   0.816   0.822   0.823
  0.826   0.829   0.839   0.843   0.854   0.866   0.868   0.874
  0.883   0.892   0.900   0.904   0.910   0.920   0.926   0.937
  0.942   0.947   0.971   0.975   0.986   0.995   1.010   1.020
  1.036   1.050   1.052   1.064   1.075   1.090   1.102   1.114
  1.120   1.133   1.144   1.151   1.157   1.175   1.192   1.199
  1.212   1.224   1.241   1.255   1.266   1.280   1.300   1.313
  1.320   1.325   1.335   1.349   1.367   1.377   1.389   1.400
  1.408   1.418   1.426   1.443   1.466   1.472   1.479   1.493
  1.515   1.527   1.541   1.560   1.570   1.585   1.600   1.620
  1.637   1.673   1.688   1.728   1.774   1.832   1.859   1.877
  1.885   1.899   1.923   1.926   1.945   1.952   1.971   1.972
  1.982   1.994   2.004   2.014   2.029   2.040   2.043   2.063
  2.077   2.089   2.097   2.123   2.145   2.158   2.172   2.182
  2.185   2.202   2.220   2.233   2.260   2.270   2.293   2.311
  2.325   2.341   2.355   2.369   2.372   2.406   2.419   2.440
  2.460   2.464   2.489   2.491   2.514   2.536   2.543   2.574
  2.596   2.607   2.615   2.636   2.644   2.684   2.691   2.695
  2.708   2.727   2.757   2.763   2.776   2.821   2.828   2.846
  2.860   2.894   2.904   2.924   2.947   2.957   2.973   2.988
  2.993   3.018   3.025   3.037   3.087   3.117   3.148   3.168
  3.209   3.212   3.233   3.248   3.266   3.284   3.293   3.306
  3.320   3.347   3.350   3.380   3.391   3.412   3.424   3.439
  3.463   3.471   3.475   3.488   3.492   3.514   3.525   3.532
  3.556   3.570   3.578   3.607   3.618   3.623   3.635   3.653
  3.664   3.674   3.689   3.714   3.722   3.735   3.759   3.772
  3.773   3.789   3.806   3.824   3.829   3.850   3.884   3.888
  3.906   3.914   3.944   3.984   4.010   4.066   4.099   4.135
  4.151   4.176   4.212   4.243   4.262   4.305   4.340   4.368
  4.403   4.462   4.596   4.606   4.628   4.653   4.686   4.761
  4.770   4.800   4.848   4.892   4.918   4.927   4.968   5.058
  5.087   5.100   5.171   5.214   5.291   5.327   5.361   5.366
  5.375   5.395   5.398   5.413   5.453   5.504   5.514   5.539
  5.588   5.639   5.650   5.704   5.713   5.727   5.730   5.775
  5.785   5.866   5.941   5.983   6.016   6.111   6.178   6.208
  6.267   6.277   6.311   6.331   6.354   6.379   6.431   6.474
  6.486   6.630   6.675   6.709   6.720   6.740   6.763   6.778
  6.813   6.834   6.850   6.880   6.935   6.959   6.961   7.016
  7.055   7.068   7.084   7.158   7.187   7.233   7.261   7.336
  7.353   7.375   7.387   7.435   7.455   7.490   7.552   7.632
  7.668   8.412  22.711  22.822  22.862  23.243  23.766  44.386
 44.402  44.491  44.512  44.595  44.832
 --------------------------------------------------------------
 
          Ground-State Mulliken Net Atomic Charges

     Atom                 Charge (a.u.)
  ----------------------------------------
      1 C                    -1.022191
      2 H                     0.186053
      3 H                     0.226312
      4 H                     0.250487
      5 C                     0.765137
      6 C                    -0.218026
      7 H                     0.151701
      8 H                     0.244914
      9 C                    -0.108277
     10 H                     0.241614
     11 H                     0.153308
     12 C                     0.337733
     13 O                    -0.249675
     14 O                    -0.586545
     15 H                     0.320831
     16 O                    -0.884927
     17 O                    -0.719644
     18 O                    -0.774433
     19 O                    -0.314372
  ----------------------------------------
  Sum of atomic charges =    -2.000000

 -----------------------------------------------------------------
                    Cartesian Multipole Moments
 -----------------------------------------------------------------
    Charge (ESU x 10^10)
                -9.6064
    Dipole Moment (Debye)
         X      -4.1394      Y      15.6342      Z       3.8674
       Tot      16.6289
    Quadrupole Moments (Debye-Ang)
        XX    -105.6797     XY       9.6702     YY    -100.5866
        XZ       0.3932     YZ      -3.3354     ZZ     -85.0192
    Octopole Moments (Debye-Ang^2)
       XXX    -123.7422    XXY      89.9252    XYY     -13.7243
       YYY     144.3551    XXZ      21.8751    XYZ       8.4783
       YYZ      25.4855    XZZ     -15.9365    YZZ      47.8428
       ZZZ      20.8682
    Hexadecapole Moments (Debye-Ang^3)
      XXXX   -1753.2603   XXXY     111.2563   XXYY    -454.6772
      XYYY     -27.2421   YYYY    -789.3094   XXXZ     -38.8642
      XXYZ     -27.0122   XYYZ     -54.6689   YYYZ     -56.4845
      XXZZ    -335.2265   XYZZ      -5.9949   YYZZ    -206.6037
      XZZZ    -101.9337   YZZZ     -32.4376   ZZZZ    -366.7318
 -----------------------------------------------------------------
 Calculating analytic gradient of the SCF energy
 Gradient of SCF Energy
            1           2           3           4           5           6
    1  -0.1107470   0.0036726   0.0062103   0.0565431   0.0836035  -0.0207557
    2   0.0557858  -0.0789944  -0.0068536   0.0523993  -0.0558572  -0.0032330
    3  -0.0423539  -0.0351284   0.0863078  -0.0379750   0.0220030   0.0876490
            7           8           9          10          11          12
    1   0.0169548   0.0034011   0.0415305  -0.0439469  -0.0112046   0.0362110
    2   0.0289408  -0.0492043   0.0543245  -0.0157358  -0.0232899  -0.0539764
    3  -0.0693380  -0.0095789  -0.0554349  -0.0366673   0.0632271   0.0318896
           13          14          15          16          17          18
    1  -0.0054877   0.0417298  -0.0723103  -0.0041451  -0.0413500   0.0203210
    2  -0.0330564  -0.0224373   0.0326925   0.0303321   0.0361089   0.0216563
    3  -0.0284601   0.0129254  -0.0175558   0.0204875   0.0382499  -0.0419463
           19
    1  -0.0002305
    2   0.0303980
    3   0.0116993
 Max gradient component =       1.107E-01
 RMS gradient           =       4.361E-02
 Computing fast CPCM-ISWIG gradient
 Updating gradient with PCM contributions...
 -- total gradient after adding PCM contribution --
---------------------------------------------------
  Atom         X              Y              Z     
---------------------------------------------------
   1       0.000092       0.001105       0.000017
   2       0.000003      -0.000516      -0.000201
   3      -0.000001      -0.000109       0.000033
   4      -0.000206      -0.000242       0.000129
   5       0.000068      -0.000259      -0.000045
   6      -0.000047      -0.000014      -0.000011
   7       0.000007      -0.000008      -0.000014
   8      -0.000015       0.000002       0.000025
   9       0.000010       0.000020       0.000025
  10       0.000015      -0.000001      -0.000015
  11      -0.000011      -0.000010      -0.000003
  12      -0.000017      -0.000007       0.000014
  13      -0.000061       0.000025       0.000027
  14       0.000001      -0.000007       0.000036
  15       0.000002      -0.000001      -0.000003
  16       0.000077      -0.000010      -0.000008
  17       0.000008      -0.000003       0.000002
  18      -0.000004      -0.000006      -0.000007
  19       0.000078       0.000040      -0.000001
---------------------------------------------------
 Number of fixed atoms: 0
 Gradient time:  CPU 1222.87 s  wall 87.03 s
 ----------------------------------------------------------------
             Standard Nuclear Orientation (Angstroms)
    I     Atom           X                Y                Z
 ----------------------------------------------------------------
    1      C      -2.6988028888    -0.2680301482    -0.6445361871
    2      H      -2.7168413314     0.7316406188    -0.2023403780
    3      H      -2.9045773228    -0.1928913652    -1.7153722006
    4      H      -3.4791206402    -0.8759225570    -0.1782584241
    5      C      -1.3499866765    -0.9582737116    -0.4411735824
    6      C       0.7310962069     1.3687738479     0.5320681103
    7      H       0.3804278044     0.9018828608     1.4566227684
    8      H       0.7920408396     2.4516248371     0.6852387825
    9      C       2.0899000627     0.8146746958     0.1427549473
   10      H       2.8316072056     1.2555389504     0.8223615485
   11      H       2.3560155733     1.1310406242    -0.8696306205
   12      C       2.2605000739    -0.7070385298     0.2648178294
   13      O      -0.2691382764    -0.0738413525    -1.0257208040
   14      O      -1.1133580734    -0.9854668546     0.9716954969
   15      H      -0.1602969329    -1.1913048827     1.0807543356
   16      O      -1.1881231628    -2.0984283330    -1.0480191441
   17      O       3.0436669913    -1.2575657260    -0.5463199577
   18      O       1.6551748963    -1.2975408237     1.2059780147
   19      O      -0.2616659210     1.2532890317    -0.4915404641
 ----------------------------------------------------------------
 Nuclear Repulsion Energy =   685.3636997410 hartrees
 There are       44 alpha and       44 beta electrons
 Discretize the solute cavity surface with Lebedev spheres
	Using 110 Lebedev grid points for each H atom
	Using 110 Lebedev grid points for other atoms
	Atomic van der Waals radii will be scaled by 1.20
 Remove points where switching function is < 1.0e-08
 Keep 1073 surface tesserae and discard 1017 interior tesserae
 Molecular Surface Area = 188.266 Angst**2
 Requested basis set is def2-TZVPD
 There are 189 shells and 497 basis functions
 A cutoff of  1.0D-14 yielded  16620 shell pairs
 There are    116410 function pairs (    149041 Cartesian)
 Smallest overlap matrix eigenvalue = 4.72E-06
 Guess MOs from SCF MO coefficient file
 Reading MOs from coefficient file
 Reading MOs from coefficient file
 Long-range K will be added via erf
 Coulomb attenuation parameter = 0.3 bohr**(-1)
 A restricted hybrid HF-DFT SCF calculation will be
 performed using Pulay DIIS extrapolation
 Polarizable Continuum solvation model will be applied
 Exchange:     0.1670 Hartree-Fock + 1.0000 wB97X-V + LR-HF
 Correlation:  1.0000 wB97X-V
 Using SG-2 standard quadrature grid
 Nonlocal Correlation:  VV10 with C = 0.0100 and b = 6.00
 Grid used for NLC:  SG-1 standard quadrature
 SCF converges when DIIS error is below 1.0E-08
Using Q-Chem read-in guess as SCF_GUESS READ specified.

 using 16 threads for integral computing
 -------------------------------------------------------
 OpenMP Integral computing Module                
 Release: version 1.0, May 2013, Q-Chem Inc. Pittsburgh 
 -------------------------------------------------------
 using 16 threads for integral computing
 -------------------------------------------------------
 OpenMP Integral computing Module                
 Release: version 1.0, May 2013, Q-Chem Inc. Pittsburgh 
 -------------------------------------------------------
 -------------------------------------------------------
 OpenMP BLAS3 based DFT computing Module                
 Release: version 1.0, May 2013, Q-Chem Inc. Pittsburgh 
 -------------------------------------------------------
 -------------------------------------------------------
 OpenMP BLAS3 based DFT computing Module                
 Release: version 1.0, May 2013, Q-Chem Inc. Pittsburgh 
 -------------------------------------------------------
 -------------------------------------------------------
 OpenMP BLAS3 based DFT computing Module                
 Release: version 1.0, May 2013, Q-Chem Inc. Pittsburgh 
 -------------------------------------------------------
 ---------------------------------------
  Cycle       Energy         DIIS Error
 ---------------------------------------
    1    -646.6313488274      5.25E-04
    2    -646.9511682236      5.98E-04
    3    -646.9655876079      2.63E-04
    4    -646.9678225396      1.92E-04
    5    -646.9691802257      1.45E-04
    6    -646.9699202854      1.14E-04
    7    -646.9704949042      8.24E-05
    8    -646.9708330460      5.60E-05
    9    -646.9710559637      2.72E-05
   10    -646.9711128908      1.11E-05
   11    -646.9711234383      2.72E-06
   12    -646.9711240826      5.73E-07
   13    -646.9711241111      9.37E-08
   14    -646.9711241118      1.42E-08
   15    -646.9711241119      4.34E-09 Convergence criterion met
 ---------------------------------------

************** Final PCM Free Energy Summary **************
 G_electrostatic  =      -0.33936592 hartree =    -212.95533033 kcal/mol
 G_cavitation     =       0.00000000 hartree =       0.00000000 kcal/mol
 G_dispersion     =       0.00000000 hartree =       0.00000000 kcal/mol
 G_repulsion      =       0.00000000 hartree =       0.00000000 kcal/mol
 --------------------------------------------------
 Non-electrostatic Free Energy =       0.00000000 hartree =       0.00000000 kcal/mol
 Total                         =      -0.33936592 hartree =    -212.95533033 kcal/mol
 --------------------------------------------------
 SCF Energy (H0 + V/2)                       =    -646.97112411 
 Solute Internal Energy (H0)                 =    -646.63175819 
 Total Free Energy (H0 + V/2 + non-elec)     =    -646.97112411 hartree
                                             = -405980.50784371 kcal/mol
***********************************************************

 SCF time:  CPU 5281.55 s  wall 370.54 s
 SCF   energy in the final basis set = -646.97112411
 Total energy in the final basis set = -646.97112411
 
 --------------------------------------------------------------
 
                    Orbital Energies (a.u.)
 --------------------------------------------------------------
 
 Alpha MOs
 -- Occupied --
-19.244 -19.228 -19.172 -19.144 -19.143 -19.106 -10.367 -10.346
-10.297 -10.250 -10.232  -1.227  -1.148  -1.135  -1.055  -1.046
 -0.988  -0.868  -0.832  -0.741  -0.668  -0.618  -0.611  -0.590
 -0.574  -0.541  -0.529  -0.522  -0.517  -0.514  -0.483  -0.471
 -0.464  -0.457  -0.446  -0.428  -0.400  -0.367  -0.352  -0.344
 -0.341  -0.333  -0.320  -0.308
 -- Virtual --
  0.062   0.078   0.081   0.082   0.103   0.109   0.109   0.113
  0.115   0.132   0.142   0.147   0.149   0.155   0.159   0.160
  0.170   0.176   0.182   0.193   0.200   0.201   0.208   0.212
  0.219   0.227   0.236   0.241   0.246   0.260   0.265   0.269
  0.276   0.280   0.286   0.293   0.299   0.300   0.308   0.313
  0.314   0.319   0.323   0.328   0.334   0.345   0.348   0.352
  0.360   0.363   0.365   0.367   0.377   0.380   0.386   0.390
  0.393   0.403   0.407   0.413   0.417   0.422   0.427   0.429
  0.435   0.438   0.445   0.451   0.454   0.461   0.466   0.471
  0.480   0.483   0.491   0.499   0.500   0.511   0.518   0.523
  0.526   0.528   0.532   0.543   0.545   0.549   0.561   0.561
  0.563   0.569   0.571   0.578   0.589   0.598   0.603   0.613
  0.614   0.621   0.636   0.646   0.659   0.663   0.667   0.672
  0.685   0.691   0.692   0.698   0.704   0.711   0.716   0.727
  0.732   0.734   0.745   0.751   0.759   0.772   0.776   0.784
  0.785   0.796   0.798   0.802   0.811   0.816   0.822   0.823
  0.826   0.829   0.839   0.843   0.854   0.866   0.868   0.874
  0.883   0.892   0.900   0.904   0.910   0.920   0.926   0.937
  0.942   0.947   0.971   0.975   0.986   0.995   1.010   1.020
  1.036   1.050   1.052   1.064   1.075   1.090   1.102   1.114
  1.120   1.133   1.144   1.151   1.157   1.175   1.192   1.199
  1.212   1.224   1.241   1.255   1.266   1.280   1.299   1.313
  1.320   1.325   1.335   1.349   1.367   1.377   1.389   1.400
  1.408   1.418   1.426   1.443   1.466   1.472   1.479   1.493
  1.515   1.527   1.541   1.560   1.571   1.585   1.600   1.620
  1.637   1.673   1.688   1.728   1.774   1.832   1.859   1.877
  1.885   1.899   1.923   1.926   1.945   1.952   1.971   1.972
  1.983   1.994   2.004   2.014   2.029   2.040   2.043   2.063
  2.077   2.089   2.097   2.123   2.145   2.159   2.172   2.182
  2.185   2.202   2.220   2.233   2.260   2.270   2.293   2.311
  2.325   2.341   2.355   2.370   2.372   2.406   2.419   2.440
  2.460   2.464   2.489   2.491   2.514   2.536   2.543   2.574
  2.596   2.607   2.615   2.636   2.644   2.684   2.691   2.695
  2.708   2.727   2.757   2.763   2.776   2.821   2.828   2.846
  2.860   2.894   2.904   2.924   2.947   2.957   2.972   2.988
  2.993   3.018   3.025   3.037   3.087   3.117   3.147   3.168
  3.209   3.212   3.233   3.248   3.266   3.284   3.293   3.306
  3.320   3.347   3.351   3.379   3.391   3.412   3.424   3.439
  3.463   3.471   3.475   3.488   3.491   3.514   3.524   3.532
  3.556   3.570   3.578   3.607   3.618   3.623   3.635   3.653
  3.664   3.674   3.689   3.714   3.722   3.735   3.759   3.772
  3.773   3.789   3.806   3.825   3.829   3.850   3.884   3.889
  3.906   3.914   3.944   3.985   4.010   4.066   4.099   4.135
  4.151   4.177   4.213   4.243   4.263   4.305   4.340   4.368
  4.403   4.462   4.596   4.606   4.629   4.651   4.685   4.761
  4.771   4.800   4.848   4.892   4.918   4.927   4.968   5.058
  5.087   5.100   5.171   5.214   5.291   5.327   5.361   5.366
  5.375   5.395   5.398   5.413   5.453   5.504   5.514   5.539
  5.588   5.639   5.650   5.704   5.714   5.727   5.730   5.775
  5.785   5.866   5.941   5.983   6.016   6.111   6.178   6.208
  6.267   6.277   6.311   6.331   6.354   6.379   6.431   6.474
  6.486   6.630   6.675   6.709   6.720   6.740   6.763   6.778
  6.813   6.834   6.850   6.880   6.935   6.959   6.961   7.016
  7.055   7.068   7.084   7.158   7.187   7.233   7.261   7.336
  7.353   7.375   7.387   7.435   7.455   7.490   7.552   7.632
  7.668   8.412  22.710  22.822  22.862  23.243  23.766  44.386
 44.402  44.491  44.512  44.595  44.832
 --------------------------------------------------------------
 
          Ground-State Mulliken Net Atomic Charges

     Atom                 Charge (a.u.)
  ----------------------------------------
      1 C                    -1.022895
      2 H                     0.184956
      3 H                     0.226373
      4 H                     0.251132
      5 C                     0.766248
      6 C                    -0.217957
      7 H                     0.151671
      8 H                     0.244939
      9 C                    -0.108253
     10 H                     0.241617
     11 H                     0.153313
     12 C                     0.337735
     13 O                    -0.249638
     14 O                    -0.586499
     15 H                     0.320785
     16 O                    -0.885074
     17 O                    -0.719637
     18 O                    -0.774414
     19 O                    -0.314403
  ----------------------------------------
[...]
 Red. Mass:       2.2669                 2.9260                 2.4740
 IR Active:          YES                    YES                    YES
 IR Intens:       11.249                 27.715                291.757
 Raman Active:       YES                    YES                    YES
               X      Y      Z        X      Y      Z        X      Y      Z
 C          0.072  0.085 -0.038    0.005  0.009  0.001   -0.056 -0.009 -0.154
 H         -0.297  0.016  0.084   -0.030  0.007 -0.000    0.122 -0.152  0.220
 H         -0.195 -0.116  0.005    0.000 -0.018  0.000   -0.645  0.381 -0.008
 H          0.420 -0.284  0.085    0.026 -0.021 -0.001    0.023  0.147  0.214
 C         -0.104 -0.070  0.058   -0.008 -0.009  0.001    0.172 -0.050  0.247
 C          0.036 -0.050  0.155    0.276  0.054 -0.020    0.001  0.002  0.003
 H         -0.026  0.196  0.246    0.355 -0.372 -0.215    0.020  0.007  0.014
 H          0.268 -0.023 -0.145    0.258 -0.015  0.359    0.012 -0.004  0.037
 C          0.043  0.017 -0.117   -0.186  0.026  0.137   -0.002 -0.004 -0.001
 H          0.001 -0.182  0.073   -0.244  0.308  0.007    0.004 -0.014  0.001
 H          0.036  0.462  0.021   -0.397  0.067  0.094   -0.002  0.004  0.002
 C          0.046  0.009  0.033   -0.003 -0.019 -0.007    0.008  0.009 -0.002
 O          0.009  0.043  0.015   -0.003  0.056  0.024   -0.021 -0.003 -0.009
 O          0.003  0.011  0.009    0.000  0.001 -0.001   -0.003 -0.001 -0.083
 H          0.026 -0.022 -0.190    0.006  0.035 -0.019   -0.045 -0.001  0.388
 O          0.023 -0.002 -0.017    0.001 -0.002 -0.001   -0.032  0.025 -0.024
 O         -0.017  0.016  0.000    0.016 -0.026 -0.013   -0.001 -0.001 -0.001
 O         -0.026 -0.033  0.027    0.005  0.017 -0.009    0.002 -0.002  0.000
 O         -0.075 -0.031 -0.113   -0.081 -0.092 -0.097   -0.006 -0.002 -0.009
 TransDip   0.019 -0.085  0.063    0.123  0.001  0.116    0.227 -0.024  0.497

 Mode:                31                     32                     33
 Frequency:      1218.08                1286.73                1306.45
 Force Cnst:      1.0653                 1.2080                 2.9134
 Red. Mass:       1.2186                 1.2383                 2.8971
 IR Active:          YES                    YES                    YES
 IR Intens:       22.732                  4.313                453.128
 Raman Active:       YES                    YES                    YES
               X      Y      Z        X      Y      Z        X      Y      Z
 C         -0.001 -0.000  0.000   -0.000 -0.004 -0.003   -0.025 -0.042 -0.031
 H         -0.002  0.001 -0.001    0.017 -0.009  0.009    0.231 -0.084  0.089
 H          0.000  0.001  0.000    0.006  0.007 -0.002    0.129  0.106 -0.035
 H         -0.004  0.003 -0.001    0.003  0.006  0.014    0.052  0.041  0.183
 C          0.003 -0.000 -0.001   -0.007  0.019  0.016   -0.035  0.263  0.177
 C          0.018  0.020 -0.092    0.025 -0.068 -0.018    0.004  0.013  0.001
 H         -0.345 -0.084 -0.294    0.586  0.018  0.249   -0.129  0.001 -0.057
 H          0.022 -0.003  0.071   -0.487  0.004 -0.326   -0.025  0.009  0.037
 C         -0.019 -0.003  0.006   -0.060  0.044  0.044    0.019 -0.024 -0.006
 H          0.350 -0.481 -0.086    0.240 -0.387 -0.005   -0.087  0.130  0.007
 H         -0.348  0.525  0.078   -0.127 -0.043  0.004   -0.015  0.038  0.003
 C          0.060  0.008  0.035    0.024  0.000  0.021    0.001 -0.016 -0.020
 O         -0.002 -0.001 -0.004    0.014 -0.008  0.001    0.035  0.018 -0.033
 O         -0.001  0.001  0.000   -0.002 -0.000  0.005   -0.041 -0.005  0.049
 H          0.003  0.006 -0.007    0.005 -0.008 -0.070    0.100  0.050 -0.806
 O         -0.000  0.000  0.000    0.002 -0.013 -0.008    0.021 -0.173 -0.098
 O         -0.019  0.007  0.004    0.001 -0.008 -0.007   -0.012  0.011  0.015
 O         -0.014 -0.011  0.003   -0.002  0.003 -0.006    0.008  0.001  0.004
 O          0.010 -0.012  0.050   -0.015  0.057 -0.021   -0.002 -0.016  0.009
 TransDip   0.081 -0.031 -0.126    0.007 -0.018  0.064    0.071  0.649  0.196

 Mode:                34                     35                     36
 Frequency:      1338.01                1369.54                1402.99
 Force Cnst:      1.7042                 1.3743                 1.6992
 Red. Mass:       1.6156                 1.2436                 1.4652
 IR Active:          YES                    YES                    YES
 IR Intens:       69.712                 38.570                 34.499
 Raman Active:       YES                    YES                    YES
               X      Y      Z        X      Y      Z        X      Y      Z
 C         -0.007 -0.003 -0.002   -0.120  0.057 -0.027    0.009 -0.009  0.003
 H          0.035 -0.006  0.006    0.489 -0.031  0.167   -0.032  0.004 -0.025
 H          0.034  0.007 -0.007    0.434 -0.191 -0.138   -0.015  0.033  0.010
 H          0.013 -0.006  0.022    0.356 -0.364  0.191   -0.024  0.032 -0.002
 C         -0.003  0.027  0.008   -0.030  0.019  0.008   -0.004  0.019 -0.007
 C         -0.032 -0.028 -0.005   -0.005  0.003 -0.002   -0.157  0.058 -0.042
 H         -0.063 -0.026 -0.024    0.033  0.000  0.011    0.699 -0.183  0.176
 H          0.602 -0.083  0.077   -0.005  0.001  0.013    0.480 -0.016  0.192
 C         -0.082  0.138  0.020    0.005 -0.009 -0.000    0.057 -0.065  0.024
 H          0.295 -0.398 -0.045   -0.002  0.009 -0.003    0.088  0.048 -0.080
 H          0.319 -0.460 -0.056   -0.021  0.035  0.006   -0.188  0.280  0.059
 C         -0.002  0.099  0.002   -0.000  0.002  0.003    0.011  0.018 -0.022
 O         -0.001  0.008  0.001    0.004  0.000  0.002   -0.006  0.006  0.001
 O         -0.002 -0.002  0.003    0.024 -0.006 -0.020    0.001 -0.001  0.003
 H          0.010  0.008 -0.028   -0.036 -0.012  0.408    0.000 -0.006  0.019
 O          0.001 -0.017 -0.007    0.006 -0.013 -0.004    0.000 -0.010 -0.002
 O          0.048 -0.047 -0.051    0.000 -0.000 -0.001   -0.007  0.008  0.008
 O         -0.030 -0.033  0.044   -0.000  0.001 -0.003   -0.007 -0.010  0.013
 O         -0.000 -0.024 -0.004   -0.000 -0.001 -0.001    0.018 -0.020 -0.013
 TransDip  -0.044  0.264  0.010    0.061 -0.010  0.189   -0.071  0.070 -0.160

 Mode:                37                     38                     39
 Frequency:      1438.04                1439.17                1450.05
 Force Cnst:      1.4125                 5.4417                 2.3044
 Red. Mass:       1.1593                 4.4593                 1.8601
 IR Active:          YES                    YES                    YES
 IR Intens:       19.391                355.974                316.723
 Raman Active:       YES                    YES                    YES
               X      Y      Z        X      Y      Z        X      Y      Z
 C          0.000  0.001 -0.001    0.019 -0.009  0.003    0.096 -0.045 -0.017
 H         -0.001 -0.003  0.006   -0.039 -0.006 -0.007   -0.295 -0.117  0.133
 H         -0.001 -0.004 -0.001   -0.036  0.009  0.015   -0.103  0.003  0.035
 H          0.000  0.002  0.002   -0.029  0.037 -0.017   -0.130  0.313  0.074
 C         -0.001 -0.001  0.002   -0.032  0.024 -0.003   -0.178  0.139  0.007
 C          0.003 -0.018  0.001    0.055  0.024  0.025    0.010 -0.008 -0.005
 H          0.012  0.012  0.020   -0.042 -0.142 -0.107   -0.047  0.082  0.019
 H          0.006 -0.016 -0.032   -0.499  0.087 -0.249   -0.021 -0.015  0.074
 C         -0.081 -0.013  0.024    0.004 -0.186  0.020   -0.001  0.012 -0.005
 H          0.321  0.245 -0.564   -0.033  0.335 -0.277   -0.006 -0.024  0.024
 H          0.596  0.271  0.276    0.123  0.302  0.207   -0.007 -0.014 -0.014
 C          0.003 -0.061  0.003   -0.010  0.394 -0.111   -0.006 -0.023  0.020
 O          0.001 -0.000  0.000    0.005 -0.007 -0.002    0.022  0.001 -0.003
 O          0.000 -0.000 -0.001    0.006 -0.003 -0.004    0.053 -0.017 -0.030
 H         -0.002  0.004  0.003    0.009 -0.006  0.130   -0.065 -0.021  0.808
 O          0.000  0.000 -0.000    0.005 -0.009 -0.003    0.027 -0.062 -0.022
 O         -0.018  0.016  0.017    0.095 -0.096 -0.088   -0.002  0.003  0.000
 O          0.013  0.017 -0.019   -0.096 -0.127  0.159    0.007  0.011 -0.018
 O          0.001  0.003 -0.000   -0.007  0.017  0.006   -0.005 -0.005  0.000
 TransDip   0.119 -0.075 -0.009    0.060  0.579 -0.161   -0.361  0.258  0.358

 Mode:                40                     41                     42
 Frequency:      1465.20                1474.36                1485.14
 Force Cnst:      1.3475                 1.3767                 1.4404
 Red. Mass:       1.0653                 1.0749                 1.1084
 IR Active:          YES                    YES                    YES
 IR Intens:        5.024                 14.211                  7.376
 Raman Active:       YES                    YES                    YES
               X      Y      Z        X      Y      Z        X      Y      Z
 C         -0.019 -0.040 -0.028    0.000  0.035 -0.044   -0.005  0.006 -0.004
 H         -0.371 -0.006 -0.078   -0.148 -0.268  0.631   -0.009 -0.031  0.079
 H          0.452  0.438 -0.077    0.127 -0.519 -0.095    0.027 -0.072 -0.015
 H          0.174  0.212  0.609   -0.160  0.352  0.134   -0.022  0.039  0.014
 C          0.007 -0.038 -0.023    0.038 -0.017 -0.022    0.017 -0.008 -0.010
 C          0.002  0.000  0.001   -0.006  0.007  0.009    0.020 -0.038 -0.070
 H         -0.005 -0.002 -0.002    0.012 -0.095 -0.038    0.016  0.630  0.287
 H         -0.008  0.002 -0.007    0.031  0.017 -0.092   -0.151 -0.120  0.669
 C         -0.000 -0.001 -0.000    0.002 -0.001  0.001   -0.001 -0.008  0.001
 H         -0.002  0.004 -0.001   -0.003  0.003  0.003    0.017 -0.004 -0.027
 H          0.002  0.003  0.001   -0.004 -0.003 -0.001   -0.005  0.040  0.015
 C         -0.001  0.002  0.001    0.001  0.000 -0.002   -0.005  0.030  0.000
 O         -0.003 -0.001  0.002   -0.004 -0.001  0.001   -0.002  0.003  0.003
 O         -0.003  0.003  0.002   -0.009  0.002  0.007   -0.004  0.002  0.006
 H          0.002  0.004 -0.051    0.009  0.005 -0.139   -0.001 -0.039 -0.082
 O         -0.001  0.014  0.008   -0.006  0.011  0.007   -0.003  0.004  0.003
 O          0.001 -0.001 -0.001   -0.000  0.000  0.001    0.009 -0.009 -0.009
 O         -0.000 -0.000  0.001   -0.000 -0.001  0.002   -0.006 -0.008  0.010
 O          0.000  0.002  0.000    0.002  0.002  0.001   -0.004 -0.006 -0.010
 TransDip   0.030 -0.054 -0.037    0.051 -0.103 -0.038   -0.039  0.077  0.006

 Mode:                43                     44                     45
 Frequency:      1588.15                3051.48                3058.71
 Force Cnst:     14.0932                 5.8445                 5.7077
 Red. Mass:       9.4837                 1.0653                 1.0355
 IR Active:          YES                    YES                    YES
 IR Intens:     1271.766                 18.384                 29.418
 Raman Active:       YES                    YES                    YES
               X      Y      Z        X      Y      Z        X      Y      Z
 C         -0.004  0.001 -0.003   -0.000  0.000 -0.000   -0.048  0.014 -0.006
 H          0.022  0.003 -0.003    0.000 -0.002 -0.001   -0.004 -0.478 -0.215
 H         -0.020  0.004  0.002    0.000 -0.000  0.003    0.095 -0.035  0.553
 H          0.000 -0.011 -0.012    0.002  0.002 -0.001    0.447  0.361 -0.275
 C          0.017  0.004  0.023    0.000  0.000  0.000    0.003 -0.002  0.001
 C         -0.024  0.001  0.001   -0.002  0.016  0.010    0.000 -0.001 -0.001
 H          0.054 -0.092 -0.007    0.041  0.059 -0.104   -0.002 -0.003  0.005
 H          0.052 -0.001 -0.077   -0.019 -0.250 -0.032    0.001  0.011  0.001
 C          0.053 -0.050 -0.043   -0.056 -0.038 -0.016    0.000  0.000  0.000
 H          0.029  0.047 -0.071    0.590  0.353  0.549   -0.001 -0.001 -0.001
 H         -0.075  0.449  0.102    0.081  0.098 -0.352   -0.000 -0.000  0.000
 C         -0.472  0.081  0.564   -0.001  0.001 -0.000    0.000  0.000 -0.000
 O         -0.001  0.002 -0.004    0.000 -0.000 -0.000   -0.000  0.000  0.000
 O          0.002 -0.003  0.003   -0.000 -0.000 -0.000   -0.000  0.000 -0.000
 H         -0.026  0.094 -0.172   -0.001  0.001 -0.000   -0.002  0.001 -0.002
 O         -0.002 -0.006 -0.006   -0.000 -0.000 -0.000   -0.000  0.000  0.000
 O          0.207 -0.138 -0.218    0.000 -0.000 -0.000   -0.000  0.000  0.000
 O          0.112  0.085 -0.167    0.000 -0.000 -0.000   -0.000 -0.000  0.000
 O          0.002 -0.000  0.000    0.000  0.000  0.001    0.000  0.000 -0.000
 TransDip  -0.768  0.125  0.836   -0.134 -0.015  0.028   -0.170  0.025 -0.023

 Mode:                46                     47                     48
 Frequency:      3071.66                3112.72                3123.48
 Force Cnst:      5.8894                 6.2818                 6.3372
 Red. Mass:       1.0594                 1.1004                 1.1025
 IR Active:          YES                    YES                    YES
 IR Intens:       73.019                  6.654                 62.904
 Raman Active:       YES                    YES                    YES
               X      Y      Z        X      Y      Z        X      Y      Z
 C          0.000 -0.001  0.000    0.000  0.000  0.000   -0.001 -0.001  0.000
 H          0.000  0.010  0.004    0.000 -0.001 -0.001   -0.000  0.007  0.003
 H         -0.001  0.000 -0.007   -0.000  0.000 -0.001   -0.001 -0.000 -0.003
 H         -0.003 -0.002  0.001   -0.001 -0.001  0.001    0.008  0.006 -0.005
 C          0.000  0.001 -0.000   -0.000  0.000  0.000    0.000  0.000 -0.000
 C          0.015 -0.040 -0.049   -0.014 -0.047  0.024    0.020  0.061 -0.041
 H         -0.199 -0.273  0.499    0.141  0.181 -0.353   -0.226 -0.286  0.555
 H          0.049  0.735  0.096    0.024  0.391  0.057   -0.023 -0.457 -0.066
 C         -0.017 -0.011  0.002   -0.005  0.006 -0.073    0.001  0.008 -0.052
 H          0.155  0.088  0.139    0.241  0.148  0.212    0.127  0.076  0.109
 H          0.039  0.048 -0.159   -0.179 -0.208  0.676   -0.136 -0.153  0.510
 C         -0.000  0.002 -0.000    0.000 -0.001 -0.001    0.001 -0.001 -0.002
 O         -0.000  0.001  0.000    0.000  0.000  0.000   -0.000 -0.000  0.000
 O          0.000  0.000  0.000   -0.000 -0.000 -0.000    0.000  0.000  0.000
 H         -0.002  0.001 -0.000    0.004  0.000 -0.000    0.001 -0.003  0.001
 O         -0.000 -0.000 -0.000    0.000  0.000 -0.000   -0.000 -0.000  0.000
 O          0.000 -0.000 -0.000   -0.000  0.000  0.000   -0.000  0.000  0.000
 O         -0.000 -0.000  0.000    0.000 -0.000  0.000   -0.000  0.000  0.000
 O         -0.001 -0.001 -0.001    0.000 -0.001  0.000   -0.000  0.000 -0.000
 TransDip  -0.032 -0.209 -0.173    0.014 -0.032 -0.075    0.024  0.114 -0.226

 Mode:                49                     50                     51
 Frequency:      3134.10                3145.85                3489.35
 Force Cnst:      6.3802                 6.4348                 7.6696
 Red. Mass:       1.1025                 1.1036                 1.0691
 IR Active:          YES                    YES                    YES
 IR Intens:       47.882                 47.589                888.789
 Raman Active:       YES                    YES                    YES
               X      Y      Z        X      Y      Z        X      Y      Z
 C          0.034  0.061 -0.061   -0.015 -0.060 -0.070    0.000 -0.000  0.000
 H          0.009 -0.286 -0.143   -0.008  0.722  0.315   -0.000  0.001  0.001
 H          0.111 -0.027  0.555    0.107 -0.049  0.586    0.004 -0.002  0.006
 H         -0.539 -0.420  0.319    0.081  0.056 -0.062   -0.001 -0.000  0.001
 C          0.001  0.001 -0.001   -0.000 -0.001 -0.002   -0.001  0.000 -0.004
 C          0.000  0.001 -0.001   -0.000 -0.000  0.001    0.000 -0.000 -0.000
 H         -0.004 -0.005  0.010    0.003  0.003 -0.006    0.001 -0.001  0.002
 H          0.000 -0.003 -0.000   -0.000  0.000  0.000   -0.001  0.001 -0.000
 C         -0.000  0.000 -0.001    0.000  0.000  0.000    0.000  0.000  0.000
 H          0.002  0.001  0.002   -0.001 -0.000 -0.001   -0.000  0.001 -0.001
 H         -0.001 -0.002  0.005    0.000  0.000 -0.001    0.000  0.003 -0.004
 C          0.000  0.000 -0.000    0.000 -0.000 -0.000   -0.003 -0.002  0.005
 O         -0.000 -0.000  0.000    0.000 -0.000 -0.000   -0.000 -0.000  0.001
 O          0.000 -0.000  0.000    0.000  0.000  0.000   -0.062  0.014 -0.008
 H         -0.004  0.001 -0.000   -0.004  0.002 -0.000    0.964 -0.223  0.130
 O         -0.000 -0.000  0.000    0.000  0.000  0.000   -0.000  0.001  0.001
 O         -0.000  0.000  0.000   -0.000  0.000  0.000    0.001 -0.000 -0.002
 O         -0.000 -0.000  0.000   -0.000 -0.000  0.000    0.003  0.002 -0.002
 O          0.000 -0.000 -0.000   -0.000  0.000  0.000   -0.000  0.000 -0.000
 TransDip   0.070  0.152 -0.146   -0.009 -0.143 -0.168    0.944 -0.072  0.122

 STANDARD THERMODYNAMIC QUANTITIES AT   298.15 K  AND     1.00 ATM

   This Molecule has  0 Imaginary Frequencies
   Zero point vibrational energy:       87.560 kcal/mol

   Atom    1 Element C  Has Mass   12.00000
   Atom    2 Element H  Has Mass    1.00783
   Atom    3 Element H  Has Mass    1.00783
   Atom    4 Element H  Has Mass    1.00783
   Atom    5 Element C  Has Mass   12.00000
   Atom    6 Element C  Has Mass   12.00000
   Atom    7 Element H  Has Mass    1.00783
   Atom    8 Element H  Has Mass    1.00783
   Atom    9 Element C  Has Mass   12.00000
   Atom   10 Element H  Has Mass    1.00783
   Atom   11 Element H  Has Mass    1.00783
   Atom   12 Element C  Has Mass   12.00000
   Atom   13 Element O  Has Mass   15.99491
   Atom   14 Element O  Has Mass   15.99491
   Atom   15 Element H  Has Mass    1.00783
   Atom   16 Element O  Has Mass   15.99491
   Atom   17 Element O  Has Mass   15.99491
   Atom   18 Element O  Has Mass   15.99491
   Atom   19 Element O  Has Mass   15.99491
   Molecular Mass:   164.032100 amu
   Principal axes and moments of inertia in amu*Bohr^2:
                             1           2           3
    Eigenvalues --     1022.00459  2144.36297  2536.51421
          X               0.98380    -0.07380    -0.16337
          Y               0.06757     0.99677    -0.04337
          Z               0.16604     0.03162     0.98561
   Rotational Symmetry Number is   1
   The Molecule is an Asymmetric Top
   Translational Enthalpy:        0.889 kcal/mol
   Rotational Enthalpy:           0.889 kcal/mol
   Vibrational Enthalpy:         92.593 kcal/mol
   gas constant (RT):             0.592 kcal/mol
   Translational Entropy:        41.193  cal/mol.K
   Rotational Entropy:           30.098  cal/mol.K
   Vibrational Entropy:          30.313  cal/mol.K

   Total Enthalpy:               94.963 kcal/mol
   Total Entropy:               101.603  cal/mol.K
Archival summary:
1\1\c4-81\FREQ\ProcedureUnspecified\BasisUnspecified\658(2-,1)\leeping\SatMar2112:44:422020SatMar2112:44:422020\0\\#,FREQ,ProcedureUnspecified,BasisUnspecified,\\-2,1\O\O,1,1.43062\C,2,1.43063,1,110.223\H,3,1.09351,2,110.362,1,-76.7033,0\H,3,1.09533,2,102.619,1,167.528,0\C,1,1.51398,2,113.671,3,98.534,0\O,6,1.3017,1,104.058,2,179.974,0\O,6,1.43281,1,105.897,2,-58.4097,0\H,8,0.981116,6,105.904,1,-49.3064,0\C,3,1.5182,2,114.088,1,48.223,0\H,10,1.09354,3,110.464,2,44.23,0\H,10,1.09834,3,107.412,2,160.595,0\C,6,1.52921,1,108.318,2,55.5978,0\H,13,1.09234,6,111.962,1,-56.6878,0\H,13,1.09295,6,109.088,1,64.4959,0\H,13,1.0941,6,108.713,1,-177.087,0\C,10,1.5361,3,116.141,2,-81.1659,0\O,17,1.25474,10,116.91,3,148.857,0\O,17,1.26526,10,117.924,3,-34.3425,0\\\@

 Total job time:  54816.34s(wall), 777993.20s(cpu) 
 Sat Mar 21 12:44:42 2020

        *************************************************************
        *                                                           *
        *  Thank you very much for using Q-Chem.  Have a nice day.  *
        *                                                           *
        *************************************************************


