
Running Job 1 of 1 qc-3-tshess.in
qchem qc-3-tshess.in_121442.0 /scratch/alotsuki/1175625/qc-3-tshess.d/ 1
/home/leeping/opt/qchem/5.0.2-openmp/exe/qcprog.exe_s qc-3-tshess.in_121442.0 /scratch/alotsuki/1175625/qc-3-tshess.d/
Check license passed

                  Welcome to Q-Chem
     A Quantum Leap Into The Future Of Chemistry


 Q-Chem 5.0, Q-Chem, Inc., Pleasanton, CA (2017)

 Yihan Shao,  Zhengting Gan,  E. Epifanovsky,  A. T. B. Gilbert,  M. Wormit,  
 J. Kussmann,  A. W. Lange,  A. Behn,  Jia Deng,  Xintian Feng,  D. Ghosh,  
 M. Goldey,  P. R. Horn,  L. D. Jacobson,  I. Kaliman,  T. Kus,  A. Landau,  
 Jie Liu,  E. I. Proynov,  R. M. Richard,  R. P. Steele,  E. J. Sundstrom,  
 H. L. Woodcock III,  P. M. Zimmerman,  D. Zuev,  B. Albrecht,  E. Alguire,  
 S. A. Baeppler,  D. Barton,  Z. Benda,  Y. A. Bernard,  E. J. Berquist,  
 K. B. Bravaya,  H. Burton,  D. Casanova,  Chun-Min Chang,  Yunqing Chen,  
 A. Chien,  K. D. Closser,  M. P. Coons,  S. Dasgupta,  A. L. Dempwolff,  
 M. Diedenhofen,  Hainam Do,  R. G. Edgar,  Po-Tung Fang,  S. Fatehi,  
 Qingguo Feng,  J. Fosso-Tande,  Qinghui Ge,  A. Ghysels,  G. Gidofalvi,  
 J. Gomes,  J. Gonthier,  A. Gunina,  M. W. D. Hanson-Heine,  
 P. H. P. Harbach,  A. W. Hauser,  J. E. Herr,  E. G. Hohenstein,  
 Z. C. Holden,  Kerwin Hui,  T.-C. Jagau,  Hyunjun Ji,  B. Kaduk,  
 K. Khistyaev,  Jaehoon Kim,  P. Klunzinger,  K. Koh,  D. Kosenkov,  
 L. Koulias,  T. Kowalczyk,  C. M. Krauter,  A. Kunitsa,  Ka Un Lao,  
 A. Laurent,  K. V. Lawler,  Joonho Lee,  D. Lefrancois,  S. Lehtola,  
 D. S. Levine,  Yi-Pei Li,  You-Sheng Lin,  Fenglai Liu,  E. Livshits,  
 A. Luenser,  P. Manohar,  E. Mansoor,  S. F. Manzer,  Shan-Ping Mao,  
 Yuezhi Mao,  N. Mardirossian,  A. V. Marenich,  T. Markovich,  
 L. A. Martinez-Martinez,  S. A. Maurer,  N. J. Mayhall,  S. C. McKenzie,  
 J.-M. Mewes,  A. F. Morrison,  J. W. Mullinax,  K. Nanda,  
 T. S. Nguyen-Beck,  R. Olivares-Amaya,  J. A. Parkhill,  T. M. Perrine,  
 F. Plasser,  S. Prager,  A. Prociuk,  E. Ramos,  D. R. Rehn,  F. Rob,  
 M. Schneider,  N. Sergueev,  S. M. Sharada,  S. Sharma,  D. W. Small,  
 T. Stauch,  T. Stein,  Yu-Chuan Su,  A. J. W. Thom,  A. Tkatchenko,  
 T. Tsuchimochi,  L. Vogt,  O. Vydrov,  M. A. Watson,  J. Wenzel,  
 M. de Wergifosse,  T. A. Wesolowski,  A. White,  J. Witte,  A. Yamada,  
 Jun Yang,  K. Yao,  S. Yeganeh,  S. R. Yost,  Zhi-Qiang You,  A. Zech,  
 Igor Ying Zhang,  Xing Zhang,  Yan Zhao,  Ying Zhu,  B. R. Brooks,  
 G. K. L. Chan,  C. J. Cramer,  M. S. Gordon,  W. J. Hehre,  A. Klamt,  
 M. W. Schmidt,  C. D. Sherrill,  D. G. Truhlar,  A. Aspuru-Guzik,  R. Baer,  
 A. T. Bell,  N. A. Besley,  Jeng-Da Chai,  R. A. DiStasio Jr.,  A. Dreuw,  
 B. D. Dunietz,  T. R. Furlani,  Chao-Ping Hsu,  Yousung Jung,  Jing Kong,  
 D. S. Lambrecht,  WanZhen Liang,  C. Ochsenfeld,  V. A. Rassolov,  
 L. V. Slipchenko,  J. E. Subotnik,  T. Van Voorhis,  J. M. Herbert,  
 A. I. Krylov,  P. M. W. Gill,  M. Head-Gordon

 Contributors to earlier versions of Q-Chem not listed above: 
 R. D. Adamson,  B. Austin,  J. Baker,  G. J. O. Beran,  K. Brandhorst,  
 S. T. Brown,  E. F. C. Byrd,  A. K. Chakraborty,  C.-L. Cheng,  
 Siu Hung Chien,  D. M. Chipman,  D. L. Crittenden,  H. Dachsel,  
 R. J. Doerksen,  A. D. Dutoi,  L. Fusti-Molnar,  W. A. Goddard III,  
 A. Golubeva-Zadorozhnaya,  S. R. Gwaltney,  G. Hawkins,  A. Heyden,  
 S. Hirata,  G. Kedziora,  F. J. Keil,  C. Kelley,  Jihan Kim,  R. A. King,  
 R. Z. Khaliullin,  P. P. Korambath,  W. Kurlancheek,  A. M. Lee,  M. S. Lee,  
 S. V. Levchenko,  Ching Yeh Lin,  D. Liotard,  R. C. Lochan,  I. Lotan,  
 P. E. Maslen,  N. Nair,  D. P. O'Neill,  D. Neuhauser,  E. Neuscamman,  
 C. M. Oana,  R. Olson,  B. Peters,  R. Peverati,  P. A. Pieniazek,  
 Y. M. Rhee,  J. Ritchie,  M. A. Rohrdanz,  E. Rosta,  N. J. Russ,  
 H. F. Schaefer III,  N. E. Schultz,  N. Shenvi,  A. C. Simmonett,  A. Sodt,  
 D. Stuck,  K. S. Thanthiriwatte,  V. Vanovschi,  Tao Wang,  A. Warshel,  
 C. F. Williams,  Q. Wu,  X. Xu,  W. Zhang

 Please cite Q-Chem as follows:
 Y. Shao et al., Mol. Phys. 113, 184-215 (2015)
 DOI: 10.1080/00268976.2014.952696

 Q-Chem 5.0.2 for Intel X86 EM64T Linux

 Parts of Q-Chem use Armadillo 5.200.1 (Boston Tea Smuggler).
 http://arma.sourceforge.net/

 Q-Chem begins on Mon Apr 30 18:34:26 2018  

Host: 
0

     Scratch files written to /scratch/alotsuki/1175625/qc-3-tshess.d//
 Dec517 15110_ 26548  26544 5633   
Processing $rem in /home/leeping/opt/qchem/5.0.2-openmp/config/preferences.
 MEM_STATIC 2000
 MEM_TOTAL  8000
 SYMMETRY   OFF
 SYM_IGNORE TRUE 
Symmetry turned off for PCM/SM12/SMD calculation

Checking the input file for inconsistencies... 	...done.

--------------------------------------------------------------
User input:
--------------------------------------------------------------
$molecule
-2 1
C       -2.8225510517   -0.2618823051   -0.5391408950
H       -2.6744407054    0.7640150360   -0.2013206952
H       -3.0691093246   -0.2737637464   -1.6008398496
H       -3.6559984767   -0.7010305381    0.0228195327
C       -1.5878305620   -1.0901187309   -0.2901253664
C        0.8805362365    1.4306082457    0.4517110448
H        0.3720105173    0.9456968238    1.2931224624
H        1.0809145548    2.4734323490    0.7294923784
C        2.1972052386    0.7187882653    0.1702449082
H        2.9087330088    1.0153175470    0.9539055693
H        2.6107680061    1.0569105373   -0.7842491299
C        2.1735864632   -0.8118045754    0.1953276416
O       -0.2167633937    0.2177507043   -1.2198616304
O       -1.1326140515   -0.9424786852    0.9776298846
H       -0.1637144676   -1.1880947256    1.0027857534
O       -1.3055013503   -2.0840709364   -0.9648635839
O        2.9160177659   -1.4153072101   -0.6139443353
O        1.4688900135   -1.3849122981    1.0853070357
O        0.0198615787    1.5309442429   -0.6680007254
$end

$rem
jobtype               freq
method                wb97x-v
basis                 def2-tzvpd
symmetry              off
sym_ignore            true
incdft                false
incfock               0
!scf_algorithm        diis_gdm
scf_convergence       8
thresh                14
!purecart             112
max_scf_cycles        1000
geom_opt_max_cycles   500
geom_opt_dmax         100
geom_opt_tol_gradient 10
solvent_method        pcm
ideriv                1
rpath_tol_displacement 1000
rpath_max_cycles      100
rpath_direction       1
!scf_guess            read
scf_guess             read
$end

$pcm
theory              cosmo
method              iswig
Radii               bondi
vdwScale            1.20
hpoints             110
heavypoints         110
$end

$solvent
dielectric 78.400000
$end

--------------------------------------------------------------
 ----------------------------------------------------------------
             Standard Nuclear Orientation (Angstroms)
    I     Atom           X                Y                Z
 ----------------------------------------------------------------
    1      C      -2.8225510517    -0.2618823051    -0.5391408950
    2      H      -2.6744407054     0.7640150360    -0.2013206952
    3      H      -3.0691093246    -0.2737637464    -1.6008398496
    4      H      -3.6559984767    -0.7010305381     0.0228195327
    5      C      -1.5878305620    -1.0901187309    -0.2901253664
    6      C       0.8805362365     1.4306082457     0.4517110448
    7      H       0.3720105173     0.9456968238     1.2931224624
    8      H       1.0809145548     2.4734323490     0.7294923784
    9      C       2.1972052386     0.7187882653     0.1702449082
   10      H       2.9087330088     1.0153175470     0.9539055693
   11      H       2.6107680061     1.0569105373    -0.7842491299
   12      C       2.1735864632    -0.8118045754     0.1953276416
   13      O      -0.2167633937     0.2177507043    -1.2198616304
   14      O      -1.1326140515    -0.9424786852     0.9776298846
   15      H      -0.1637144676    -1.1880947256     1.0027857534
   16      O      -1.3055013503    -2.0840709364    -0.9648635839
   17      O       2.9160177659    -1.4153072101    -0.6139443353
   18      O       1.4688900135    -1.3849122981     1.0853070357
   19      O       0.0198615787     1.5309442429    -0.6680007254
 ----------------------------------------------------------------
 Nuclear Repulsion Energy =   670.3110415552 hartrees
 There are       44 alpha and       44 beta electrons
 Requested basis set is def2-TZVPD
 There are 189 shells and 497 basis functions

 Total QAlloc Memory Limit   8000 MB
 Mega-Array Size      1956 MB
 MEM_STATIC part      2000 MB
 Discretize the solute cavity surface with Lebedev spheres
	Using 110 Lebedev grid points for each H atom
	Using 110 Lebedev grid points for other atoms
	Atomic van der Waals radii will be scaled by 1.20
 Remove points where switching function is < 1.0e-08
 Keep 1097 surface tesserae and discard 993 interior tesserae
 Molecular Surface Area = 192.565 Angst**2
 A cutoff of  1.0D-14 yielded  16535 shell pairs
 There are    115953 function pairs (    148426 Cartesian)
 
 -------------------------------------------------------
 OpenMP Integral Computing Module                       
 Release: version 1.0, May 2013, Q-Chem Inc. Pittsburgh 
 -------------------------------------------------------
 Integral Job Info:
 Integral job number is                      11
 Integral operator is                         1
 short-range coefficients              16700000
 long-range coefficients              100000000
 Omega coefficients                         300
 if combine SR and LR in K                    1
 Integral screening is                        0
 Integral computing path is                   2
 max size of driver memory is            800000
 size of driver memory is                776718
 size of scratch memory is              4473992
 max col of scratch BK array              10000
 max len of scratch array in speh3          662
 max len of scratch index in speh4           32
 max int batch size is                      520
 min int batch size is                       52
 fixed nKL is                                52
 max L of basis functions is                  3
 order of int derivative is                   0
 number of shells is                        189
 number of basis is                         563
 number of cartesian basis is               563
 number of contracted shell pairs         16535
 number of primitive shell pairs          33200
 maxK2 (contraction) of shell pair           36
 max number of K2 of shell pair               1
 max number of CS2 of shell pair           2682
 max number of PS2 of shell pair           3822
 mem total for path MDJ                  859000
 -------------------------------------------------------
 Smallest overlap matrix eigenvalue = 5.12E-06
 Guess MOs from SCF MO coefficient file
 Reading MOs from coefficient file
 Reading MOs from coefficient file
 Long-range K will be added via erf
 Coulomb attenuation parameter = 0.3 bohr**(-1)
 A restricted hybrid HF-DFT SCF calculation will be
 performed using Pulay DIIS extrapolation
 Polarizable Continuum solvation model will be applied
 Exchange:     0.1670 Hartree-Fock + 1.0000 wB97X-V + LR-HF
 Correlation:  1.0000 wB97X-V
 Using SG-2 standard quadrature grid
 Nonlocal Correlation:  VV10 with C = 0.0100 and b = 6.00
 Grid used for NLC:  SG-1 standard quadrature
 SCF converges when DIIS error is below 1.0E-08
Using Q-Chem read-in guess as SCF_GUESS READ specified.

 using 4 threads for integral computing
 -------------------------------------------------------
 OpenMP Integral computing Module                
 Release: version 1.0, May 2013, Q-Chem Inc. Pittsburgh 
 -------------------------------------------------------
 using 4 threads for integral computing
 -------------------------------------------------------
 OpenMP Integral computing Module                
 Release: version 1.0, May 2013, Q-Chem Inc. Pittsburgh 
 -------------------------------------------------------
 -------------------------------------------------------
 OpenMP BLAS3 based DFT computing Module                
 Release: version 1.0, May 2013, Q-Chem Inc. Pittsburgh 
 -------------------------------------------------------
 -------------------------------------------------------
 OpenMP BLAS3 based DFT computing Module                
 Release: version 1.0, May 2013, Q-Chem Inc. Pittsburgh 
 -------------------------------------------------------
 -------------------------------------------------------
 OpenMP BLAS3 based DFT computing Module                
 Release: version 1.0, May 2013, Q-Chem Inc. Pittsburgh 
 -------------------------------------------------------
 ---------------------------------------
  Cycle       Energy         DIIS Error
 ---------------------------------------
    1    -646.6249811560      5.11E-04
    2    -646.9407325683      5.89E-04
    3    -646.9545225503      2.58E-04
    4    -646.9566316816      1.89E-04
    5    -646.9578823139      1.44E-04
    6    -646.9585502997      1.15E-04
    7    -646.9589964261      9.07E-05
    8    -646.9593020262      6.98E-05
    9    -646.9595017741      5.19E-05
   10    -646.9595987087      4.04E-05
   11    -646.9596723698      2.87E-05
   12    -646.9597072494      2.10E-05
   13    -646.9597223434      1.66E-05
   14    -646.9597325627      1.27E-05
   15    -646.9597374977      1.04E-05
   16    -646.9597405921      8.57E-06
   17    -646.9597472788      8.71E-09 Convergence criterion met
 ---------------------------------------

************** Final PCM Free Energy Summary **************
 G_electrostatic  =      -0.33476612 hartree =    -210.06891064 kcal/mol
 G_cavitation     =       0.00000000 hartree =       0.00000000 kcal/mol
 G_dispersion     =       0.00000000 hartree =       0.00000000 kcal/mol
 G_repulsion      =       0.00000000 hartree =       0.00000000 kcal/mol
 --------------------------------------------------
 Non-electrostatic Free Energy =       0.00000000 hartree =       0.00000000 kcal/mol
 Total                         =      -0.33476612 hartree =    -210.06891064 kcal/mol
 --------------------------------------------------
 SCF Energy (H0 + V/2)                       =    -646.95974728 
 Solute Internal Energy (H0)                 =    -646.62498116 
 Total Free Energy (H0 + V/2 + non-elec)     =    -646.95974728 hartree
                                             = -405973.36877321 kcal/mol
***********************************************************

 SCF time:  CPU 5006.64 s  wall 1292.39 s
 SCF   energy in the final basis set = -646.95974728
 Total energy in the final basis set = -646.95974728
 
 --------------------------------------------------------------
 
                    Orbital Energies (a.u.)
 --------------------------------------------------------------
 
 Alpha MOs
 -- Occupied --
-19.208 -19.196 -19.154 -19.145 -19.143 -19.142 -10.378 -10.346
-10.284 -10.245 -10.244  -1.184  -1.157  -1.147  -1.092  -1.053
 -0.924  -0.853  -0.846  -0.715  -0.687  -0.611  -0.585  -0.565
 -0.561  -0.555  -0.548  -0.526  -0.514  -0.504  -0.487  -0.479
 -0.474  -0.448  -0.443  -0.415  -0.398  -0.378  -0.355  -0.348
 -0.342  -0.332  -0.302  -0.269
 -- Virtual --
  0.062   0.077   0.081   0.082   0.103   0.108   0.110   0.112
  0.115   0.134   0.136   0.146   0.148   0.152   0.157   0.160
  0.165   0.168   0.180   0.195   0.200   0.202   0.204   0.209
  0.214   0.219   0.231   0.236   0.243   0.256   0.261   0.266
  0.267   0.276   0.279   0.288   0.292   0.296   0.303   0.309
  0.314   0.318   0.329   0.329   0.333   0.347   0.350   0.351
  0.357   0.361   0.364   0.369   0.375   0.378   0.388   0.389
  0.391   0.402   0.406   0.409   0.415   0.419   0.424   0.426
  0.431   0.442   0.445   0.451   0.455   0.460   0.465   0.469
  0.476   0.483   0.496   0.497   0.500   0.504   0.514   0.518
  0.523   0.529   0.535   0.536   0.546   0.547   0.550   0.553
  0.565   0.570   0.575   0.582   0.589   0.599   0.605   0.608
  0.618   0.624   0.636   0.645   0.653   0.656   0.670   0.673
  0.679   0.682   0.685   0.691   0.698   0.709   0.712   0.722
  0.734   0.736   0.739   0.745   0.761   0.769   0.776   0.778
  0.783   0.792   0.800   0.803   0.807   0.812   0.818   0.824
  0.830   0.833   0.839   0.848   0.857   0.865   0.869   0.882
  0.883   0.887   0.892   0.902   0.906   0.920   0.927   0.931
  0.947   0.951   0.961   0.971   0.980   0.994   1.005   1.011
  1.016   1.034   1.039   1.058   1.062   1.072   1.095   1.105
  1.115   1.123   1.127   1.136   1.141   1.177   1.182   1.194
  1.201   1.209   1.219   1.240   1.266   1.275   1.277   1.298
  1.314   1.323   1.340   1.351   1.360   1.364   1.367   1.380
  1.389   1.412   1.422   1.434   1.455   1.465   1.481   1.494
  1.495   1.510   1.532   1.551   1.570   1.580   1.606   1.619
  1.628   1.649   1.692   1.710   1.761   1.793   1.856   1.883
  1.895   1.909   1.916   1.926   1.939   1.951   1.957   1.963
  1.975   1.987   1.994   2.003   2.014   2.023   2.029   2.040
  2.065   2.081   2.094   2.107   2.120   2.125   2.149   2.174
  2.179   2.194   2.208   2.213   2.229   2.248   2.264   2.278
  2.288   2.311   2.342   2.362   2.364   2.374   2.408   2.441
  2.445   2.453   2.462   2.490   2.502   2.518   2.534   2.546
  2.572   2.586   2.604   2.614   2.643   2.652   2.662   2.685
  2.694   2.698   2.711   2.745   2.769   2.774   2.812   2.832
  2.856   2.873   2.895   2.900   2.932   2.953   2.964   2.981
  2.988   3.001   3.021   3.050   3.084   3.102   3.135   3.158
  3.172   3.206   3.228   3.249   3.257   3.272   3.289   3.301
  3.312   3.337   3.348   3.351   3.377   3.379   3.388   3.399
  3.428   3.436   3.451   3.465   3.469   3.487   3.490   3.505
  3.518   3.532   3.556   3.567   3.587   3.594   3.610   3.620
  3.631   3.645   3.661   3.668   3.675   3.708   3.726   3.734
  3.743   3.760   3.792   3.797   3.810   3.835   3.849   3.856
  3.895   3.913   3.927   3.936   3.988   4.029   4.093   4.106
  4.134   4.157   4.169   4.181   4.231   4.282   4.300   4.362
  4.405   4.423   4.463   4.602   4.646   4.652   4.686   4.714
  4.767   4.781   4.792   4.871   4.896   4.936   4.940   5.023
  5.054   5.086   5.152   5.199   5.278   5.322   5.337   5.360
  5.366   5.376   5.380   5.407   5.423   5.478   5.496   5.507
  5.520   5.529   5.635   5.644   5.675   5.697   5.719   5.741
  5.762   5.786   5.907   5.977   6.023   6.115   6.152   6.172
  6.214   6.252   6.310   6.325   6.332   6.366   6.491   6.564
  6.621   6.655   6.672   6.716   6.725   6.737   6.749   6.782
  6.787   6.796   6.814   6.860   6.889   6.927   6.964   6.998
  7.011   7.061   7.092   7.099   7.174   7.200   7.260   7.277
  7.298   7.334   7.371   7.379   7.397   7.425   7.442   7.540
  7.586   8.362  22.693  22.820  22.859  23.522  23.751  44.243
 44.394  44.468  44.522  44.550  44.758
 --------------------------------------------------------------
 
          Ground-State Mulliken Net Atomic Charges

     Atom                 Charge (a.u.)
  ----------------------------------------
      1 C                    -0.839990
      2 H                     0.168922
      3 H                     0.215906
      4 H                     0.251882
      5 C                     0.769148
      6 C                    -0.206475
      7 H                     0.139723
      8 H                     0.230306
      9 C                    -0.105408
     10 H                     0.236131
     11 H                     0.138011
     12 C                     0.311322
     13 O                    -0.666508
     14 O                    -0.506039
     15 H                     0.327324
     16 O                    -0.665624
     17 O                    -0.710586
     18 O                    -0.771841
     19 O                    -0.316205
  ----------------------------------------
  Sum of atomic charges =    -2.000000

 -----------------------------------------------------------------
                    Cartesian Multipole Moments
 -----------------------------------------------------------------
    Charge (ESU x 10^10)
                -9.6064
    Dipole Moment (Debye)
         X      -5.9888      Y      10.8647      Z       5.9982
       Tot      13.7799
    Quadrupole Moments (Debye-Ang)
        XX     -96.2341     XY      13.0669     YY     -98.4353
        XZ       2.5240     YZ      -0.0258     ZZ     -86.6806
    Octopole Moments (Debye-Ang^2)
       XXX    -122.8013    XXY      78.5498    XYY     -24.9948
       YYY     117.2717    XXZ      25.9530    XYZ       3.3607
       YYZ      25.0013    XZZ     -16.7913    YZZ      36.4081
       ZZZ      34.2474
    Hexadecapole Moments (Debye-Ang^3)
      XXXX   -1675.8565   XXXY     103.6980   XXYY    -457.4576
      XYYY      -9.1419   YYYY    -823.9976   XXXZ      -9.0247
      XXYZ     -28.1377   XYYZ     -36.5322   YYYZ     -22.6067
      XXZZ    -328.2718   XYZZ      -3.9171   YYZZ    -206.3191
      XZZZ     -72.0025   YZZZ      -5.7415   ZZZZ    -371.9287
 -----------------------------------------------------------------
 Calculating analytic gradient of the SCF energy
 Gradient of SCF Energy
            1           2           3           4           5           6
    1  -0.0569610  -0.0136256   0.0158075   0.0524399   0.0464982  -0.0243396
    2   0.0729757  -0.0777677   0.0000995   0.0296321  -0.0930746  -0.0067550
    3  -0.0381375  -0.0295842   0.0830537  -0.0367823   0.0356357   0.0801926
            7           8           9          10          11          12
    1   0.0278138  -0.0030546   0.0538418  -0.0426886  -0.0203618   0.0189091
    2   0.0337543  -0.0551286   0.0600211  -0.0095145  -0.0298927  -0.0624130
    3  -0.0630206  -0.0168715  -0.0506154  -0.0394352   0.0604959   0.0397367
           13          14          15          16          17          18
    1  -0.0020539   0.0247258  -0.0678086  -0.0226626  -0.0382812   0.0318868
    2  -0.0498833  -0.0201912   0.0339871   0.0566637   0.0411454   0.0227184
    3  -0.0570197  -0.0131679  -0.0235308   0.0333202   0.0392270  -0.0369478
           19
    1   0.0199147
    2   0.0536232
    3   0.0334511
 Max gradient component =       9.307E-02
 RMS gradient           =       4.414E-02
 Computing fast CPCM-ISWIG gradient
 Updating gradient with PCM contributions...
 -- total gradient after adding PCM contribution --
---------------------------------------------------
  Atom         X              Y              Z     
---------------------------------------------------
   1      -0.000001       0.000049      -0.000014
   2       0.000013       0.000043      -0.000003
   3       0.000002       0.000062      -0.000015
   4      -0.000010       0.000056      -0.000021
   5      -0.000016       0.000025      -0.000016
   6       0.000020      -0.000018       0.000017
   7       0.000009      -0.000018       0.000011
   8       0.000035      -0.000024       0.000028
   9       0.000010      -0.000036       0.000016
  10       0.000012      -0.000054       0.000022
  11       0.000019      -0.000032       0.000021
  12      -0.000013      -0.000035       0.000001
  13       0.000008       0.000015       0.000000
  14      -0.000018       0.000007      -0.000014
  15      -0.000023      -0.000007      -0.000012
  16      -0.000028       0.000032      -0.000024
  17      -0.000019      -0.000038      -0.000002
  18      -0.000025      -0.000033      -0.000008
  19       0.000026       0.000006       0.000015
---------------------------------------------------
 Number of fixed atoms: 0
 Gradient time:  CPU 976.46 s  wall 251.54 s
 ######################################################
 ######################################################
 # Starting finite difference calculation for IDERIV  #
 Finite diff step size:  1.88973e-03 a.u.
 ----------------------------------------------------------------
             Standard Nuclear Orientation (Angstroms)
    I     Atom           X                Y                Z
 ----------------------------------------------------------------
    1      C      -2.8215510517    -0.2618823051    -0.5391408950
    2      H      -2.6744407054     0.7640150360    -0.2013206952
    3      H      -3.0691093246    -0.2737637464    -1.6008398496
    4      H      -3.6559984767    -0.7010305381     0.0228195327
    5      C      -1.5878305620    -1.0901187309    -0.2901253664
    6      C       0.8805362365     1.4306082457     0.4517110448
    7      H       0.3720105173     0.9456968238     1.2931224624
    8      H       1.0809145548     2.4734323490     0.7294923784
    9      C       2.1972052386     0.7187882653     0.1702449082
   10      H       2.9087330088     1.0153175470     0.9539055693
   11      H       2.6107680061     1.0569105373    -0.7842491299
   12      C       2.1735864632    -0.8118045754     0.1953276416
   13      O      -0.2167633937     0.2177507043    -1.2198616304
   14      O      -1.1326140515    -0.9424786852     0.9776298846
   15      H      -0.1637144676    -1.1880947256     1.0027857534
   16      O      -1.3055013503    -2.0840709364    -0.9648635839
   17      O       2.9160177659    -1.4153072101    -0.6139443353
   18      O       1.4688900135    -1.3849122981     1.0853070357
   19      O       0.0198615787     1.5309442429    -0.6680007254
 ----------------------------------------------------------------
 Nuclear Repulsion Energy =   670.3316287356 hartrees
 There are       44 alpha and       44 beta electrons
 Discretize the solute cavity surface with Lebedev spheres
	Using 110 Lebedev grid points for each H atom
	Using 110 Lebedev grid points for other atoms
	Atomic van der Waals radii will be scaled by 1.20
 Remove points where switching function is < 1.0e-08
 Keep 1097 surface tesserae and discard 993 interior tesserae
 Molecular Surface Area = 192.559 Angst**2
 Requested basis set is def2-TZVPD
 There are 189 shells and 497 basis functions
 A cutoff of  1.0D-14 yielded  16535 shell pairs
 There are    115953 function pairs (    148426 Cartesian)
 Smallest overlap matrix eigenvalue = 5.12E-06
 Guess MOs from SCF MO coefficient file
 Reading MOs from coefficient file
 Reading MOs from coefficient file
 Long-range K will be added via erf
 Coulomb attenuation parameter = 0.3 bohr**(-1)
 A restricted hybrid HF-DFT SCF calculation will be
 performed using Pulay DIIS extrapolation
 Polarizable Continuum solvation model will be applied
 Exchange:     0.1670 Hartree-Fock + 1.0000 wB97X-V + LR-HF
 Correlation:  1.0000 wB97X-V
 Using SG-2 standard quadrature grid
 Nonlocal Correlation:  VV10 with C = 0.0100 and b = 6.00
 Grid used for NLC:  SG-1 standard quadrature
 SCF converges when DIIS error is below 1.0E-08
Using Q-Chem read-in guess as SCF_GUESS READ specified.

 using 4 threads for integral computing
 -------------------------------------------------------
 OpenMP Integral computing Module                
 Release: version 1.0, May 2013, Q-Chem Inc. Pittsburgh 
 -------------------------------------------------------
 using 4 threads for integral computing
 -------------------------------------------------------
 OpenMP Integral computing Module                
 Release: version 1.0, May 2013, Q-Chem Inc. Pittsburgh 
 -------------------------------------------------------
 -------------------------------------------------------
 OpenMP BLAS3 based DFT computing Module                
 Release: version 1.0, May 2013, Q-Chem Inc. Pittsburgh 
 -------------------------------------------------------
 -------------------------------------------------------
 OpenMP BLAS3 based DFT computing Module                
 Release: version 1.0, May 2013, Q-Chem Inc. Pittsburgh 
 -------------------------------------------------------
 -------------------------------------------------------
 OpenMP BLAS3 based DFT computing Module                
 Release: version 1.0, May 2013, Q-Chem Inc. Pittsburgh 
 -------------------------------------------------------
 ---------------------------------------
  Cycle       Energy         DIIS Error
 ---------------------------------------
    1    -646.6247430784      5.12E-04
    2    -646.9407270063      5.89E-04
    3    -646.9545226697      2.58E-04
    4    -646.9566327287      1.88E-04
    5    -646.9578868211      1.43E-04
    6    -646.9585612425      1.14E-04
    7    -646.9590225847      8.91E-05
    8    -646.9593552646      6.54E-05
    9    -646.9595792397      4.28E-05
   10    -646.9596824285      2.65E-05
   11    -646.9597369600      1.02E-05
   12    -646.9597458215      2.52E-06
   13    -646.9597463520      6.74E-07
   14    -646.9597463911      1.33E-07
   15    -646.9597463925      4.28E-08
   16    -646.9597463926      1.18E-08
   17    -646.9597463926      8.70E-10 Convergence criterion met
 ---------------------------------------

************** Final PCM Free Energy Summary **************
 G_electrostatic  =      -0.33477471 hartree =    -210.07429852 kcal/mol
 G_cavitation     =       0.00000000 hartree =       0.00000000 kcal/mol
 G_dispersion     =       0.00000000 hartree =       0.00000000 kcal/mol
 G_repulsion      =       0.00000000 hartree =       0.00000000 kcal/mol
 --------------------------------------------------
 Non-electrostatic Free Energy =       0.00000000 hartree =       0.00000000 kcal/mol
 Total                         =      -0.33477471 hartree =    -210.07429852 kcal/mol
 --------------------------------------------------
 SCF Energy (H0 + V/2)                       =    -646.95974639 
 Solute Internal Energy (H0)                 =    -646.62497169 
 Total Free Energy (H0 + V/2 + non-elec)     =    -646.95974639 hartree
                                             = -405973.36821714 kcal/mol
***********************************************************

 SCF time:  CPU 5005.76 s  wall 1291.71 s
 SCF   energy in the final basis set = -646.95974639
 Total energy in the final basis set = -646.95974639
 
 --------------------------------------------------------------
 
                    Orbital Energies (a.u.)
 --------------------------------------------------------------
 
 Alpha MOs
 -- Occupied --
-19.208 -19.196 -19.154 -19.145 -19.143 -19.142 -10.378 -10.346
-10.284 -10.245 -10.244  -1.184  -1.157  -1.147  -1.092  -1.053
 -0.924  -0.853  -0.846  -0.715  -0.687  -0.611  -0.585  -0.565
 -0.561  -0.555  -0.548  -0.526  -0.514  -0.504  -0.486  -0.479
 -0.474  -0.448  -0.443  -0.415  -0.398  -0.378  -0.355  -0.348
 -0.342  -0.332  -0.302  -0.269
 -- Virtual --
  0.062   0.077   0.081   0.082   0.103   0.108   0.110   0.112
  0.115   0.134   0.135   0.146   0.148   0.152   0.157   0.160
  0.165   0.168   0.180   0.195   0.200   0.202   0.204   0.209
  0.214   0.219   0.231   0.236   0.243   0.256   0.261   0.266
  0.268   0.276   0.279   0.288   0.292   0.296   0.303   0.309
  0.314   0.318   0.329   0.329   0.333   0.347   0.350   0.351
  0.357   0.361   0.364   0.369   0.375   0.378   0.388   0.389
  0.391   0.402   0.406   0.409   0.415   0.419   0.424   0.425
  0.431   0.442   0.445   0.451   0.455   0.460   0.465   0.469
  0.476   0.483   0.496   0.497   0.500   0.504   0.514   0.518
  0.523   0.529   0.535   0.536   0.546   0.547   0.550   0.553
  0.565   0.570   0.575   0.582   0.589   0.599   0.605   0.608
  0.618   0.624   0.636   0.645   0.653   0.656   0.670   0.673
  0.679   0.682   0.685   0.691   0.698   0.709   0.712   0.722
  0.734   0.736   0.739   0.745   0.761   0.769   0.776   0.778
  0.783   0.792   0.800   0.803   0.807   0.812   0.818   0.824
  0.830   0.833   0.839   0.848   0.857   0.865   0.869   0.882
  0.883   0.887   0.892   0.902   0.906   0.920   0.927   0.931
  0.947   0.951   0.961   0.971   0.980   0.994   1.005   1.011
  1.016   1.034   1.039   1.058   1.062   1.072   1.095   1.105
  1.115   1.123   1.127   1.136   1.141   1.177   1.182   1.194
  1.201   1.209   1.219   1.240   1.266   1.275   1.277   1.298
  1.314   1.323   1.340   1.351   1.360   1.364   1.367   1.380
  1.390   1.412   1.422   1.434   1.455   1.465   1.481   1.494
  1.495   1.510   1.532   1.551   1.570   1.580   1.606   1.619
  1.628   1.650   1.692   1.710   1.761   1.793   1.856   1.883
  1.895   1.909   1.916   1.926   1.939   1.951   1.957   1.963
  1.975   1.987   1.994   2.003   2.014   2.023   2.029   2.040
  2.066   2.081   2.094   2.107   2.120   2.125   2.149   2.174
  2.179   2.194   2.208   2.213   2.229   2.248   2.264   2.278
  2.288   2.311   2.342   2.362   2.364   2.374   2.408   2.441
  2.445   2.453   2.462   2.490   2.502   2.518   2.534   2.546
  2.572   2.586   2.604   2.614   2.643   2.653   2.662   2.685
  2.695   2.698   2.711   2.745   2.769   2.774   2.812   2.832
  2.856   2.873   2.895   2.900   2.932   2.952   2.964   2.981
  2.988   3.001   3.021   3.050   3.084   3.102   3.135   3.158
  3.172   3.206   3.228   3.249   3.257   3.272   3.289   3.301
  3.312   3.337   3.348   3.351   3.378   3.379   3.388   3.399
  3.428   3.436   3.451   3.465   3.469   3.487   3.490   3.505
  3.518   3.532   3.556   3.567   3.587   3.594   3.610   3.620
  3.631   3.645   3.661   3.668   3.675   3.708   3.726   3.734
  3.743   3.760   3.792   3.797   3.810   3.835   3.849   3.856
  3.895   3.913   3.927   3.936   3.988   4.029   4.093   4.107
  4.134   4.157   4.170   4.182   4.231   4.282   4.300   4.362
  4.405   4.423   4.463   4.602   4.646   4.652   4.686   4.713
  4.767   4.781   4.792   4.871   4.896   4.936   4.940   5.023
  5.054   5.086   5.152   5.199   5.278   5.322   5.337   5.360
  5.366   5.376   5.380   5.407   5.423   5.479   5.496   5.507
  5.520   5.529   5.635   5.644   5.675   5.697   5.719   5.741
  5.762   5.786   5.907   5.977   6.023   6.115   6.152   6.172
  6.214   6.252   6.310   6.325   6.332   6.366   6.491   6.564
  6.621   6.655   6.672   6.716   6.725   6.737   6.749   6.782
  6.787   6.796   6.815   6.860   6.889   6.927   6.964   6.998
  7.011   7.061   7.092   7.099   7.174   7.201   7.260   7.277
  7.298   7.334   7.371   7.379   7.397   7.425   7.442   7.540
  7.586   8.362  22.693  22.820  22.859  23.522  23.751  44.243
 44.394  44.468  44.522  44.550  44.758
 --------------------------------------------------------------
 
          Ground-State Mulliken Net Atomic Charges

     Atom                 Charge (a.u.)
  ----------------------------------------
      1 C                    -0.840416
      2 H                     0.169062
      3 H                     0.216031
      4 H                     0.251602
      5 C                     0.769674
      6 C                    -0.206499
      7 H                     0.139731
      8 H                     0.230315
      9 C                    -0.105416
     10 H                     0.236134
     11 H                     0.138018
     12 C                     0.311320
     13 O                    -0.666509
     14 O                    -0.506036
     15 H                     0.327336
     16 O                    -0.665701
     17 O                    -0.710589
     18 O                    -0.771847
     19 O                    -0.316210
  ----------------------------------------
  Sum of atomic charges =    -2.000000

 -----------------------------------------------------------------
                    Cartesian Multipole Moments
 -----------------------------------------------------------------
    Charge (ESU x 10^10)
                -9.6064
    Dipole Moment (Debye)
         X      -5.9900      Y      10.8656      Z       5.9979
       Tot      13.7810
    Quadrupole Moments (Debye-Ang)
        XX     -96.2292     XY      13.0636     YY     -98.4364
        XZ       2.5262     YZ      -0.0254     ZZ     -86.6821
    Octopole Moments (Debye-Ang^2)
       XXX    -122.8369    XXY      78.5618    XYY     -24.9985
       YYY     117.2751    XXZ      25.9432    XYZ       3.3602
       YYZ      25.0008    XZZ     -16.7950    YZZ      36.4090
       ZZZ      34.2490
    Hexadecapole Moments (Debye-Ang^3)
      XXXX   -1675.6184   XXXY     103.6556   XXYY    -457.4347
      XYYY      -9.1500   YYYY    -824.0058   XXXZ      -8.9743
      XXYZ     -28.1359   XYYZ     -36.5285   YYYZ     -22.6063
      XXZZ    -328.2449   XYZZ      -3.9192   YYZZ    -206.3211
      XZZZ     -71.9936   YZZZ      -5.7409   ZZZZ    -371.9384
 -----------------------------------------------------------------
 Calculating analytic gradient of the SCF energy
 Gradient of SCF Energy
            1           2           3           4           5           6
    1  -0.0562027  -0.0136126   0.0157568   0.0520744   0.0461250  -0.0243395
    2   0.0731096  -0.0778751   0.0000838   0.0294402  -0.0929179  -0.0067549
    3  -0.0381569  -0.0296267   0.0829268  -0.0365549   0.0355993   0.0801977
            7           8           9          10          11          12
    1   0.0278170  -0.0030552   0.0538355  -0.0426896  -0.0203575   0.0189088
    2   0.0337535  -0.0551297   0.0600153  -0.0095136  -0.0298919  -0.0624108
    3  -0.0630236  -0.0168722  -0.0506163  -0.0394347   0.0604962   0.0397353
           13          14          15          16          17          18
    1  -0.0020530   0.0247294  -0.0678072  -0.0226541  -0.0382814   0.0318854
    2  -0.0498973  -0.0201820   0.0339885   0.0566934   0.0411462   0.0227181
    3  -0.0570188  -0.0131829  -0.0235295   0.0333318   0.0392279  -0.0369482
           19
    1   0.0199208
    2   0.0536244
    3   0.0334495
 Max gradient component =       9.292E-02
 RMS gradient           =       4.410E-02
 Computing fast CPCM-ISWIG gradient
 Updating gradient with PCM contributions...
 -- total gradient after adding PCM contribution --
---------------------------------------------------
  Atom         X              Y              Z     
---------------------------------------------------
   1       0.000938       0.000094       0.000011
   2      -0.000080      -0.000022      -0.000031
   3      -0.000107       0.000062      -0.000134
   4      -0.000387      -0.000091       0.000170
   5      -0.000331       0.000150      -0.000070
   6       0.000020      -0.000018       0.000017
   7       0.000009      -0.000018       0.000011
   8       0.000035      -0.000024       0.000028
   9       0.000010      -0.000036       0.000016
  10       0.000012      -0.000054       0.000022
  11       0.000019      -0.000032       0.000021
  12      -0.000013      -0.000036       0.000000
  13      -0.000016       0.000006       0.000009
  14      -0.000044       0.000029      -0.000039
  15      -0.000019      -0.000005      -0.000014
  16      -0.000027       0.000059      -0.000024
  17      -0.000019      -0.000038      -0.000001
  18      -0.000026      -0.000033      -0.000008
  19       0.000025       0.000007       0.000015
---------------------------------------------------
 Number of fixed atoms: 0
 Gradient time:  CPU 976.70 s  wall 251.58 s
 ----------------------------------------------------------------
             Standard Nuclear Orientation (Angstroms)
    I     Atom           X                Y                Z
 ----------------------------------------------------------------
    1      C      -2.8235510517    -0.2618823051    -0.5391408950
    2      H      -2.6744407054     0.7640150360    -0.2013206952
    3      H      -3.0691093246    -0.2737637464    -1.6008398496
    4      H      -3.6559984767    -0.7010305381     0.0228195327
    5      C      -1.5878305620    -1.0901187309    -0.2901253664
    6      C       0.8805362365     1.4306082457     0.4517110448
    7      H       0.3720105173     0.9456968238     1.2931224624
    8      H       1.0809145548     2.4734323490     0.7294923784
    9      C       2.1972052386     0.7187882653     0.1702449082
   10      H       2.9087330088     1.0153175470     0.9539055693
   11      H       2.6107680061     1.0569105373    -0.7842491299
   12      C       2.1735864632    -0.8118045754     0.1953276416
   13      O      -0.2167633937     0.2177507043    -1.2198616304
   14      O      -1.1326140515    -0.9424786852     0.9776298846
   15      H      -0.1637144676    -1.1880947256     1.0027857534
   16      O      -1.3055013503    -2.0840709364    -0.9648635839
   17      O       2.9160177659    -1.4153072101    -0.6139443353
   18      O       1.4688900135    -1.3849122981     1.0853070357
   19      O       0.0198615787     1.5309442429    -0.6680007254
 ----------------------------------------------------------------
 Nuclear Repulsion Energy =   670.2904633316 hartrees
 There are       44 alpha and       44 beta electrons
 Discretize the solute cavity surface with Lebedev spheres
	Using 110 Lebedev grid points for each H atom
	Using 110 Lebedev grid points for other atoms
	Atomic van der Waals radii will be scaled by 1.20
 Remove points where switching function is < 1.0e-08
 Keep 1097 surface tesserae and discard 993 interior tesserae
 Molecular Surface Area = 192.571 Angst**2
 Requested basis set is def2-TZVPD
 There are 189 shells and 497 basis functions
 A cutoff of  1.0D-14 yielded  16533 shell pairs
 There are    115939 function pairs (    148406 Cartesian)
 Smallest overlap matrix eigenvalue = 5.12E-06
 Guess MOs from SCF MO coefficient file
 Reading MOs from coefficient file
 Reading MOs from coefficient file
 Long-range K will be added via erf
 Coulomb attenuation parameter = 0.3 bohr**(-1)
 A restricted hybrid HF-DFT SCF calculation will be
 performed using Pulay DIIS extrapolation
 Polarizable Continuum solvation model will be applied
 Exchange:     0.1670 Hartree-Fock + 1.0000 wB97X-V + LR-HF
 Correlation:  1.0000 wB97X-V
 Using SG-2 standard quadrature grid
 Nonlocal Correlation:  VV10 with C = 0.0100 and b = 6.00
 Grid used for NLC:  SG-1 standard quadrature
 SCF converges when DIIS error is below 1.0E-08
Using Q-Chem read-in guess as SCF_GUESS READ specified.

 using 4 threads for integral computing
 -------------------------------------------------------
 OpenMP Integral computing Module                
 Release: version 1.0, May 2013, Q-Chem Inc. Pittsburgh 
 -------------------------------------------------------
 using 4 threads for integral computing
 -------------------------------------------------------
 OpenMP Integral computing Module                
 Release: version 1.0, May 2013, Q-Chem Inc. Pittsburgh 
 -------------------------------------------------------
 -------------------------------------------------------
 OpenMP BLAS3 based DFT computing Module                
 Release: version 1.0, May 2013, Q-Chem Inc. Pittsburgh 
 -------------------------------------------------------
 -------------------------------------------------------
 OpenMP BLAS3 based DFT computing Module                
 Release: version 1.0, May 2013, Q-Chem Inc. Pittsburgh 
 -------------------------------------------------------
 -------------------------------------------------------
 OpenMP BLAS3 based DFT computing Module                
 Release: version 1.0, May 2013, Q-Chem Inc. Pittsburgh 
 -------------------------------------------------------
 ---------------------------------------
  Cycle       Energy         DIIS Error
 ---------------------------------------
    1    -646.6254487297      5.12E-04
    2    -646.9407361058      5.89E-04
    3    -646.9545241721      2.58E-04
    4    -646.9566348100      1.88E-04
    5    -646.9578919015      1.43E-04
    6    -646.9585852218      1.13E-04
    7    -646.9591020868      8.40E-05
    8    -646.9594786484      5.41E-05
    9    -646.9596812344      2.67E-05
   10    -646.9597347404      1.13E-05
   11    -646.9597459601      2.18E-06
   12    -646.9597463811      3.33E-07
   13    -646.9597463903      7.65E-08
   14    -646.9597463907      1.33E-08
   15    -646.9597463907      1.19E-08
   16    -646.9597463908      5.71E-09 Convergence criterion met
 ---------------------------------------

************** Final PCM Free Energy Summary **************
 G_electrostatic  =      -0.33475751 hartree =    -210.06350712 kcal/mol
 G_cavitation     =       0.00000000 hartree =       0.00000000 kcal/mol
 G_dispersion     =       0.00000000 hartree =       0.00000000 kcal/mol
 G_repulsion      =       0.00000000 hartree =       0.00000000 kcal/mol
 --------------------------------------------------
 Non-electrostatic Free Energy =       0.00000000 hartree =       0.00000000 kcal/mol
 Total                         =      -0.33475751 hartree =    -210.06350712 kcal/mol
 --------------------------------------------------
 SCF Energy (H0 + V/2)                       =    -646.95974639 
 Solute Internal Energy (H0)                 =    -646.62498888 
 Total Free Energy (H0 + V/2 + non-elec)     =    -646.95974639 hartree
                                             = -405973.36821596 kcal/mol
***********************************************************

 SCF time:  CPU 4713.22 s  wall 1216.53 s
 SCF   energy in the final basis set = -646.95974639
 Total energy in the final basis set = -646.95974639
 
 --------------------------------------------------------------
 
                    Orbital Energies (a.u.)
 --------------------------------------------------------------
 
 Alpha MOs
 -- Occupied --
-19.208 -19.196 -19.154 -19.145 -19.143 -19.142 -10.378 -10.346
-10.284 -10.245 -10.244  -1.184  -1.157  -1.147  -1.092  -1.053
 -0.924  -0.853  -0.846  -0.715  -0.687  -0.611  -0.585  -0.565
 -0.561  -0.555  -0.548  -0.526  -0.514  -0.504  -0.487  -0.479
 -0.474  -0.448  -0.443  -0.415  -0.398  -0.378  -0.355  -0.348
 -0.342  -0.332  -0.302  -0.269
 -- Virtual --
  0.062   0.077   0.081   0.082   0.103   0.108   0.110   0.112
  0.115   0.134   0.136   0.146   0.148   0.152   0.157   0.160
  0.165   0.168   0.180   0.195   0.200   0.202   0.204   0.209
  0.214   0.219   0.231   0.236   0.243   0.256   0.261   0.266
  0.267   0.276   0.279   0.288   0.292   0.296   0.302   0.309
  0.314   0.318   0.329   0.329   0.333   0.347   0.350   0.351
  0.357   0.361   0.364   0.369   0.375   0.378   0.388   0.389
  0.391   0.402   0.406   0.409   0.415   0.419   0.424   0.426
  0.431   0.442   0.445   0.451   0.455   0.460   0.465   0.469
  0.476   0.483   0.496   0.497   0.500   0.504   0.514   0.518
  0.523   0.529   0.535   0.536   0.546   0.547   0.550   0.553
  0.565   0.570   0.575   0.582   0.589   0.599   0.605   0.608
  0.618   0.624   0.636   0.645   0.653   0.656   0.670   0.673
  0.679   0.682   0.685   0.691   0.698   0.709   0.712   0.722
  0.734   0.736   0.739   0.745   0.761   0.769   0.776   0.778
  0.783   0.792   0.800   0.803   0.807   0.812   0.818   0.824
  0.830   0.833   0.839   0.848   0.857   0.865   0.869   0.882
  0.883   0.887   0.892   0.902   0.906   0.920   0.927   0.931
  0.947   0.951   0.960   0.971   0.980   0.994   1.005   1.011
  1.016   1.034   1.039   1.058   1.062   1.072   1.095   1.105
  1.115   1.123   1.127   1.136   1.141   1.177   1.182   1.194
  1.201   1.209   1.219   1.240   1.266   1.275   1.277   1.298
  1.314   1.323   1.340   1.351   1.360   1.364   1.367   1.380
  1.389   1.412   1.422   1.433   1.455   1.465   1.481   1.494
  1.495   1.510   1.532   1.551   1.570   1.580   1.606   1.618
  1.628   1.649   1.692   1.710   1.761   1.793   1.856   1.883
  1.895   1.909   1.916   1.926   1.939   1.951   1.957   1.963
  1.975   1.987   1.994   2.003   2.014   2.023   2.029   2.040
  2.065   2.081   2.094   2.107   2.120   2.125   2.149   2.174
  2.179   2.194   2.208   2.213   2.229   2.248   2.264   2.278
  2.288   2.311   2.342   2.361   2.364   2.374   2.408   2.441
  2.445   2.453   2.462   2.490   2.502   2.518   2.534   2.545
  2.572   2.586   2.604   2.614   2.643   2.652   2.661   2.685
  2.694   2.698   2.711   2.745   2.769   2.774   2.812   2.832
  2.856   2.873   2.895   2.900   2.932   2.953   2.964   2.981
  2.988   3.001   3.021   3.050   3.084   3.102   3.135   3.158
  3.172   3.206   3.228   3.249   3.257   3.272   3.289   3.301
  3.312   3.337   3.348   3.351   3.377   3.380   3.388   3.399
  3.428   3.436   3.452   3.465   3.469   3.487   3.490   3.505
  3.518   3.532   3.556   3.567   3.587   3.594   3.610   3.620
  3.631   3.645   3.661   3.668   3.675   3.708   3.726   3.734
  3.743   3.760   3.792   3.797   3.810   3.835   3.849   3.856
  3.895   3.912   3.927   3.936   3.988   4.029   4.093   4.106
  4.134   4.157   4.168   4.181   4.231   4.282   4.300   4.362
  4.405   4.422   4.463   4.602   4.646   4.652   4.686   4.715
  4.767   4.781   4.792   4.871   4.895   4.936   4.940   5.023
  5.054   5.087   5.152   5.199   5.278   5.322   5.337   5.360
  5.366   5.376   5.380   5.407   5.423   5.478   5.496   5.507
  5.520   5.529   5.635   5.644   5.675   5.697   5.719   5.741
  5.762   5.786   5.907   5.977   6.023   6.115   6.152   6.172
  6.214   6.252   6.310   6.325   6.332   6.366   6.491   6.564
  6.621   6.655   6.672   6.716   6.725   6.737   6.749   6.782
  6.787   6.796   6.814   6.860   6.888   6.927   6.964   6.998
  7.011   7.061   7.092   7.099   7.174   7.200   7.260   7.277
  7.298   7.334   7.370   7.379   7.397   7.424   7.442   7.540
  7.586   8.362  22.693  22.820  22.859  23.521  23.751  44.243
 44.394  44.468  44.522  44.550  44.758
 --------------------------------------------------------------
 
          Ground-State Mulliken Net Atomic Charges

     Atom                 Charge (a.u.)
  ----------------------------------------
      1 C                    -0.839566
      2 H                     0.168782
      3 H                     0.215781
      4 H                     0.252165
      5 C                     0.768619
      6 C                    -0.206451
      7 H                     0.139715
      8 H                     0.230297
      9 C                    -0.105400
     10 H                     0.236129
     11 H                     0.138004
     12 C                     0.311322
     13 O                    -0.666506
     14 O                    -0.506041
     15 H                     0.327311
     16 O                    -0.665545
     17 O                    -0.710582
     18 O                    -0.771834
     19 O                    -0.316200
  ----------------------------------------
  Sum of atomic charges =    -2.000000

 -----------------------------------------------------------------
                    Cartesian Multipole Moments
 -----------------------------------------------------------------
    Charge (ESU x 10^10)
                -9.6064
    Dipole Moment (Debye)
         X      -5.9875      Y      10.8638      Z       5.9985
       Tot      13.7788
    Quadrupole Moments (Debye-Ang)
        XX     -96.2389     XY      13.0702     YY     -98.4342
        XZ       2.5218     YZ      -0.0261     ZZ     -86.6791
    Octopole Moments (Debye-Ang^2)
       XXX    -122.7655    XXY      78.5379    XYY     -24.9912
       YYY     117.2683    XXZ      25.9627    XYZ       3.3613
       YYZ      25.0017    XZZ     -16.7876    YZZ      36.4071
       ZZZ      34.2458
    Hexadecapole Moments (Debye-Ang^3)
      XXXX   -1676.0954   XXXY     103.7405   XXYY    -457.4807
      XYYY      -9.1337   YYYY    -823.9898   XXXZ      -9.0752
      XXYZ     -28.1395   XYYZ     -36.5360   YYYZ     -22.6072
      XXZZ    -328.2987   XYZZ      -3.9151   YYZZ    -206.3172
      XZZZ     -72.0115   YZZZ      -5.7421   ZZZZ    -371.9189
 -----------------------------------------------------------------
 Calculating analytic gradient of the SCF energy
 Gradient of SCF Energy
            1           2           3           4           5           6
    1  -0.0577187  -0.0136386   0.0158580   0.0528064   0.0468701  -0.0243396
    2   0.0728391  -0.0776599   0.0001153   0.0298250  -0.0932305  -0.0067552
    3  -0.0381165  -0.0295415   0.0831803  -0.0370108   0.0356712   0.0801874
            7           8           9          10          11          12
    1   0.0278105  -0.0030540   0.0538484  -0.0426877  -0.0203662   0.0189093
    2   0.0337551  -0.0551276   0.0600269  -0.0095153  -0.0298935  -0.0624157
    3  -0.0630177  -0.0168708  -0.0506142  -0.0394358   0.0604956   0.0397380
           13          14          15          16          17          18
    1  -0.0020548   0.0247223  -0.0678098  -0.0226713  -0.0382811   0.0318883
    2  -0.0498691  -0.0202005   0.0339856   0.0566341   0.0411450   0.0227191
    3  -0.0570206  -0.0131529  -0.0235323   0.0333092   0.0392261  -0.0369475
           19
    1   0.0199085
    2   0.0536219
    3   0.0334526
 Max gradient component =       9.323E-02
 RMS gradient           =       4.418E-02
 Computing fast CPCM-ISWIG gradient
 Updating gradient with PCM contributions...
 -- total gradient after adding PCM contribution --
---------------------------------------------------
  Atom         X              Y              Z     
---------------------------------------------------
   1      -0.000939       0.000002      -0.000038
   2       0.000106       0.000108       0.000024
   3       0.000111       0.000063       0.000104
   4       0.000367       0.000204      -0.000213
   5       0.000297      -0.000100       0.000037
   6       0.000020      -0.000018       0.000016
   7       0.000009      -0.000018       0.000011
   8       0.000035      -0.000024       0.000028
   9       0.000010      -0.000036       0.000017
  10       0.000012      -0.000054       0.000022
  11       0.000019      -0.000032       0.000021
  12      -0.000014      -0.000035       0.000001
  13       0.000032       0.000023      -0.000008
  14       0.000008      -0.000014       0.000010
  15      -0.000027      -0.000009      -0.000010
  16      -0.000029       0.000006      -0.000025
  17      -0.000019      -0.000039      -0.000002
  18      -0.000025      -0.000033      -0.000008
  19       0.000027       0.000005       0.000014
---------------------------------------------------
 Number of fixed atoms: 0
 Gradient time:  CPU 976.67 s  wall 251.63 s
 ----------------------------------------------------------------
             Standard Nuclear Orientation (Angstroms)
    I     Atom           X                Y                Z
 ----------------------------------------------------------------
    1      C      -2.8225510517    -0.2608823051    -0.5391408950
    2      H      -2.6744407054     0.7640150360    -0.2013206952
    3      H      -3.0691093246    -0.2737637464    -1.6008398496
    4      H      -3.6559984767    -0.7010305381     0.0228195327
    5      C      -1.5878305620    -1.0901187309    -0.2901253664
    6      C       0.8805362365     1.4306082457     0.4517110448
    7      H       0.3720105173     0.9456968238     1.2931224624
    8      H       1.0809145548     2.4734323490     0.7294923784
    9      C       2.1972052386     0.7187882653     0.1702449082
   10      H       2.9087330088     1.0153175470     0.9539055693
   11      H       2.6107680061     1.0569105373    -0.7842491299
   12      C       2.1735864632    -0.8118045754     0.1953276416
   13      O      -0.2167633937     0.2177507043    -1.2198616304
   14      O      -1.1326140515    -0.9424786852     0.9776298846
   15      H      -0.1637144676    -1.1880947256     1.0027857534
   16      O      -1.3055013503    -2.0840709364    -0.9648635839
   17      O       2.9160177659    -1.4153072101    -0.6139443353
   18      O       1.4688900135    -1.3849122981     1.0853070357
   19      O       0.0198615787     1.5309442429    -0.6680007254
 ----------------------------------------------------------------
 Nuclear Repulsion Energy =   670.3052155763 hartrees
 There are       44 alpha and       44 beta electrons
 Discretize the solute cavity surface with Lebedev spheres
	Using 110 Lebedev grid points for each H atom
	Using 110 Lebedev grid points for other atoms
	Atomic van der Waals radii will be scaled by 1.20
 Remove points where switching function is < 1.0e-08
 Keep 1097 surface tesserae and discard 993 interior tesserae
 Molecular Surface Area = 192.567 Angst**2
 Requested basis set is def2-TZVPD
 There are 189 shells and 497 basis functions
 A cutoff of  1.0D-14 yielded  16535 shell pairs
 There are    115953 function pairs (    148426 Cartesian)
 Smallest overlap matrix eigenvalue = 5.12E-06
 Guess MOs from SCF MO coefficient file
 Reading MOs from coefficient file
 Reading MOs from coefficient file
 Long-range K will be added via erf
 Coulomb attenuation parameter = 0.3 bohr**(-1)
 A restricted hybrid HF-DFT SCF calculation will be
 performed using Pulay DIIS extrapolation
 Polarizable Continuum solvation model will be applied
 Exchange:     0.1670 Hartree-Fock + 1.0000 wB97X-V + LR-HF
 Correlation:  1.0000 wB97X-V
 Using SG-2 standard quadrature grid
 Nonlocal Correlation:  VV10 with C = 0.0100 and b = 6.00
 Grid used for NLC:  SG-1 standard quadrature
 SCF converges when DIIS error is below 1.0E-08
Using Q-Chem read-in guess as SCF_GUESS READ specified.

 using 4 threads for integral computing
 -------------------------------------------------------
 OpenMP Integral computing Module                
 Release: version 1.0, May 2013, Q-Chem Inc. Pittsburgh 
 -------------------------------------------------------
 using 4 threads for integral computing
 -------------------------------------------------------
 OpenMP Integral computing Module                
 Release: version 1.0, May 2013, Q-Chem Inc. Pittsburgh 
 -------------------------------------------------------
 -------------------------------------------------------
 OpenMP BLAS3 based DFT computing Module                
 Release: version 1.0, May 2013, Q-Chem Inc. Pittsburgh 
 -------------------------------------------------------
 -------------------------------------------------------
 OpenMP BLAS3 based DFT computing Module                
 Release: version 1.0, May 2013, Q-Chem Inc. Pittsburgh 
 -------------------------------------------------------
 -------------------------------------------------------
 OpenMP BLAS3 based DFT computing Module                
 Release: version 1.0, May 2013, Q-Chem Inc. Pittsburgh 
 -------------------------------------------------------
 ---------------------------------------
  Cycle       Energy         DIIS Error
 ---------------------------------------
    1    -646.6250546233      5.12E-04
    2    -646.9407287730      5.89E-04
    3    -646.9545249452      2.58E-04
    4    -646.9566351640      1.88E-04
    5    -646.9578905786      1.43E-04
    6    -646.9585699493      1.14E-04
    7    -646.9590441169      8.77E-05
    8    -646.9593926873      6.22E-05
    9    -646.9596200237      3.72E-05
   10    -646.9597096562      2.00E-05
   11    -646.9597432106      5.72E-06
   12    -646.9597460716      1.07E-06
   13    -646.9597461678      2.41E-07
   14    -646.9597461728      3.02E-08
   15    -646.9597461729      7.76E-09 Convergence criterion met
 ---------------------------------------

************** Final PCM Free Energy Summary **************
 G_electrostatic  =      -0.33475794 hartree =    -210.06377605 kcal/mol
 G_cavitation     =       0.00000000 hartree =       0.00000000 kcal/mol
 G_dispersion     =       0.00000000 hartree =       0.00000000 kcal/mol
 G_repulsion      =       0.00000000 hartree =       0.00000000 kcal/mol
 --------------------------------------------------
 Non-electrostatic Free Energy =       0.00000000 hartree =       0.00000000 kcal/mol
 Total                         =      -0.33475794 hartree =    -210.06377605 kcal/mol
 --------------------------------------------------
 SCF Energy (H0 + V/2)                       =    -646.95974617 
 Solute Internal Energy (H0)                 =    -646.62498824 
 Total Free Energy (H0 + V/2 + non-elec)     =    -646.95974617 hartree
                                             = -405973.36807925 kcal/mol
***********************************************************

 SCF time:  CPU 4415.64 s  wall 1139.63 s
 SCF   energy in the final basis set = -646.95974617
 Total energy in the final basis set = -646.95974617
 
 --------------------------------------------------------------
 
                    Orbital Energies (a.u.)
 --------------------------------------------------------------
 
 Alpha MOs
 -- Occupied --
-19.208 -19.196 -19.154 -19.145 -19.143 -19.142 -10.378 -10.346
-10.284 -10.245 -10.244  -1.184  -1.157  -1.147  -1.092  -1.053
 -0.924  -0.853  -0.846  -0.715  -0.687  -0.611  -0.585  -0.565
 -0.561  -0.555  -0.548  -0.526  -0.514  -0.504  -0.487  -0.479
 -0.474  -0.448  -0.443  -0.415  -0.398  -0.378  -0.355  -0.348
 -0.342  -0.332  -0.302  -0.269
 -- Virtual --
  0.062   0.077   0.081   0.082   0.103   0.108   0.110   0.112
  0.115   0.134   0.136   0.146   0.148   0.152   0.157   0.160
  0.165   0.168   0.180   0.195   0.200   0.202   0.204   0.209
  0.214   0.219   0.231   0.236   0.243   0.256   0.261   0.266
  0.267   0.276   0.279   0.288   0.292   0.296   0.303   0.309
  0.314   0.318   0.329   0.329   0.333   0.347   0.350   0.351
  0.357   0.361   0.363   0.369   0.375   0.378   0.388   0.389
  0.391   0.402   0.406   0.409   0.415   0.419   0.424   0.426
  0.431   0.442   0.445   0.451   0.455   0.460   0.465   0.469
  0.476   0.483   0.496   0.497   0.500   0.504   0.514   0.518
  0.523   0.529   0.535   0.536   0.546   0.547   0.550   0.553
  0.565   0.570   0.575   0.582   0.589   0.599   0.605   0.608
  0.618   0.624   0.636   0.645   0.653   0.656   0.670   0.673
  0.679   0.682   0.685   0.691   0.698   0.709   0.712   0.722
  0.734   0.736   0.739   0.745   0.761   0.769   0.776   0.778
  0.783   0.792   0.800   0.803   0.807   0.812   0.818   0.824
  0.830   0.833   0.839   0.848   0.857   0.865   0.869   0.882
  0.883   0.887   0.892   0.902   0.906   0.920   0.927   0.931
  0.947   0.951   0.960   0.971   0.980   0.994   1.005   1.011
  1.016   1.034   1.039   1.058   1.062   1.072   1.095   1.105
  1.115   1.123   1.127   1.136   1.141   1.177   1.182   1.194
  1.201   1.209   1.219   1.240   1.266   1.275   1.277   1.298
  1.314   1.323   1.340   1.351   1.360   1.364   1.367   1.380
  1.389   1.412   1.422   1.434   1.455   1.465   1.481   1.494
  1.495   1.510   1.532   1.551   1.570   1.580   1.606   1.618
  1.628   1.650   1.692   1.710   1.761   1.793   1.856   1.883
  1.895   1.909   1.916   1.926   1.939   1.951   1.957   1.963
  1.975   1.987   1.994   2.003   2.014   2.023   2.029   2.040
  2.066   2.081   2.094   2.107   2.120   2.125   2.149   2.174
  2.179   2.194   2.208   2.213   2.229   2.248   2.263   2.278
  2.288   2.311   2.342   2.362   2.364   2.374   2.408   2.441
  2.445   2.453   2.462   2.490   2.502   2.518   2.534   2.546
  2.572   2.586   2.604   2.614   2.643   2.652   2.661   2.685
  2.695   2.698   2.711   2.745   2.769   2.774   2.812   2.832
  2.856   2.873   2.895   2.900   2.932   2.953   2.964   2.981
  2.988   3.001   3.021   3.050   3.084   3.102   3.135   3.158
  3.172   3.206   3.228   3.249   3.257   3.272   3.289   3.301
  3.312   3.337   3.348   3.351   3.377   3.379   3.388   3.399
  3.428   3.436   3.452   3.465   3.469   3.487   3.490   3.505
  3.518   3.532   3.556   3.567   3.587   3.594   3.610   3.620
  3.631   3.645   3.661   3.668   3.675   3.708   3.726   3.734
  3.743   3.759   3.792   3.797   3.810   3.835   3.849   3.856
  3.895   3.912   3.927   3.936   3.988   4.029   4.093   4.106
  4.134   4.157   4.169   4.181   4.231   4.282   4.300   4.362
  4.405   4.422   4.463   4.602   4.646   4.652   4.686   4.715
  4.767   4.781   4.792   4.871   4.896   4.936   4.940   5.023
  5.054   5.087   5.152   5.199   5.278   5.321   5.337   5.360
  5.366   5.376   5.380   5.407   5.423   5.478   5.496   5.507
  5.520   5.529   5.635   5.644   5.675   5.697   5.719   5.741
  5.762   5.786   5.907   5.977   6.023   6.115   6.152   6.172
  6.214   6.252   6.310   6.325   6.332   6.366   6.491   6.564
  6.621   6.655   6.672   6.716   6.725   6.737   6.749   6.782
  6.787   6.796   6.814   6.860   6.889   6.927   6.964   6.998
  7.011   7.061   7.092   7.099   7.174   7.200   7.260   7.277
  7.298   7.334   7.370   7.379   7.397   7.424   7.442   7.540
  7.586   8.362  22.693  22.820  22.859  23.521  23.751  44.243
 44.394  44.468  44.522  44.550  44.758
 --------------------------------------------------------------
 
          Ground-State Mulliken Net Atomic Charges

     Atom                 Charge (a.u.)
  ----------------------------------------
      1 C                    -0.839697
      2 H                     0.169363
      3 H                     0.215840
      4 H                     0.251723
      5 C                     0.768677
      6 C                    -0.206469
      7 H                     0.139709
      8 H                     0.230310
      9 C                    -0.105420
     10 H                     0.236134
     11 H                     0.138012
     12 C                     0.311325
     13 O                    -0.666546
     14 O                    -0.506060
     15 H                     0.327330
     16 O                    -0.665582
     17 O                    -0.710588
     18 O                    -0.771844
     19 O                    -0.316218
  ----------------------------------------
  Sum of atomic charges =    -2.000000

 -----------------------------------------------------------------
                    Cartesian Multipole Moments
 -----------------------------------------------------------------
    Charge (ESU x 10^10)
                -9.6064
    Dipole Moment (Debye)
         X      -5.9882      Y      10.8642      Z       5.9983
       Tot      13.7793
    Quadrupole Moments (Debye-Ang)
        XX     -96.2399     XY      13.0667     YY     -98.4327
        XZ       2.5238     YZ      -0.0238     ZZ     -86.6814
    Octopole Moments (Debye-Ang^2)
       XXX    -122.7714    XXY      78.5456    XYY     -25.0000
       YYY     117.2534    XXZ      25.9538    XYZ       3.3566
       YYZ      24.9984    XZZ     -16.7900    YZZ      36.4010
       ZZZ      34.2488
    Hexadecapole Moments (Debye-Ang^3)
      XXXX   -1676.0151   XXXY     103.7355   XXYY    -457.4429
      XYYY      -9.1018   YYYY    -823.9676   XXXZ      -9.0268
      XXYZ     -28.1225   XYYZ     -36.5282   YYYZ     -22.5912
      XXZZ    -328.2801   XYZZ      -3.8994   YYZZ    -206.3132
      XZZZ     -72.0042   YZZZ      -5.7270   ZZZZ    -371.9345
 -----------------------------------------------------------------
 Calculating analytic gradient of the SCF energy
 Gradient of SCF Energy
            1           2           3           4           5           6
    1  -0.0568722  -0.0136911   0.0157724   0.0522377   0.0466695  -0.0243397
    2   0.0737295  -0.0783752   0.0000928   0.0295505  -0.0931121  -0.0067605
    3  -0.0379948  -0.0297903   0.0830559  -0.0366695   0.0355965   0.0801941
            7           8           9          10          11          12
    1   0.0278133  -0.0030542   0.0538409  -0.0426885  -0.0203622   0.0189079
    2   0.0337533  -0.0551279   0.0600253  -0.0095141  -0.0298933  -0.0624133
    3  -0.0630237  -0.0168721  -0.0506138  -0.0394348   0.0604962   0.0397358
           13          14          15          16          17          18
    1  -0.0020556   0.0247428  -0.0678097  -0.0226371  -0.0382804   0.0318889
    2  -0.0498836  -0.0202009   0.0339919   0.0566517   0.0411458   0.0227190
    3  -0.0570223  -0.0131628  -0.0235345   0.0333137   0.0392273  -0.0369479
           19
    1   0.0199173
    2   0.0536214
    3   0.0334470
 Max gradient component =       9.311E-02
 RMS gradient           =       4.417E-02
 Computing fast CPCM-ISWIG gradient
 Updating gradient with PCM contributions...
 -- total gradient after adding PCM contribution --
---------------------------------------------------
  Atom         X              Y              Z     
---------------------------------------------------
   1       0.000046       0.001122       0.000024
   2      -0.000063      -0.000514      -0.000158
   3       0.000004      -0.000030      -0.000019
   4      -0.000161      -0.000110       0.000083
   5       0.000102      -0.000192       0.000019
   6       0.000021      -0.000018       0.000019
   7       0.000009      -0.000018       0.000010
   8       0.000035      -0.000024       0.000028
   9       0.000010      -0.000035       0.000016
  10       0.000011      -0.000054       0.000021
  11       0.000019      -0.000032       0.000021
  12      -0.000013      -0.000037       0.000001
  13      -0.000009       0.000011       0.000009
  14      -0.000009       0.000019      -0.000016
  15      -0.000025      -0.000004      -0.000014
  16       0.000043      -0.000019      -0.000046
  17      -0.000019      -0.000038      -0.000001
  18      -0.000025      -0.000032      -0.000008
  19       0.000024       0.000004       0.000012
---------------------------------------------------
 Number of fixed atoms: 0
 Gradient time:  CPU 977.78 s  wall 251.76 s
 ----------------------------------------------------------------
             Standard Nuclear Orientation (Angstroms)
    I     Atom           X                Y                Z
 ----------------------------------------------------------------
    1      C      -2.8225510517    -0.2628823051    -0.5391408950
    2      H      -2.6744407054     0.7640150360    -0.2013206952
    3      H      -3.0691093246    -0.2737637464    -1.6008398496
    4      H      -3.6559984767    -0.7010305381     0.0228195327
    5      C      -1.5878305620    -1.0901187309    -0.2901253664
    6      C       0.8805362365     1.4306082457     0.4517110448
    7      H       0.3720105173     0.9456968238     1.2931224624
    8      H       1.0809145548     2.4734323490     0.7294923784
    9      C       2.1972052386     0.7187882653     0.1702449082
   10      H       2.9087330088     1.0153175470     0.9539055693
   11      H       2.6107680061     1.0569105373    -0.7842491299
   12      C       2.1735864632    -0.8118045754     0.1953276416
   13      O      -0.2167633937     0.2177507043    -1.2198616304
   14      O      -1.1326140515    -0.9424786852     0.9776298846
   15      H      -0.1637144676    -1.1880947256     1.0027857534
   16      O      -1.3055013503    -2.0840709364    -0.9648635839
   17      O       2.9160177659    -1.4153072101    -0.6139443353
   18      O       1.4688900135    -1.3849122981     1.0853070357
   19      O       0.0198615787     1.5309442429    -0.6680007254
 ----------------------------------------------------------------
 Nuclear Repulsion Energy =   670.3168651627 hartrees
 There are       44 alpha and       44 beta electrons
 Discretize the solute cavity surface with Lebedev spheres
	Using 110 Lebedev grid points for each H atom
	Using 110 Lebedev grid points for other atoms
	Atomic van der Waals radii will be scaled by 1.20
 Remove points where switching function is < 1.0e-08
 Keep 1097 surface tesserae and discard 993 interior tesserae
 Molecular Surface Area = 192.563 Angst**2
 Requested basis set is def2-TZVPD
 There are 189 shells and 497 basis functions
 A cutoff of  1.0D-14 yielded  16535 shell pairs
 There are    115953 function pairs (    148426 Cartesian)
 Smallest overlap matrix eigenvalue = 5.12E-06
 Guess MOs from SCF MO coefficient file
 Reading MOs from coefficient file
 Reading MOs from coefficient file
 Long-range K will be added via erf
 Coulomb attenuation parameter = 0.3 bohr**(-1)
 A restricted hybrid HF-DFT SCF calculation will be
 performed using Pulay DIIS extrapolation
 Polarizable Continuum solvation model will be applied
 Exchange:     0.1670 Hartree-Fock + 1.0000 wB97X-V + LR-HF
 Correlation:  1.0000 wB97X-V
 Using SG-2 standard quadrature grid
 Nonlocal Correlation:  VV10 with C = 0.0100 and b = 6.00
 Grid used for NLC:  SG-1 standard quadrature
 SCF converges when DIIS error is below 1.0E-08
Using Q-Chem read-in guess as SCF_GUESS READ specified.

 using 4 threads for integral computing
 -------------------------------------------------------
 OpenMP Integral computing Module                
 Release: version 1.0, May 2013, Q-Chem Inc. Pittsburgh 
 -------------------------------------------------------
 using 4 threads for integral computing
 -------------------------------------------------------
 OpenMP Integral computing Module                
 Release: version 1.0, May 2013, Q-Chem Inc. Pittsburgh 
 -------------------------------------------------------
 -------------------------------------------------------
 OpenMP BLAS3 based DFT computing Module                
 Release: version 1.0, May 2013, Q-Chem Inc. Pittsburgh 
 -------------------------------------------------------
 -------------------------------------------------------
 OpenMP BLAS3 based DFT computing Module                
 Release: version 1.0, May 2013, Q-Chem Inc. Pittsburgh 
 -------------------------------------------------------
 -------------------------------------------------------
 OpenMP BLAS3 based DFT computing Module                
 Release: version 1.0, May 2013, Q-Chem Inc. Pittsburgh 
 -------------------------------------------------------
 ---------------------------------------
  Cycle       Energy         DIIS Error
 ---------------------------------------
    1    -646.6243853039      5.12E-04
    2    -646.9407371148      5.89E-04
    3    -646.9545243029      2.58E-04
    4    -646.9566347571      1.88E-04
    5    -646.9578945374      1.43E-04
    6    -646.9585876848      1.13E-04
    7    -646.9591010372      8.41E-05
    8    -646.9594786327      5.41E-05
    9    -646.9596818414      2.66E-05
   10    -646.9597348394      1.13E-05
   11    -646.9597458894      2.28E-06
   12    -646.9597463498      3.51E-07
   13    -646.9597463601      6.63E-08
   14    -646.9597463605      1.45E-08
   15    -646.9597463605      1.14E-08
   16    -646.9597463605      5.83E-09 Convergence criterion met
 ---------------------------------------

************** Final PCM Free Energy Summary **************
 G_electrostatic  =      -0.33477444 hartree =    -210.07413325 kcal/mol
 G_cavitation     =       0.00000000 hartree =       0.00000000 kcal/mol
 G_dispersion     =       0.00000000 hartree =       0.00000000 kcal/mol
 G_repulsion      =       0.00000000 hartree =       0.00000000 kcal/mol
 --------------------------------------------------
 Non-electrostatic Free Energy =       0.00000000 hartree =       0.00000000 kcal/mol
 Total                         =      -0.33477444 hartree =    -210.07413325 kcal/mol
 --------------------------------------------------
 SCF Energy (H0 + V/2)                       =    -646.95974636 
 Solute Internal Energy (H0)                 =    -646.62497192 
 Total Free Energy (H0 + V/2 + non-elec)     =    -646.95974636 hartree
                                             = -405973.36819695 kcal/mol
***********************************************************

 SCF time:  CPU 4714.84 s  wall 1216.66 s
 SCF   energy in the final basis set = -646.95974636
 Total energy in the final basis set = -646.95974636
 
 --------------------------------------------------------------
 
                    Orbital Energies (a.u.)
 --------------------------------------------------------------
 
 Alpha MOs
 -- Occupied --
-19.208 -19.196 -19.154 -19.145 -19.143 -19.142 -10.378 -10.346
-10.284 -10.245 -10.244  -1.184  -1.157  -1.147  -1.092  -1.053
 -0.924  -0.853  -0.846  -0.715  -0.687  -0.611  -0.585  -0.565
 -0.561  -0.555  -0.548  -0.526  -0.514  -0.504  -0.487  -0.479
 -0.474  -0.448  -0.443  -0.415  -0.398  -0.378  -0.355  -0.348
 -0.342  -0.332  -0.302  -0.269
 -- Virtual --
  0.062   0.077   0.081   0.082   0.103   0.108   0.110   0.112
  0.115   0.134   0.135   0.146   0.148   0.152   0.157   0.160
  0.165   0.168   0.180   0.195   0.200   0.202   0.204   0.209
  0.214   0.219   0.231   0.236   0.243   0.256   0.261   0.266
  0.267   0.276   0.279   0.288   0.292   0.296   0.302   0.309
  0.314   0.318   0.329   0.329   0.333   0.347   0.350   0.351
  0.357   0.361   0.364   0.369   0.375   0.378   0.388   0.389
  0.391   0.402   0.406   0.409   0.415   0.419   0.424   0.426
  0.431   0.442   0.445   0.451   0.455   0.460   0.465   0.469
  0.476   0.483   0.496   0.497   0.500   0.504   0.514   0.518
  0.523   0.529   0.535   0.536   0.546   0.547   0.550   0.553
  0.565   0.570   0.575   0.582   0.589   0.599   0.605   0.608
  0.618   0.624   0.636   0.645   0.653   0.656   0.670   0.673
  0.679   0.682   0.685   0.691   0.698   0.709   0.712   0.722
  0.734   0.736   0.739   0.745   0.761   0.769   0.776   0.778
  0.783   0.792   0.800   0.803   0.807   0.812   0.818   0.824
  0.830   0.833   0.839   0.848   0.857   0.865   0.869   0.882
  0.883   0.887   0.892   0.902   0.906   0.920   0.927   0.931
  0.947   0.951   0.961   0.972   0.980   0.994   1.005   1.011
  1.017   1.034   1.039   1.058   1.062   1.072   1.095   1.105
  1.115   1.123   1.127   1.136   1.141   1.177   1.182   1.194
  1.201   1.209   1.219   1.240   1.266   1.275   1.277   1.298
  1.314   1.323   1.340   1.351   1.360   1.364   1.367   1.380
  1.389   1.412   1.422   1.434   1.455   1.465   1.481   1.494
  1.495   1.510   1.532   1.551   1.570   1.580   1.606   1.619
  1.628   1.649   1.692   1.710   1.761   1.793   1.856   1.883
  1.895   1.909   1.916   1.926   1.939   1.951   1.957   1.963
  1.975   1.987   1.994   2.003   2.014   2.023   2.029   2.040
  2.065   2.081   2.094   2.107   2.120   2.125   2.149   2.174
  2.179   2.194   2.208   2.213   2.229   2.248   2.264   2.278
  2.288   2.311   2.342   2.362   2.364   2.374   2.408   2.441
  2.445   2.452   2.462   2.490   2.502   2.518   2.534   2.546
  2.572   2.586   2.604   2.614   2.643   2.652   2.662   2.685
  2.694   2.698   2.711   2.745   2.769   2.774   2.812   2.832
  2.856   2.873   2.895   2.900   2.932   2.953   2.964   2.981
  2.988   3.001   3.021   3.050   3.084   3.102   3.135   3.158
  3.172   3.206   3.228   3.249   3.257   3.273   3.289   3.301
  3.312   3.337   3.348   3.351   3.378   3.379   3.388   3.399
  3.428   3.436   3.451   3.465   3.469   3.487   3.490   3.505
  3.518   3.532   3.556   3.567   3.587   3.594   3.610   3.620
  3.631   3.645   3.662   3.668   3.675   3.708   3.726   3.734
  3.743   3.760   3.792   3.797   3.810   3.835   3.849   3.856
  3.895   3.913   3.927   3.936   3.988   4.029   4.093   4.106
  4.134   4.157   4.170   4.182   4.231   4.282   4.300   4.362
  4.405   4.423   4.463   4.602   4.646   4.652   4.686   4.714
  4.767   4.781   4.792   4.871   4.896   4.936   4.940   5.023
  5.054   5.086   5.152   5.199   5.278   5.322   5.337   5.360
  5.366   5.376   5.380   5.407   5.423   5.478   5.496   5.507
  5.520   5.529   5.635   5.644   5.675   5.697   5.719   5.741
  5.762   5.786   5.907   5.977   6.023   6.115   6.152   6.172
  6.214   6.252   6.310   6.325   6.332   6.366   6.491   6.564
  6.621   6.655   6.672   6.716   6.725   6.737   6.749   6.782
  6.787   6.796   6.814   6.860   6.889   6.927   6.964   6.998
  7.011   7.061   7.092   7.099   7.174   7.200   7.260   7.277
  7.298   7.334   7.371   7.379   7.397   7.425   7.442   7.540
  7.586   8.362  22.693  22.820  22.859  23.522  23.751  44.243
 44.394  44.468  44.522  44.550  44.758
 --------------------------------------------------------------
 
          Ground-State Mulliken Net Atomic Charges

     Atom                 Charge (a.u.)
  ----------------------------------------
      1 C                    -0.840289
      2 H                     0.168484
      3 H                     0.215973
      4 H                     0.252043
      5 C                     0.769619
      6 C                    -0.206481
      7 H                     0.139736
      8 H                     0.230302
      9 C                    -0.105398
     10 H                     0.236130
     11 H                     0.138010
     12 C                     0.311317
     13 O                    -0.666469
     14 O                    -0.506017
     15 H                     0.327317
     16 O                    -0.665664
     17 O                    -0.710584
     18 O                    -0.771837
[...]
 Red. Mass:       2.5273                 3.6165                 1.2431
 IR Active:          YES                    YES                    YES
 IR Intens:       36.097                 50.659                 23.535
 Raman Active:       YES                    YES                    YES
               X      Y      Z        X      Y      Z        X      Y      Z
 C          0.007  0.008 -0.009    0.012  0.011  0.003   -0.003 -0.001 -0.004
 H         -0.035  0.005  0.016   -0.054  0.020  0.000   -0.003 -0.002  0.003
 H         -0.041  0.001  0.003    0.004 -0.041  0.006   -0.017  0.017 -0.001
 H          0.039 -0.031  0.014    0.033 -0.042 -0.005   -0.005  0.012  0.004
 C         -0.010 -0.008  0.009   -0.022 -0.008 -0.002    0.011 -0.002  0.010
 C         -0.060 -0.084  0.200    0.309  0.007  0.098    0.021  0.023 -0.094
 H         -0.127  0.324  0.377    0.312 -0.357 -0.134   -0.298 -0.011 -0.318
 H          0.276 -0.029 -0.246    0.268 -0.085  0.397   -0.010 -0.004  0.030
 C          0.124  0.005 -0.169   -0.181  0.043  0.067   -0.019 -0.001  0.002
 H          0.035 -0.355  0.066   -0.171  0.124  0.027    0.306 -0.546 -0.082
 H          0.221  0.527  0.060   -0.359  0.334  0.094   -0.281  0.552  0.078
 C          0.053  0.011  0.040    0.033 -0.018  0.024    0.061  0.003  0.033
 O          0.014  0.029  0.024    0.012  0.080  0.034   -0.001 -0.003 -0.005
 O          0.001  0.003  0.002    0.003  0.003  0.007   -0.003  0.000 -0.006
 H         -0.007 -0.059 -0.007    0.003  0.021 -0.067    0.001 -0.003  0.021
 O          0.002 -0.002 -0.004    0.005 -0.004 -0.004   -0.002  0.002  0.000
 O         -0.024  0.031  0.009    0.000 -0.018 -0.013   -0.019  0.010  0.004
 O         -0.038 -0.043  0.029   -0.007  0.007 -0.006   -0.017 -0.012  0.005
 O         -0.062  0.008 -0.131   -0.130 -0.091 -0.180    0.007 -0.014  0.058
 TransDip   0.176  0.045  0.064    0.175 -0.009  0.145    0.113 -0.032 -0.102

 Mode:                31                     32                     33
 Frequency:      1236.52                1291.65                1338.18
 Force Cnst:      2.4480                 1.2313                 1.6720
 Red. Mass:       2.7174                 1.2527                 1.5847
 IR Active:          YES                    YES                    YES
 IR Intens:      447.369                  9.373                 43.054
 Raman Active:       YES                    YES                    YES
               X      Y      Z        X      Y      Z        X      Y      Z
 C         -0.037 -0.009 -0.089    0.000  0.000  0.000   -0.004  0.002  0.003
 H         -0.149 -0.042  0.111    0.002 -0.000 -0.001    0.030 -0.001 -0.003
 H         -0.435  0.351 -0.003    0.002 -0.001 -0.000    0.030 -0.020 -0.005
 H         -0.065  0.245  0.091    0.001 -0.001  0.000    0.013 -0.027  0.002
 C          0.200 -0.064  0.233   -0.001  0.002 -0.001   -0.008  0.004 -0.012
 C          0.005  0.001  0.007    0.015 -0.073 -0.016   -0.033 -0.021 -0.010
 H          0.082 -0.000  0.058    0.548 -0.079  0.318   -0.100  0.002 -0.047
 H          0.007 -0.018  0.072   -0.449  0.106 -0.358    0.576 -0.183  0.137
 C         -0.008 -0.004  0.006   -0.063  0.059  0.037   -0.069  0.140  0.022
 H         -0.015  0.018  0.004    0.195 -0.422 -0.013    0.253 -0.386 -0.068
 H          0.014 -0.069 -0.006   -0.077 -0.087 -0.014    0.297 -0.495 -0.040
 C          0.015  0.024 -0.015    0.022 -0.002  0.025    0.015  0.101  0.001
 O         -0.008  0.001  0.005    0.005 -0.013  0.006   -0.001  0.008  0.001
 O         -0.050 -0.028 -0.162    0.001  0.000  0.002    0.002 -0.000  0.004
 H          0.023  0.184  0.616   -0.005 -0.008 -0.016    0.012 -0.002  0.026
 O         -0.036  0.047  0.008    0.000 -0.002 -0.001    0.001 -0.001  0.001
 O          0.003 -0.006 -0.005    0.002 -0.009 -0.011    0.041 -0.048 -0.050
 O          0.002 -0.008  0.005   -0.003  0.004 -0.005   -0.037 -0.032  0.042
 O         -0.009 -0.008 -0.017    0.000  0.062 -0.020   -0.003 -0.025 -0.003
 TransDip   0.348 -0.015  0.581   -0.005 -0.089  0.040    0.010  0.203 -0.053

 Mode:                34                     35                     36
 Frequency:      1379.59                1404.38                1421.65
 Force Cnst:      1.3778                 1.7075                 1.8380
 Red. Mass:       1.2287                 1.4694                 1.5435
 IR Active:          YES                    YES                    YES
 IR Intens:       44.276                 68.178                153.491
 Raman Active:       YES                    YES                    YES
               X      Y      Z        X      Y      Z        X      Y      Z
 C         -0.106  0.074 -0.020    0.002 -0.005  0.004    0.090 -0.023  0.040
 H          0.473 -0.051  0.080   -0.012  0.004 -0.017   -0.099  0.041 -0.101
 H          0.331 -0.237 -0.113    0.008  0.020  0.001   -0.368 -0.056  0.138
 H          0.288 -0.439  0.149   -0.009  0.017  0.002   -0.232  0.042 -0.382
 C         -0.020 -0.012 -0.007    0.004  0.008 -0.004   -0.093 -0.032 -0.129
 C         -0.002  0.004 -0.002   -0.138  0.079 -0.056   -0.009  0.003 -0.003
 H          0.043 -0.004  0.022    0.666 -0.295  0.237    0.046 -0.015  0.020
 H         -0.024  0.003  0.020    0.422 -0.109  0.233    0.029 -0.009  0.017
 C          0.005 -0.015 -0.000    0.047 -0.073  0.027    0.002 -0.001 -0.001
 H         -0.011  0.016  0.003    0.061  0.014 -0.020    0.016 -0.007 -0.010
 H         -0.031  0.043  0.005   -0.216  0.262  0.025   -0.003  0.043  0.011
 C          0.002  0.010  0.000    0.020  0.038 -0.030   -0.013 -0.011  0.021
 O         -0.001 -0.001  0.003   -0.002  0.006  0.000   -0.001 -0.003  0.005
 O          0.021 -0.012 -0.026   -0.004  0.002  0.008    0.049 -0.016 -0.007
 H          0.022  0.071  0.509    0.004 -0.019 -0.081    0.018  0.082  0.748
 O          0.003  0.010  0.009    0.000 -0.006 -0.003   -0.002  0.053  0.050
 O          0.002 -0.002 -0.003   -0.003  0.003  0.006    0.003 -0.001 -0.005
 O         -0.003 -0.002 -0.001   -0.015 -0.016  0.021    0.003  0.008 -0.015
 O         -0.000 -0.001 -0.003    0.015 -0.018 -0.012    0.000 -0.001 -0.001
 TransDip   0.090 -0.104  0.163   -0.038  0.107 -0.239   -0.307 -0.232 -0.096

 Mode:                37                     38                     39
 Frequency:      1432.50                1438.27                1456.03
 Force Cnst:      1.8848                 2.5620                 1.3832
 Red. Mass:       1.5589                 2.1020                 1.1074
 IR Active:          YES                    YES                    YES
 IR Intens:       99.936                317.861                 29.699
 Raman Active:       YES                    YES                    YES
               X      Y      Z        X      Y      Z        X      Y      Z
 C         -0.010  0.004 -0.006    0.011 -0.005  0.007    0.011 -0.035 -0.038
 H          0.008 -0.005  0.016   -0.003  0.006 -0.022   -0.436 -0.065  0.279
 H          0.031 -0.001 -0.014   -0.036  0.001  0.017    0.410  0.034 -0.117
 H          0.023 -0.005  0.036   -0.026 -0.001 -0.044    0.115  0.450  0.499
 C          0.010 -0.005  0.010   -0.012  0.008 -0.010   -0.056  0.009 -0.047
 C         -0.028 -0.013 -0.018    0.038 -0.000  0.026   -0.000  0.001  0.001
 H          0.089  0.033  0.087   -0.027 -0.098 -0.081    0.005 -0.009 -0.002
 H          0.152 -0.077  0.090   -0.290  0.123 -0.231   -0.005  0.004 -0.007
 C         -0.074  0.028  0.014   -0.061 -0.124  0.016    0.001 -0.004 -0.001
 H          0.427  0.181 -0.480    0.240  0.378 -0.439   -0.000  0.003 -0.002
 H          0.556  0.191  0.325    0.405  0.243  0.340   -0.003  0.014  0.004
 C         -0.028 -0.156  0.034    0.046  0.204 -0.082   -0.004  0.007  0.006
 O          0.001  0.003  0.001   -0.001 -0.005 -0.001    0.000 -0.001  0.001
 O         -0.001 -0.001 -0.004   -0.001  0.001  0.005    0.020 -0.005  0.000
 H         -0.017  0.016 -0.014    0.028 -0.016  0.005    0.010  0.034  0.266
 O         -0.001  0.001 -0.001    0.002 -0.002 -0.000    0.008 -0.004  0.005
 O         -0.032  0.040  0.034    0.031 -0.044 -0.031    0.004 -0.003 -0.004
 O          0.046  0.048 -0.056   -0.064 -0.068  0.085   -0.002 -0.000 -0.002
 O          0.005 -0.005 -0.002   -0.002  0.015  0.003    0.000  0.001  0.000
 TransDip  -0.026 -0.298  0.114    0.290  0.433 -0.233   -0.128  0.088  0.079

 Mode:                40                     41                     42
 Frequency:      1468.32                1485.48                1578.94
 Force Cnst:      1.3458                 1.4509                12.7837
 Red. Mass:       1.0594                 1.1160                 8.7032
 IR Active:          YES                    YES                    YES
 IR Intens:        5.346                 24.625               1127.529
 Raman Active:       YES                    YES                    YES
               X      Y      Z        X      Y      Z        X      Y      Z
 C         -0.010 -0.045  0.035    0.004 -0.003  0.002   -0.022  0.016 -0.007
 H         -0.082  0.188 -0.623   -0.005 -0.002  0.003    0.013  0.003  0.021
 H          0.180  0.647 -0.022   -0.005 -0.004  0.004    0.011 -0.017 -0.015
 H          0.188 -0.211  0.169   -0.008  0.010 -0.007    0.005 -0.011  0.015
 C         -0.020 -0.023 -0.011   -0.008  0.010 -0.005    0.068 -0.059  0.007
 C          0.002 -0.001  0.000    0.026 -0.036 -0.072   -0.016  0.004 -0.003
 H         -0.005  0.009  0.002    0.036  0.613  0.336    0.050 -0.079 -0.004
 H         -0.009  0.000  0.004   -0.269 -0.150  0.632    0.014  0.003 -0.055
 C         -0.000  0.000 -0.001   -0.001 -0.011 -0.001    0.046 -0.075 -0.040
 H         -0.001  0.000 -0.000    0.012 -0.004 -0.021    0.042  0.035 -0.072
 H          0.001  0.002  0.001   -0.007  0.037  0.015   -0.043  0.464  0.139
 C         -0.002 -0.000  0.003    0.003  0.036 -0.003   -0.444  0.187  0.502
 O         -0.001 -0.001  0.001    0.001  0.003  0.002   -0.002  0.001 -0.002
 O          0.006 -0.000 -0.000    0.002  0.001  0.006   -0.001 -0.001 -0.002
 H          0.004  0.013  0.073   -0.008 -0.047 -0.017   -0.098  0.105 -0.271
 O         -0.001  0.012  0.007    0.002 -0.006 -0.002   -0.016  0.030  0.015
 O          0.001 -0.001 -0.001    0.007 -0.010 -0.008    0.206 -0.165 -0.226
 O          0.000  0.001 -0.001   -0.010 -0.010  0.012    0.090  0.047 -0.112
 O         -0.001 -0.001 -0.001   -0.004 -0.005 -0.009    0.000  0.001 -0.000
 TransDip  -0.010 -0.026 -0.069   -0.037  0.154  0.013   -0.782  0.170  0.719

 Mode:                43                     44                     45
 Frequency:      1650.46                3035.78                3048.88
 Force Cnst:     11.7993                 5.7674                 5.8214
 Red. Mass:       7.3518                 1.0622                 1.0629
 IR Active:          YES                    YES                    YES
 IR Intens:      895.088                 48.617                107.487
 Raman Active:       YES                    YES                    YES
               X      Y      Z        X      Y      Z        X      Y      Z
 C          0.077 -0.068 -0.006   -0.001 -0.000  0.000   -0.003  0.000  0.001
 H          0.147 -0.043 -0.110   -0.001 -0.005 -0.001   -0.004 -0.021 -0.007
 H         -0.246  0.174  0.089    0.001 -0.000  0.005    0.004  0.000  0.022
 H          0.003 -0.068 -0.134    0.009  0.005 -0.006    0.039  0.021 -0.027
 C         -0.273  0.472  0.291    0.000  0.000 -0.000    0.000  0.000  0.000
 C         -0.007  0.004  0.001    0.006 -0.036 -0.035    0.012 -0.024 -0.037
 H         -0.001 -0.058 -0.034   -0.184 -0.184  0.286   -0.215 -0.208  0.332
 H          0.030  0.003 -0.040    0.124  0.607  0.154    0.095  0.474  0.120
 C          0.005 -0.003 -0.004    0.039  0.020  0.020   -0.045 -0.023 -0.017
 H          0.007 -0.000 -0.006   -0.398 -0.171 -0.449    0.435  0.182  0.482
 H         -0.002  0.041  0.012   -0.075 -0.062  0.198    0.105  0.087 -0.266
 C         -0.049  0.001  0.060    0.001 -0.000  0.000   -0.001  0.002 -0.000
 O          0.013  0.003 -0.010   -0.000  0.000  0.000   -0.000  0.000  0.000
 O          0.027 -0.032 -0.036    0.000  0.000  0.000    0.001 -0.000  0.000
 H          0.093  0.125  0.530    0.001  0.000  0.000   -0.015  0.006 -0.001
 O          0.100 -0.284 -0.188   -0.000 -0.000 -0.000   -0.000 -0.000 -0.000
 O          0.019 -0.014 -0.022   -0.000 -0.000  0.000    0.000 -0.000 -0.000
 O          0.021  0.011 -0.022   -0.000  0.000  0.000   -0.000 -0.000  0.000
 O          0.002 -0.000  0.003   -0.001 -0.000 -0.001   -0.001 -0.000 -0.001
 TransDip  -0.149  0.758  0.568    0.092 -0.147 -0.141   -0.159 -0.200 -0.212

 Mode:                46                     47                     48
 Frequency:      3055.41                3084.36                3110.84
 Force Cnst:      5.7444                 6.1821                 6.2398
 Red. Mass:       1.0444                 1.1030                 1.0944
 IR Active:          YES                    YES                    YES
 IR Intens:       27.563                 36.036                274.957
 Raman Active:       YES                    YES                    YES
               X      Y      Z        X      Y      Z        X      Y      Z
 C         -0.056  0.003  0.014    0.000  0.000 -0.000    0.000 -0.001  0.003
 H         -0.063 -0.354 -0.112   -0.000 -0.000 -0.000    0.000  0.003  0.002
 H          0.073  0.002  0.367   -0.000 -0.000 -0.001   -0.003 -0.002 -0.020
 H          0.638  0.340 -0.433   -0.003 -0.001  0.002    0.007  0.004 -0.004
 C          0.002 -0.002  0.001   -0.000  0.000 -0.000   -0.001 -0.000 -0.003
 C         -0.001  0.002  0.003    0.040  0.073 -0.036    0.007  0.012 -0.010
 H          0.014  0.014 -0.022   -0.381 -0.351  0.594   -0.082 -0.075  0.126
 H         -0.008 -0.038 -0.010   -0.101 -0.542 -0.147   -0.011 -0.067 -0.017
 C          0.002  0.001  0.001    0.004  0.000  0.019    0.010  0.016 -0.081
 H         -0.021 -0.009 -0.023   -0.100 -0.045 -0.110    0.212  0.093  0.222
 H         -0.005 -0.004  0.013    0.054  0.046 -0.122   -0.329 -0.261  0.759
 C          0.000 -0.000 -0.000    0.001  0.000 -0.000   -0.001 -0.003  0.001
 O         -0.000  0.000  0.000   -0.000 -0.001  0.000   -0.000 -0.000  0.000
 O         -0.000  0.000 -0.000    0.001  0.000  0.000   -0.020  0.006 -0.000
 H          0.004 -0.001 -0.002   -0.004 -0.001  0.001    0.309 -0.090  0.013
 O         -0.000  0.000 -0.000    0.000 -0.000  0.000   -0.000  0.001  0.001
 O         -0.000  0.000  0.000   -0.000 -0.000  0.000    0.000 -0.000 -0.001
 O         -0.000 -0.000 -0.000   -0.000  0.000  0.000    0.002  0.001 -0.001
 O          0.000 -0.000 -0.000   -0.001  0.001 -0.001   -0.000 -0.000  0.000
 TransDip  -0.154 -0.020  0.064    0.057  0.147 -0.110    0.504  0.030 -0.166

 Mode:                49                     50                     51
 Frequency:      3120.18                3138.86                3177.35
 Force Cnst:      6.1863                 6.3314                 6.5752
 Red. Mass:       1.0785                 1.0907                 1.1054
 IR Active:          YES                    YES                    YES
 IR Intens:     1646.659                 34.702                 25.837
 Raman Active:       YES                    YES                    YES
               X      Y      Z        X      Y      Z        X      Y      Z
 C         -0.000 -0.003  0.009   -0.026 -0.065  0.051   -0.020 -0.053 -0.075
 H          0.002  0.015  0.007    0.083  0.585  0.205    0.096  0.646  0.205
 H         -0.012 -0.005 -0.072   -0.135 -0.017 -0.564    0.158  0.002  0.704
 H          0.026  0.015 -0.017    0.391  0.198 -0.259   -0.014 -0.013 -0.004
 C         -0.002 -0.001 -0.010   -0.002 -0.000  0.001   -0.000 -0.002 -0.002
 C         -0.002 -0.004  0.003    0.000  0.000 -0.000    0.000  0.000 -0.000
 H          0.024  0.020 -0.033   -0.001 -0.001  0.001   -0.000 -0.000  0.001
 H          0.003  0.029  0.007   -0.000 -0.002 -0.001   -0.000 -0.000 -0.000
 C         -0.004 -0.005  0.027    0.000  0.000 -0.000   -0.000 -0.000  0.000
 H         -0.063 -0.026 -0.067    0.000 -0.000  0.000   -0.000 -0.000 -0.000
 H          0.112  0.093 -0.260   -0.002 -0.002  0.005    0.001  0.001 -0.002
 C         -0.007 -0.003  0.010    0.000  0.000 -0.001   -0.000 -0.000  0.000
 O         -0.001 -0.000  0.001   -0.000  0.000 -0.000   -0.000 -0.000  0.000
 O         -0.059  0.016 -0.000    0.005 -0.001 -0.000   -0.003  0.001  0.000
 H          0.905 -0.259  0.038   -0.072  0.021 -0.003    0.045 -0.012  0.002
 O         -0.000  0.002  0.003    0.000 -0.000 -0.000   -0.000  0.001  0.001
 O          0.002 -0.001 -0.004   -0.000  0.000  0.000    0.000 -0.000 -0.000
 O          0.006  0.003 -0.003   -0.000 -0.000  0.000    0.000  0.000 -0.000
 O         -0.000 -0.000 -0.000    0.000  0.000  0.000    0.000  0.000  0.000
 TransDip   1.263 -0.194  0.237   -0.135 -0.105  0.080    0.046 -0.092 -0.126

 STANDARD THERMODYNAMIC QUANTITIES AT   298.15 K  AND     1.00 ATM

   This Molecule has  1 Imaginary Frequencies
   Zero point vibrational energy:       86.166 kcal/mol

   Atom    1 Element C  Has Mass   12.00000
   Atom    2 Element H  Has Mass    1.00783
   Atom    3 Element H  Has Mass    1.00783
   Atom    4 Element H  Has Mass    1.00783
   Atom    5 Element C  Has Mass   12.00000
   Atom    6 Element C  Has Mass   12.00000
   Atom    7 Element H  Has Mass    1.00783
   Atom    8 Element H  Has Mass    1.00783
   Atom    9 Element C  Has Mass   12.00000
   Atom   10 Element H  Has Mass    1.00783
   Atom   11 Element H  Has Mass    1.00783
   Atom   12 Element C  Has Mass   12.00000
   Atom   13 Element O  Has Mass   15.99491
   Atom   14 Element O  Has Mass   15.99491
   Atom   15 Element H  Has Mass    1.00783
   Atom   16 Element O  Has Mass   15.99491
   Atom   17 Element O  Has Mass   15.99491
   Atom   18 Element O  Has Mass   15.99491
   Atom   19 Element O  Has Mass   15.99491
   Molecular Mass:   164.032100 amu
   Principal axes and moments of inertia in amu*Bohr^2:
                             1           2           3
    Eigenvalues --     1129.87974  2172.26545  2652.99873
          X               0.98792    -0.08256    -0.13111
          Y               0.09248     0.99314     0.07149
          Z               0.12431    -0.08275     0.98879
   Rotational Symmetry Number is   1
   The Molecule is an Asymmetric Top
   Translational Enthalpy:        0.889 kcal/mol
   Rotational Enthalpy:           0.889 kcal/mol
   Vibrational Enthalpy:         91.421 kcal/mol
   gas constant (RT):             0.592 kcal/mol
   Translational Entropy:        41.193  cal/mol.K
   Rotational Entropy:           30.255  cal/mol.K
   Vibrational Entropy:          32.986  cal/mol.K

   Total Enthalpy:               93.791 kcal/mol
   Total Entropy:               104.434  cal/mol.K
Archival summary:
1\1\c5-83\FREQ\ProcedureUnspecified\BasisUnspecified\658(2-,1)\alotsuki\WedMay218:11:202018WedMay218:11:202018\0\\#,FREQ,ProcedureUnspecified,BasisUnspecified,\\-2,1\O\O,1,1.44396\C,2,1.41583,1,109.72\H,3,1.09623,2,110.878,1,-69.696,0\H,3,1.09763,2,104.11,1,174.28,0\C,3,1.523,2,114.362,1,54.8906,0\H,6,1.09381,3,110.1,2,43.167,0\H,6,1.09924,3,107.564,2,159.539,0\C,6,1.53098,3,116.801,2,-82.1134,0\O,9,1.25313,6,117.5,3,144.986,0\O,9,1.27166,6,118.072,3,-39.2412,0\H,11,1.64649,9,117.421,6,65.7448,0\O,12,0.999863,11,172.517,9,-65.5056,0\C,13,1.35507,12,108.802,11,112.614,0\O,14,1.23407,13,121.495,12,44.6567,0\C,14,1.50749,13,111.705,12,-157.679,0\H,16,1.09002,14,109.887,13,170.872,0\H,16,1.09019,14,110.766,13,49.0656,0\H,16,1.09694,14,108.526,13,-70.2329,0\\\@

 Total job time:  171414.27s(wall), 664066.81s(cpu) 
 Wed May  2 18:11:20 2018

        *************************************************************
        *                                                           *
        *  Thank you very much for using Q-Chem.  Have a nice day.  *
        *                                                           *
        *************************************************************


