19   
From 1-reactant-freq.out: Frame 1 / 115, Energy=    -646.9608915164
C       -2.7859741368    0.7696569808   -1.3024025191
H       -2.3862205117    1.7848778425   -1.3859793445
H       -3.8566394477    0.8180680462   -1.1092186271
H       -2.5876507989    0.2518603495   -2.2425477714
C       -2.0920828049    0.0771747161   -0.1639020006
C       -0.0188016476   -0.8628497413    0.5481107427
H        0.7520714279   -1.4049346934    0.0010636319
H       -0.6312084362   -1.5641826593    1.1176791287
C        0.5911649728    0.1961513276    1.4461865978
H        1.2505544620   -0.3147883200    2.1581974373
C        1.4334159513    1.2219591073    0.6702950346
O       -2.5908307548   -0.1467321585    0.9189108023
O       -0.8368787440   -0.2540796489   -0.4824579414
O        2.3061161476    0.7674735331   -0.1205239235
O        1.2071501536    2.4368085068    0.8828579315
H       -0.1860744559    0.7110832716    2.0151022177
O        3.4524678038   -2.4254842056    0.7276387021
O        3.2427632421   -1.8383931450   -0.6061320958
H        2.8873007912   -0.9543368907   -0.3926621835
