
Running Job 1 of 1 qc-freq2.in
qchem qc-freq2.in_28365.0 /scratch/leeping/1862749/qc-freq2.d/ 1
/home/leeping/opt/qchem/5.0.2-openmp/exe/qcprog.exe_s qc-freq2.in_28365.0 /scratch/leeping/1862749/qc-freq2.d/
Check license passed

                  Welcome to Q-Chem
     A Quantum Leap Into The Future Of Chemistry


 Q-Chem 5.0, Q-Chem, Inc., Pleasanton, CA (2017)

 Yihan Shao,  Zhengting Gan,  E. Epifanovsky,  A. T. B. Gilbert,  M. Wormit,  
 J. Kussmann,  A. W. Lange,  A. Behn,  Jia Deng,  Xintian Feng,  D. Ghosh,  
 M. Goldey,  P. R. Horn,  L. D. Jacobson,  I. Kaliman,  T. Kus,  A. Landau,  
 Jie Liu,  E. I. Proynov,  R. M. Richard,  R. P. Steele,  E. J. Sundstrom,  
 H. L. Woodcock III,  P. M. Zimmerman,  D. Zuev,  B. Albrecht,  E. Alguire,  
 S. A. Baeppler,  D. Barton,  Z. Benda,  Y. A. Bernard,  E. J. Berquist,  
 K. B. Bravaya,  H. Burton,  D. Casanova,  Chun-Min Chang,  Yunqing Chen,  
 A. Chien,  K. D. Closser,  M. P. Coons,  S. Dasgupta,  A. L. Dempwolff,  
 M. Diedenhofen,  Hainam Do,  R. G. Edgar,  Po-Tung Fang,  S. Fatehi,  
 Qingguo Feng,  J. Fosso-Tande,  Qinghui Ge,  A. Ghysels,  G. Gidofalvi,  
 J. Gomes,  J. Gonthier,  A. Gunina,  M. W. D. Hanson-Heine,  
 P. H. P. Harbach,  A. W. Hauser,  J. E. Herr,  E. G. Hohenstein,  
 Z. C. Holden,  Kerwin Hui,  T.-C. Jagau,  Hyunjun Ji,  B. Kaduk,  
 K. Khistyaev,  Jaehoon Kim,  P. Klunzinger,  K. Koh,  D. Kosenkov,  
 L. Koulias,  T. Kowalczyk,  C. M. Krauter,  A. Kunitsa,  Ka Un Lao,  
 A. Laurent,  K. V. Lawler,  Joonho Lee,  D. Lefrancois,  S. Lehtola,  
 D. S. Levine,  Yi-Pei Li,  You-Sheng Lin,  Fenglai Liu,  E. Livshits,  
 A. Luenser,  P. Manohar,  E. Mansoor,  S. F. Manzer,  Shan-Ping Mao,  
 Yuezhi Mao,  N. Mardirossian,  A. V. Marenich,  T. Markovich,  
 L. A. Martinez-Martinez,  S. A. Maurer,  N. J. Mayhall,  S. C. McKenzie,  
 J.-M. Mewes,  A. F. Morrison,  J. W. Mullinax,  K. Nanda,  
 T. S. Nguyen-Beck,  R. Olivares-Amaya,  J. A. Parkhill,  T. M. Perrine,  
 F. Plasser,  S. Prager,  A. Prociuk,  E. Ramos,  D. R. Rehn,  F. Rob,  
 M. Schneider,  N. Sergueev,  S. M. Sharada,  S. Sharma,  D. W. Small,  
 T. Stauch,  T. Stein,  Yu-Chuan Su,  A. J. W. Thom,  A. Tkatchenko,  
 T. Tsuchimochi,  L. Vogt,  O. Vydrov,  M. A. Watson,  J. Wenzel,  
 M. de Wergifosse,  T. A. Wesolowski,  A. White,  J. Witte,  A. Yamada,  
 Jun Yang,  K. Yao,  S. Yeganeh,  S. R. Yost,  Zhi-Qiang You,  A. Zech,  
 Igor Ying Zhang,  Xing Zhang,  Yan Zhao,  Ying Zhu,  B. R. Brooks,  
 G. K. L. Chan,  C. J. Cramer,  M. S. Gordon,  W. J. Hehre,  A. Klamt,  
 M. W. Schmidt,  C. D. Sherrill,  D. G. Truhlar,  A. Aspuru-Guzik,  R. Baer,  
 A. T. Bell,  N. A. Besley,  Jeng-Da Chai,  R. A. DiStasio Jr.,  A. Dreuw,  
 B. D. Dunietz,  T. R. Furlani,  Chao-Ping Hsu,  Yousung Jung,  Jing Kong,  
 D. S. Lambrecht,  WanZhen Liang,  C. Ochsenfeld,  V. A. Rassolov,  
 L. V. Slipchenko,  J. E. Subotnik,  T. Van Voorhis,  J. M. Herbert,  
 A. I. Krylov,  P. M. W. Gill,  M. Head-Gordon

 Contributors to earlier versions of Q-Chem not listed above: 
 R. D. Adamson,  B. Austin,  J. Baker,  G. J. O. Beran,  K. Brandhorst,  
 S. T. Brown,  E. F. C. Byrd,  A. K. Chakraborty,  C.-L. Cheng,  
 Siu Hung Chien,  D. M. Chipman,  D. L. Crittenden,  H. Dachsel,  
 R. J. Doerksen,  A. D. Dutoi,  L. Fusti-Molnar,  W. A. Goddard III,  
 A. Golubeva-Zadorozhnaya,  S. R. Gwaltney,  G. Hawkins,  A. Heyden,  
 S. Hirata,  G. Kedziora,  F. J. Keil,  C. Kelley,  Jihan Kim,  R. A. King,  
 R. Z. Khaliullin,  P. P. Korambath,  W. Kurlancheek,  A. M. Lee,  M. S. Lee,  
 S. V. Levchenko,  Ching Yeh Lin,  D. Liotard,  R. C. Lochan,  I. Lotan,  
 P. E. Maslen,  N. Nair,  D. P. O'Neill,  D. Neuhauser,  E. Neuscamman,  
 C. M. Oana,  R. Olson,  B. Peters,  R. Peverati,  P. A. Pieniazek,  
 Y. M. Rhee,  J. Ritchie,  M. A. Rohrdanz,  E. Rosta,  N. J. Russ,  
 H. F. Schaefer III,  N. E. Schultz,  N. Shenvi,  A. C. Simmonett,  A. Sodt,  
 D. Stuck,  K. S. Thanthiriwatte,  V. Vanovschi,  Tao Wang,  A. Warshel,  
 C. F. Williams,  Q. Wu,  X. Xu,  W. Zhang

 Please cite Q-Chem as follows:
 Y. Shao et al., Mol. Phys. 113, 184-215 (2015)
 DOI: 10.1080/00268976.2014.952696

 Q-Chem 5.0.2 for Intel X86 EM64T Linux

 Parts of Q-Chem use Armadillo 5.200.1 (Boston Tea Smuggler).
 http://arma.sourceforge.net/

 Q-Chem begins on Fri Mar 20 22:51:02 2020  

Host: 
0

     Scratch files written to /scratch/leeping/1862749/qc-freq2.d//
 Dec517 15110_ 26548  26544 5633   
Processing $rem in /home/leeping/opt/qchem/5.0.2-openmp/config/preferences.
 MEM_STATIC 2000
 MEM_TOTAL  8000
 SYMMETRY   OFF
 SYM_IGNORE TRUE 
Symmetry turned off for PCM/SM12/SMD calculation

Checking the input file for inconsistencies... 	...done.

--------------------------------------------------------------
User input:
--------------------------------------------------------------
$molecule
-2 1
C       -2.7859741368    0.7696569808   -1.3024025191
H       -2.3862205117    1.7848778425   -1.3859793445
H       -3.8566394477    0.8180680462   -1.1092186271
H       -2.5876507989    0.2518603495   -2.2425477714
C       -2.0920828049    0.0771747161   -0.1639020006
C       -0.0188016476   -0.8628497413    0.5481107427
H        0.7520714279   -1.4049346934    0.0010636319
H       -0.6312084362   -1.5641826593    1.1176791287
C        0.5911649728    0.1961513276    1.4461865978
H        1.2505544620   -0.3147883200    2.1581974373
C        1.4334159513    1.2219591073    0.6702950346
O       -2.5908307548   -0.1467321585    0.9189108023
O       -0.8368787440   -0.2540796489   -0.4824579414
O        2.3061161476    0.7674735331   -0.1205239235
O        1.2071501536    2.4368085068    0.8828579315
H       -0.1860744559    0.7110832716    2.0151022177
O        3.4524678038   -2.4254842056    0.7276387021
O        3.2427632421   -1.8383931450   -0.6061320958
H        2.8873007912   -0.9543368907   -0.3926621835
$end

$rem
jobtype               freq
method                wb97x-v
basis                 def2-tzvpd
symmetry              off
sym_ignore            true
incdft                false
incfock               0
!scf_algorithm        diis_gdm
scf_convergence       8
thresh                14
!purecart             112
max_scf_cycles        1000
geom_opt_max_cycles   500
geom_opt_dmax         100
geom_opt_tol_gradient 10
solvent_method        pcm
ideriv                1
rpath_tol_displacement 1000
rpath_max_cycles      100
rpath_direction       1
!scf_guess            read
scf_guess             read
$end

$pcm
theory              cosmo
method              iswig
Radii               bondi
vdwScale            1.20
hpoints             110
heavypoints         110
$end

$solvent
dielectric 78.400000
$end

--------------------------------------------------------------
 ----------------------------------------------------------------
             Standard Nuclear Orientation (Angstroms)
    I     Atom           X                Y                Z
 ----------------------------------------------------------------
    1      C      -2.7859741368     0.7696569808    -1.3024025191
    2      H      -2.3862205117     1.7848778425    -1.3859793445
    3      H      -3.8566394477     0.8180680462    -1.1092186271
    4      H      -2.5876507989     0.2518603495    -2.2425477714
    5      C      -2.0920828049     0.0771747161    -0.1639020006
    6      C      -0.0188016476    -0.8628497413     0.5481107427
    7      H       0.7520714279    -1.4049346934     0.0010636319
    8      H      -0.6312084362    -1.5641826593     1.1176791287
    9      C       0.5911649728     0.1961513276     1.4461865978
   10      H       1.2505544620    -0.3147883200     2.1581974373
   11      C       1.4334159513     1.2219591073     0.6702950346
   12      O      -2.5908307548    -0.1467321585     0.9189108023
   13      O      -0.8368787440    -0.2540796489    -0.4824579414
   14      O       2.3061161476     0.7674735331    -0.1205239235
   15      O       1.2071501536     2.4368085068     0.8828579315
   16      H      -0.1860744559     0.7110832716     2.0151022177
   17      O       3.4524678038    -2.4254842056     0.7276387021
   18      O       3.2427632421    -1.8383931450    -0.6061320958
   19      H       2.8873007912    -0.9543368907    -0.3926621835
 ----------------------------------------------------------------
 Nuclear Repulsion Energy =   619.2486649742 hartrees
 There are       44 alpha and       44 beta electrons
 Requested basis set is def2-TZVPD
 There are 189 shells and 497 basis functions

 Total QAlloc Memory Limit   8000 MB
 Mega-Array Size      1956 MB
 MEM_STATIC part      2000 MB
 Discretize the solute cavity surface with Lebedev spheres
	Using 110 Lebedev grid points for each H atom
	Using 110 Lebedev grid points for other atoms
	Atomic van der Waals radii will be scaled by 1.20
 Remove points where switching function is < 1.0e-08
 Keep 1169 surface tesserae and discard 921 interior tesserae
 Molecular Surface Area = 217.050 Angst**2
 A cutoff of  1.0D-14 yielded  15922 shell pairs
 There are    110464 function pairs (    140838 Cartesian)
 
 -------------------------------------------------------
 OpenMP Integral Computing Module                       
 Release: version 1.0, May 2013, Q-Chem Inc. Pittsburgh 
 -------------------------------------------------------
 Integral Job Info:
 Integral job number is                      11
 Integral operator is                         1
 short-range coefficients              16700000
 long-range coefficients              100000000
 Omega coefficients                         300
 if combine SR and LR in K                    1
 Integral screening is                        0
 Integral computing path is                   2
 max size of driver memory is            800000
 size of driver memory is                776718
 size of scratch memory is              4473992
 max col of scratch BK array              10000
 max len of scratch array in speh3          662
 max len of scratch index in speh4           32
 max int batch size is                      520
 min int batch size is                       52
 fixed nKL is                                52
 max L of basis functions is                  3
 order of int derivative is                   0
 number of shells is                        189
 number of basis is                         563
 number of cartesian basis is               563
 number of contracted shell pairs         15922
 number of primitive shell pairs          31725
 maxK2 (contraction) of shell pair           36
 max number of K2 of shell pair               1
 max number of CS2 of shell pair           2640
 max number of PS2 of shell pair           3630
 mem total for path MDJ                  821704
 -------------------------------------------------------
 Smallest overlap matrix eigenvalue = 4.63E-06
 Guess MOs from SCF MO coefficient file
 Reading MOs from coefficient file
 Reading MOs from coefficient file
 Long-range K will be added via erf
 Coulomb attenuation parameter = 0.3 bohr**(-1)
 A restricted hybrid HF-DFT SCF calculation will be
 performed using Pulay DIIS extrapolation
 Polarizable Continuum solvation model will be applied
 Exchange:     0.1670 Hartree-Fock + 1.0000 wB97X-V + LR-HF
 Correlation:  1.0000 wB97X-V
 Using SG-2 standard quadrature grid
 Nonlocal Correlation:  VV10 with C = 0.0100 and b = 6.00
 Grid used for NLC:  SG-1 standard quadrature
 SCF converges when DIIS error is below 1.0E-08
Using Q-Chem read-in guess as SCF_GUESS READ specified.

 using 16 threads for integral computing
 -------------------------------------------------------
 OpenMP Integral computing Module                
 Release: version 1.0, May 2013, Q-Chem Inc. Pittsburgh 
 -------------------------------------------------------
 using 16 threads for integral computing
 -------------------------------------------------------
 OpenMP Integral computing Module                
 Release: version 1.0, May 2013, Q-Chem Inc. Pittsburgh 
 -------------------------------------------------------
 -------------------------------------------------------
 OpenMP BLAS3 based DFT computing Module                
 Release: version 1.0, May 2013, Q-Chem Inc. Pittsburgh 
 -------------------------------------------------------
 -------------------------------------------------------
 OpenMP BLAS3 based DFT computing Module                
 Release: version 1.0, May 2013, Q-Chem Inc. Pittsburgh 
 -------------------------------------------------------
 -------------------------------------------------------
 OpenMP BLAS3 based DFT computing Module                
 Release: version 1.0, May 2013, Q-Chem Inc. Pittsburgh 
 -------------------------------------------------------
 ---------------------------------------
  Cycle       Energy         DIIS Error
 ---------------------------------------
    1    -646.6189246086      3.95E-04
    2    -646.9495531250      4.27E-04
    3    -646.9575403009      1.99E-04
    4    -646.9588698082      1.45E-04
    5    -646.9596685706      1.12E-04
    6    -646.9601083121      8.93E-05
    7    -646.9604497672      6.70E-05
    8    -646.9606363410      5.10E-05
    9    -646.9607369835      3.97E-05
   10    -646.9607990095      3.07E-05
   11    -646.9608420276      2.25E-05
   12    -646.9608606455      1.78E-05
   13    -646.9608730231      1.38E-05
   14    -646.9608805211      1.06E-05
   15    -646.9608843882      8.54E-06
   16    -646.9608870770      6.74E-06
   17    -646.9608915164      6.77E-09 Convergence criterion met
 ---------------------------------------

************** Final PCM Free Energy Summary **************
 G_electrostatic  =      -0.34196878 hartree =    -214.58864627 kcal/mol
 G_cavitation     =       0.00000000 hartree =       0.00000000 kcal/mol
 G_dispersion     =       0.00000000 hartree =       0.00000000 kcal/mol
 G_repulsion      =       0.00000000 hartree =       0.00000000 kcal/mol
 --------------------------------------------------
 Non-electrostatic Free Energy =       0.00000000 hartree =       0.00000000 kcal/mol
 Total                         =      -0.34196878 hartree =    -214.58864627 kcal/mol
 --------------------------------------------------
 SCF Energy (H0 + V/2)                       =    -646.96089152 
 Solute Internal Energy (H0)                 =    -646.61892274 
 Total Free Energy (H0 + V/2 + non-elec)     =    -646.96089152 hartree
                                             = -405974.08679314 kcal/mol
***********************************************************

 SCF time:  CPU 5223.70 s  wall 373.22 s
 SCF   energy in the final basis set = -646.96089152
 Total energy in the final basis set = -646.96089152
 
 --------------------------------------------------------------
 
                    Orbital Energies (a.u.)
 --------------------------------------------------------------
 
 Alpha MOs
 -- Occupied --
-19.255 -19.201 -19.183 -19.148 -19.147 -19.129 -10.403 -10.349
-10.316 -10.268 -10.256  -1.239  -1.153  -1.146  -1.118  -1.058
 -0.914  -0.867  -0.866  -0.778  -0.680  -0.623  -0.608  -0.606
 -0.588  -0.561  -0.545  -0.541  -0.517  -0.516  -0.501  -0.493
 -0.473  -0.453  -0.451  -0.444  -0.424  -0.408  -0.388  -0.355
 -0.345  -0.338  -0.292  -0.265
 -- Virtual --
  0.059   0.075   0.076   0.078   0.093   0.097   0.104   0.110
  0.114   0.117   0.125   0.135   0.139   0.146   0.149   0.152
  0.161   0.163   0.173   0.177   0.186   0.193   0.197   0.203
  0.207   0.214   0.217   0.223   0.232   0.235   0.238   0.244
  0.251   0.256   0.261   0.266   0.273   0.285   0.293   0.297
  0.305   0.307   0.317   0.324   0.327   0.332   0.340   0.345
  0.348   0.351   0.359   0.363   0.367   0.370   0.376   0.380
  0.386   0.394   0.397   0.401   0.405   0.412   0.419   0.420
  0.426   0.435   0.439   0.440   0.445   0.451   0.457   0.463
  0.470   0.477   0.483   0.488   0.492   0.497   0.501   0.506
  0.513   0.518   0.525   0.530   0.536   0.539   0.542   0.549
  0.558   0.561   0.568   0.578   0.585   0.588   0.592   0.601
  0.603   0.613   0.614   0.620   0.625   0.630   0.637   0.643
  0.652   0.660   0.664   0.669   0.672   0.687   0.689   0.695
  0.700   0.702   0.706   0.718   0.725   0.731   0.747   0.749
  0.753   0.757   0.769   0.771   0.777   0.781   0.787   0.796
  0.798   0.802   0.809   0.814   0.819   0.831   0.839   0.848
  0.851   0.857   0.858   0.872   0.876   0.880   0.885   0.893
  0.900   0.914   0.943   0.955   0.958   0.966   0.972   0.976
  0.993   1.000   1.012   1.021   1.027   1.039   1.056   1.070
  1.075   1.084   1.090   1.105   1.124   1.133   1.153   1.160
  1.178   1.181   1.203   1.212   1.214   1.228   1.237   1.259
  1.273   1.281   1.285   1.295   1.304   1.327   1.342   1.356
  1.366   1.373   1.389   1.402   1.413   1.422   1.441   1.459
  1.460   1.480   1.499   1.511   1.540   1.550   1.559   1.581
  1.620   1.660   1.670   1.708   1.715   1.732   1.754   1.794
  1.864   1.868   1.886   1.903   1.913   1.913   1.925   1.939
  1.943   1.952   1.968   1.971   1.984   1.989   2.005   2.020
  2.029   2.041   2.054   2.073   2.085   2.099   2.109   2.113
  2.147   2.154   2.174   2.193   2.207   2.215   2.240   2.249
  2.275   2.279   2.289   2.304   2.320   2.341   2.360   2.389
  2.393   2.422   2.452   2.461   2.480   2.492   2.506   2.526
  2.529   2.553   2.573   2.578   2.592   2.599   2.609   2.618
  2.647   2.664   2.670   2.722   2.739   2.745   2.780   2.814
  2.833   2.837   2.853   2.879   2.891   2.915   2.931   2.946
  2.974   2.986   3.005   3.013   3.040   3.056   3.065   3.069
  3.105   3.119   3.130   3.148   3.176   3.209   3.224   3.241
  3.249   3.261   3.270   3.286   3.303   3.324   3.339   3.357
  3.385   3.389   3.404   3.420   3.424   3.437   3.449   3.461
  3.470   3.494   3.513   3.530   3.542   3.569   3.585   3.597
  3.612   3.619   3.626   3.642   3.647   3.664   3.670   3.701
  3.709   3.718   3.730   3.743   3.755   3.794   3.804   3.815
  3.824   3.876   3.885   3.963   3.994   4.043   4.089   4.097
  4.114   4.146   4.156   4.181   4.231   4.259   4.277   4.284
  4.352   4.388   4.443   4.564   4.588   4.642   4.681   4.734
  4.747   4.764   4.800   4.834   4.903   4.918   4.957   5.011
  5.037   5.040   5.098   5.114   5.166   5.197   5.244   5.305
  5.321   5.348   5.355   5.367   5.370   5.376   5.381   5.436
  5.501   5.536   5.563   5.625   5.636   5.655   5.707   5.716
  5.757   5.776   5.881   5.993   6.007   6.032   6.037   6.151
  6.258   6.299   6.310   6.332   6.343   6.349   6.443   6.556
  6.611   6.630   6.636   6.639   6.642   6.646   6.651   6.673
  6.715   6.733   6.740   6.764   6.809   6.842   6.901   6.955
  6.979   6.987   7.008   7.060   7.078   7.083   7.103   7.208
  7.243   7.257   7.352   7.379   7.396   7.427   7.525   7.536
  7.651   8.162  22.622  22.823  22.870  23.613  23.781  43.906
 44.385  44.407  44.434  44.495  44.613
 --------------------------------------------------------------
 
          Ground-State Mulliken Net Atomic Charges

     Atom                 Charge (a.u.)
  ----------------------------------------
      1 C                    -0.794663
      2 H                     0.226900
      3 H                     0.239967
      4 H                     0.256929
      5 C                     0.602383
      6 C                    -0.273331
      7 H                     0.196922
      8 H                     0.241026
      9 C                    -0.012532
     10 H                     0.219159
     11 C                     0.200846
     12 O                    -0.539544
     13 O                    -0.294936
     14 O                    -0.734325
     15 O                    -0.709631
     16 H                     0.149531
     17 O                    -0.857342
     18 O                    -0.410373
     19 H                     0.293014
  ----------------------------------------
  Sum of atomic charges =    -2.000000

 -----------------------------------------------------------------
                    Cartesian Multipole Moments
 -----------------------------------------------------------------
    Charge (ESU x 10^10)
                -9.6064
    Dipole Moment (Debye)
         X     -24.7341      Y       4.9878      Z      -4.6812
       Tot      25.6626
    Quadrupole Moments (Debye-Ang)
        XX    -156.4398     XY      29.8596     YY    -120.2784
        XZ       2.3612     YZ      -1.5063     ZZ     -75.1624
    Octopole Moments (Debye-Ang^2)
       XXX    -358.8638    XXY     148.5104    XYY    -173.0649
       YYY      40.1499    XXZ     -62.4953    XYZ      13.8651
       YYZ     -46.3272    XZZ     -43.8912    YZZ       7.4741
       ZZZ     -52.5111
    Hexadecapole Moments (Debye-Ang^3)
      XXXX   -3124.6666   XXXY     730.5199   XXYY    -921.5065
      XYYY     431.3812   YYYY   -1198.1341   XXXZ    -126.5351
      XXYZ      55.6395   XYYZ    -102.1342   YYYZ     -15.7662
      XXZZ    -478.2775   XYZZ      96.3504   YYZZ    -245.1854
      XZZZ    -104.7284   YZZZ     -11.3094   ZZZZ    -399.0142
 -----------------------------------------------------------------
 Calculating analytic gradient of the SCF energy
 Gradient of SCF Energy
            1           2           3           4           5           6
    1  -0.0348646  -0.0225761   0.0513826  -0.0115806   0.0175896   0.0733660
    2   0.0121490  -0.0480804  -0.0019559   0.0228757   0.0028233  -0.0564184
    3  -0.0262055   0.0039299  -0.0092844   0.0416736   0.0579589  -0.0282295
            7           8           9          10          11          12
    1  -0.0905118   0.0548249  -0.0601520  -0.0384856   0.0415344   0.0159978
    2   0.0221621   0.0546039   0.0175003   0.0219370  -0.0058538   0.0158141
    3   0.0301693  -0.0271554   0.1130744  -0.0473376  -0.0580771  -0.0538638
           13          14          15          16          17          18
    1  -0.0214940  -0.0368325   0.0117085   0.0465693   0.0087867  -0.0348992
    2   0.0055895   0.0268654  -0.0625097  -0.0216135  -0.0294098   0.1009811
    3  -0.0043813   0.0482453  -0.0043280  -0.0367830   0.0614745  -0.0607514
           19
    1   0.0296365
    2  -0.0774599
    3  -0.0001291
 Max gradient component =       1.131E-01
 RMS gradient           =       4.363E-02
 Computing fast CPCM-ISWIG gradient
 Updating gradient with PCM contributions...
 -- total gradient after adding PCM contribution --
---------------------------------------------------
  Atom         X              Y              Z     
---------------------------------------------------
   1      -0.000037      -0.000001      -0.000015
   2       0.000005       0.000008       0.000011
   3       0.000005      -0.000002      -0.000014
   4       0.000024       0.000020      -0.000004
   5       0.000046      -0.000099      -0.000050
   6      -0.000069      -0.000033      -0.000130
   7      -0.000020      -0.000016      -0.000019
   8       0.000022       0.000013       0.000013
   9       0.000079      -0.000022       0.000109
  10      -0.000041      -0.000019      -0.000013
  11       0.000061      -0.000084      -0.000107
  12      -0.000000       0.000018       0.000006
  13       0.000027       0.000118       0.000121
  14      -0.000046       0.000045       0.000095
  15      -0.000042       0.000065       0.000013
  16      -0.000020       0.000024      -0.000018
  17       0.000040       0.000003      -0.000002
  18      -0.000041      -0.000035      -0.000008
  19       0.000006      -0.000002       0.000012
---------------------------------------------------
 Number of fixed atoms: 0
 Gradient time:  CPU 1076.09 s  wall 78.43 s
 ######################################################
 ######################################################
 # Starting finite difference calculation for IDERIV  #
 Finite diff step size:  1.88973e-03 a.u.
 ----------------------------------------------------------------
             Standard Nuclear Orientation (Angstroms)
    I     Atom           X                Y                Z
 ----------------------------------------------------------------
    1      C      -2.7849741368     0.7696569808    -1.3024025191
    2      H      -2.3862205117     1.7848778425    -1.3859793445
    3      H      -3.8566394477     0.8180680462    -1.1092186271
    4      H      -2.5876507989     0.2518603495    -2.2425477714
    5      C      -2.0920828049     0.0771747161    -0.1639020006
    6      C      -0.0188016476    -0.8628497413     0.5481107427
    7      H       0.7520714279    -1.4049346934     0.0010636319
    8      H      -0.6312084362    -1.5641826593     1.1176791287
    9      C       0.5911649728     0.1961513276     1.4461865978
   10      H       1.2505544620    -0.3147883200     2.1581974373
   11      C       1.4334159513     1.2219591073     0.6702950346
   12      O      -2.5908307548    -0.1467321585     0.9189108023
   13      O      -0.8368787440    -0.2540796489    -0.4824579414
   14      O       2.3061161476     0.7674735331    -0.1205239235
   15      O       1.2071501536     2.4368085068     0.8828579315
   16      H      -0.1860744559     0.7110832716     2.0151022177
   17      O       3.4524678038    -2.4254842056     0.7276387021
   18      O       3.2427632421    -1.8383931450    -0.6061320958
   19      H       2.8873007912    -0.9543368907    -0.3926621835
 ----------------------------------------------------------------
 Nuclear Repulsion Energy =   619.2613866484 hartrees
 There are       44 alpha and       44 beta electrons
 Discretize the solute cavity surface with Lebedev spheres
	Using 110 Lebedev grid points for each H atom
	Using 110 Lebedev grid points for other atoms
	Atomic van der Waals radii will be scaled by 1.20
 Remove points where switching function is < 1.0e-08
 Keep 1168 surface tesserae and discard 922 interior tesserae
 Molecular Surface Area = 217.048 Angst**2
 Requested basis set is def2-TZVPD
 There are 189 shells and 497 basis functions
 A cutoff of  1.0D-14 yielded  15922 shell pairs
 There are    110464 function pairs (    140838 Cartesian)
 Smallest overlap matrix eigenvalue = 4.63E-06
 Guess MOs from SCF MO coefficient file
 Reading MOs from coefficient file
 Reading MOs from coefficient file
 Long-range K will be added via erf
 Coulomb attenuation parameter = 0.3 bohr**(-1)
 A restricted hybrid HF-DFT SCF calculation will be
 performed using Pulay DIIS extrapolation
 Polarizable Continuum solvation model will be applied
 Exchange:     0.1670 Hartree-Fock + 1.0000 wB97X-V + LR-HF
 Correlation:  1.0000 wB97X-V
 Using SG-2 standard quadrature grid
 Nonlocal Correlation:  VV10 with C = 0.0100 and b = 6.00
 Grid used for NLC:  SG-1 standard quadrature
 SCF converges when DIIS error is below 1.0E-08
Using Q-Chem read-in guess as SCF_GUESS READ specified.

 using 16 threads for integral computing
 -------------------------------------------------------
 OpenMP Integral computing Module                
 Release: version 1.0, May 2013, Q-Chem Inc. Pittsburgh 
 -------------------------------------------------------
 using 16 threads for integral computing
 -------------------------------------------------------
 OpenMP Integral computing Module                
 Release: version 1.0, May 2013, Q-Chem Inc. Pittsburgh 
 -------------------------------------------------------
 -------------------------------------------------------
 OpenMP BLAS3 based DFT computing Module                
 Release: version 1.0, May 2013, Q-Chem Inc. Pittsburgh 
 -------------------------------------------------------
 -------------------------------------------------------
 OpenMP BLAS3 based DFT computing Module                
 Release: version 1.0, May 2013, Q-Chem Inc. Pittsburgh 
 -------------------------------------------------------
 -------------------------------------------------------
 OpenMP BLAS3 based DFT computing Module                
 Release: version 1.0, May 2013, Q-Chem Inc. Pittsburgh 
 -------------------------------------------------------
 ---------------------------------------
  Cycle       Energy         DIIS Error
 ---------------------------------------
    1    -646.6186485721      3.95E-04
    2    -646.9495436041      4.27E-04
    3    -646.9575387078      1.99E-04
    4    -646.9588697610      1.45E-04
    5    -646.9596740305      1.11E-04
    6    -646.9601224205      8.84E-05
    7    -646.9604826714      6.44E-05
    8    -646.9606905651      4.51E-05
    9    -646.9608052500      2.95E-05
   10    -646.9608661932      1.58E-05
   11    -646.9608881050      4.99E-06
   12    -646.9608902964      1.52E-06
   13    -646.9608905102      3.02E-07
   14    -646.9608905187      4.99E-08
   15    -646.9608905189      1.48E-08
   16    -646.9608905189      5.85E-09 Convergence criterion met
 ---------------------------------------

************** Final PCM Free Energy Summary **************
 G_electrostatic  =      -0.34197279 hartree =    -214.59116675 kcal/mol
 G_cavitation     =       0.00000000 hartree =       0.00000000 kcal/mol
 G_dispersion     =       0.00000000 hartree =       0.00000000 kcal/mol
 G_repulsion      =       0.00000000 hartree =       0.00000000 kcal/mol
 --------------------------------------------------
 Non-electrostatic Free Energy =       0.00000000 hartree =       0.00000000 kcal/mol
 Total                         =      -0.34197279 hartree =    -214.59116675 kcal/mol
 --------------------------------------------------
 SCF Energy (H0 + V/2)                       =    -646.96089052 
 Solute Internal Energy (H0)                 =    -646.61891773 
 Total Free Energy (H0 + V/2 + non-elec)     =    -646.96089052 hartree
                                             = -405974.08616723 kcal/mol
***********************************************************

 SCF time:  CPU 4870.54 s  wall 344.83 s
 SCF   energy in the final basis set = -646.96089052
 Total energy in the final basis set = -646.96089052
 
 --------------------------------------------------------------
 
                    Orbital Energies (a.u.)
 --------------------------------------------------------------
 
 Alpha MOs
 -- Occupied --
-19.255 -19.201 -19.183 -19.148 -19.147 -19.129 -10.403 -10.349
-10.316 -10.268 -10.256  -1.239  -1.153  -1.146  -1.118  -1.058
 -0.914  -0.867  -0.866  -0.778  -0.680  -0.623  -0.608  -0.606
 -0.588  -0.561  -0.545  -0.541  -0.517  -0.516  -0.501  -0.493
 -0.473  -0.453  -0.451  -0.444  -0.424  -0.408  -0.388  -0.355
 -0.345  -0.338  -0.292  -0.265
 -- Virtual --
  0.059   0.075   0.076   0.078   0.093   0.097   0.104   0.110
  0.114   0.117   0.125   0.135   0.139   0.146   0.149   0.152
  0.161   0.163   0.173   0.177   0.186   0.193   0.197   0.203
  0.207   0.214   0.217   0.223   0.232   0.235   0.238   0.244
  0.251   0.256   0.261   0.266   0.273   0.285   0.293   0.297
  0.305   0.307   0.317   0.324   0.327   0.332   0.340   0.345
  0.348   0.351   0.359   0.363   0.367   0.370   0.376   0.380
  0.386   0.394   0.397   0.401   0.405   0.412   0.419   0.420
  0.426   0.436   0.439   0.440   0.445   0.451   0.457   0.463
  0.470   0.477   0.483   0.488   0.492   0.497   0.501   0.506
  0.513   0.518   0.525   0.530   0.536   0.539   0.542   0.549
  0.558   0.561   0.568   0.578   0.585   0.588   0.592   0.601
  0.603   0.613   0.614   0.620   0.625   0.630   0.637   0.643
  0.652   0.660   0.664   0.669   0.672   0.687   0.689   0.695
  0.700   0.702   0.706   0.718   0.725   0.731   0.747   0.749
  0.753   0.757   0.769   0.771   0.777   0.781   0.787   0.796
  0.798   0.802   0.809   0.814   0.819   0.831   0.839   0.848
  0.851   0.857   0.858   0.872   0.876   0.880   0.885   0.893
  0.900   0.914   0.943   0.956   0.958   0.966   0.972   0.976
  0.993   1.000   1.012   1.021   1.027   1.039   1.056   1.070
  1.075   1.084   1.090   1.105   1.124   1.133   1.153   1.160
  1.178   1.181   1.203   1.212   1.214   1.228   1.237   1.259
  1.273   1.281   1.285   1.295   1.304   1.327   1.342   1.356
  1.366   1.373   1.389   1.403   1.413   1.422   1.441   1.459
  1.460   1.480   1.499   1.511   1.540   1.550   1.559   1.582
  1.620   1.660   1.670   1.708   1.715   1.732   1.754   1.794
  1.864   1.868   1.887   1.904   1.913   1.913   1.925   1.939
  1.943   1.952   1.968   1.971   1.984   1.989   2.005   2.020
  2.029   2.041   2.054   2.073   2.085   2.099   2.109   2.113
  2.147   2.154   2.174   2.193   2.207   2.215   2.240   2.249
  2.275   2.279   2.289   2.304   2.320   2.341   2.360   2.389
  2.393   2.422   2.452   2.461   2.480   2.492   2.506   2.526
  2.529   2.553   2.573   2.579   2.592   2.599   2.609   2.618
  2.647   2.664   2.670   2.723   2.739   2.745   2.780   2.814
  2.833   2.837   2.853   2.879   2.891   2.915   2.931   2.946
  2.974   2.986   3.005   3.013   3.040   3.056   3.065   3.069
  3.105   3.119   3.130   3.148   3.176   3.209   3.224   3.241
  3.249   3.261   3.270   3.286   3.303   3.324   3.339   3.357
  3.385   3.389   3.404   3.420   3.424   3.437   3.449   3.461
  3.470   3.494   3.512   3.530   3.542   3.569   3.585   3.597
  3.612   3.619   3.626   3.642   3.647   3.664   3.670   3.701
  3.709   3.718   3.730   3.743   3.755   3.794   3.804   3.815
  3.824   3.876   3.885   3.964   3.994   4.044   4.090   4.098
  4.114   4.146   4.156   4.181   4.232   4.259   4.277   4.284
  4.352   4.388   4.443   4.564   4.588   4.643   4.680   4.734
  4.747   4.763   4.800   4.834   4.903   4.918   4.957   5.011
  5.037   5.040   5.098   5.114   5.166   5.197   5.244   5.305
  5.321   5.348   5.355   5.367   5.370   5.376   5.381   5.436
  5.501   5.536   5.563   5.625   5.636   5.655   5.707   5.716
  5.757   5.776   5.881   5.993   6.007   6.032   6.037   6.151
  6.258   6.299   6.310   6.332   6.343   6.349   6.443   6.556
  6.611   6.630   6.636   6.639   6.642   6.646   6.651   6.673
  6.715   6.733   6.740   6.764   6.809   6.842   6.902   6.955
  6.979   6.988   7.008   7.060   7.078   7.083   7.103   7.208
  7.243   7.257   7.352   7.379   7.396   7.427   7.525   7.536
  7.651   8.162  22.622  22.823  22.870  23.613  23.781  43.906
 44.385  44.407  44.434  44.495  44.613
 --------------------------------------------------------------
 
          Ground-State Mulliken Net Atomic Charges

     Atom                 Charge (a.u.)
  ----------------------------------------
      1 C                    -0.794510
      2 H                     0.227007
      3 H                     0.239758
      4 H                     0.256978
      5 C                     0.602328
      6 C                    -0.273521
      7 H                     0.196921
      8 H                     0.241022
      9 C                    -0.012500
     10 H                     0.219196
     11 C                     0.200858
     12 O                    -0.539585
     13 O                    -0.294809
     14 O                    -0.734326
     15 O                    -0.709633
     16 H                     0.149519
     17 O                    -0.857342
     18 O                    -0.410373
     19 H                     0.293012
  ----------------------------------------
  Sum of atomic charges =    -2.000000

 -----------------------------------------------------------------
                    Cartesian Multipole Moments
 -----------------------------------------------------------------
    Charge (ESU x 10^10)
                -9.6064
    Dipole Moment (Debye)
         X     -24.7343      Y       4.9880      Z      -4.6816
       Tot      25.6629
    Quadrupole Moments (Debye-Ang)
        XX    -156.4427     XY      29.8597     YY    -120.2773
        XZ       2.3626     YZ      -1.5068     ZZ     -75.1603
    Octopole Moments (Debye-Ang^2)
       XXX    -358.8553    XXY     148.5072    XYY    -173.0734
       YYY      40.1543    XXZ     -62.4986    XYZ      13.8666
       YYZ     -46.3300    XZZ     -43.9043    YZZ       7.4757
       ZZZ     -52.5174
    Hexadecapole Moments (Debye-Ang^3)
      XXXX   -3124.6551   XXXY     730.5321   XXYY    -921.4758
      XYYY     431.3597   YYYY   -1198.1221   XXXZ    -126.5173
      XXYZ      55.6366   XYYZ    -102.1207   YYYZ     -15.7729
      XXZZ    -478.2292   XYZZ      96.3427   YYZZ    -245.1796
      XZZZ    -104.6890   YZZZ     -11.3143   ZZZZ    -398.9917
 -----------------------------------------------------------------
 Calculating analytic gradient of the SCF energy
 Gradient of SCF Energy
            1           2           3           4           5           6
    1  -0.0338626  -0.0226905   0.0507466  -0.0116308   0.0173835   0.0733548
    2   0.0121367  -0.0482887  -0.0019192   0.0229235   0.0029360  -0.0564101
    3  -0.0262832   0.0039640  -0.0091800   0.0417702   0.0578089  -0.0282287
            7           8           9          10          11          12
    1  -0.0905101   0.0548216  -0.0601451  -0.0384893   0.0415392   0.0160271
    2   0.0221645   0.0546091   0.0174961   0.0219380  -0.0058517   0.0158065
    3   0.0301667  -0.0271535   0.1130795  -0.0473430  -0.0580748  -0.0538501
           13          14          15          16          17          18
    1  -0.0215145  -0.0368333   0.0117089   0.0465708   0.0087864  -0.0349001
    2   0.0056061   0.0268645  -0.0625108  -0.0216121  -0.0294099   0.1009820
    3  -0.0044073   0.0482451  -0.0043282  -0.0367804   0.0614748  -0.0607514
           19
    1   0.0296374
    2  -0.0774606
    3  -0.0001285
 Max gradient component =       1.131E-01
 RMS gradient           =       4.360E-02
 Computing fast CPCM-ISWIG gradient
 Updating gradient with PCM contributions...
 -- total gradient after adding PCM contribution --
---------------------------------------------------
  Atom         X              Y              Z     
---------------------------------------------------
   1       0.001092       0.000004      -0.000090
   2      -0.000149      -0.000168       0.000023
   3      -0.000600       0.000016       0.000089
   4      -0.000086       0.000070       0.000072
   5      -0.000172      -0.000045      -0.000150
   6      -0.000070      -0.000030      -0.000120
   7      -0.000022      -0.000015      -0.000021
   8       0.000021       0.000014       0.000012
   9       0.000079      -0.000022       0.000109
  10      -0.000041      -0.000019      -0.000013
  11       0.000062      -0.000083      -0.000107
  12       0.000026       0.000009       0.000041
  13      -0.000038       0.000170       0.000065
  14      -0.000047       0.000044       0.000095
  15      -0.000042       0.000065       0.000013
  16      -0.000020       0.000024      -0.000018
  17       0.000040       0.000003      -0.000002
  18      -0.000041      -0.000035      -0.000008
  19       0.000007      -0.000002       0.000012
---------------------------------------------------
 Number of fixed atoms: 0
 Gradient time:  CPU 1181.75 s  wall 83.98 s
 ----------------------------------------------------------------
             Standard Nuclear Orientation (Angstroms)
    I     Atom           X                Y                Z
 ----------------------------------------------------------------
    1      C      -2.7869741368     0.7696569808    -1.3024025191
    2      H      -2.3862205117     1.7848778425    -1.3859793445
    3      H      -3.8566394477     0.8180680462    -1.1092186271
    4      H      -2.5876507989     0.2518603495    -2.2425477714
    5      C      -2.0920828049     0.0771747161    -0.1639020006
    6      C      -0.0188016476    -0.8628497413     0.5481107427
    7      H       0.7520714279    -1.4049346934     0.0010636319
    8      H      -0.6312084362    -1.5641826593     1.1176791287
    9      C       0.5911649728     0.1961513276     1.4461865978
   10      H       1.2505544620    -0.3147883200     2.1581974373
   11      C       1.4334159513     1.2219591073     0.6702950346
   12      O      -2.5908307548    -0.1467321585     0.9189108023
   13      O      -0.8368787440    -0.2540796489    -0.4824579414
   14      O       2.3061161476     0.7674735331    -0.1205239235
   15      O       1.2071501536     2.4368085068     0.8828579315
   16      H      -0.1860744559     0.7110832716     2.0151022177
   17      O       3.4524678038    -2.4254842056     0.7276387021
   18      O       3.2427632421    -1.8383931450    -0.6061320958
   19      H       2.8873007912    -0.9543368907    -0.3926621835
 ----------------------------------------------------------------
 Nuclear Repulsion Energy =   619.2359441403 hartrees
 There are       44 alpha and       44 beta electrons
 Discretize the solute cavity surface with Lebedev spheres
	Using 110 Lebedev grid points for each H atom
	Using 110 Lebedev grid points for other atoms
	Atomic van der Waals radii will be scaled by 1.20
 Remove points where switching function is < 1.0e-08
 Keep 1169 surface tesserae and discard 921 interior tesserae
 Molecular Surface Area = 217.052 Angst**2
 Requested basis set is def2-TZVPD
 There are 189 shells and 497 basis functions
 A cutoff of  1.0D-14 yielded  15922 shell pairs
 There are    110464 function pairs (    140838 Cartesian)
 Smallest overlap matrix eigenvalue = 4.63E-06
 Guess MOs from SCF MO coefficient file
 Reading MOs from coefficient file
 Reading MOs from coefficient file
 Long-range K will be added via erf
 Coulomb attenuation parameter = 0.3 bohr**(-1)
 A restricted hybrid HF-DFT SCF calculation will be
 performed using Pulay DIIS extrapolation
 Polarizable Continuum solvation model will be applied
 Exchange:     0.1670 Hartree-Fock + 1.0000 wB97X-V + LR-HF
 Correlation:  1.0000 wB97X-V
 Using SG-2 standard quadrature grid
 Nonlocal Correlation:  VV10 with C = 0.0100 and b = 6.00
 Grid used for NLC:  SG-1 standard quadrature
 SCF converges when DIIS error is below 1.0E-08
Using Q-Chem read-in guess as SCF_GUESS READ specified.

 using 16 threads for integral computing
 -------------------------------------------------------
 OpenMP Integral computing Module                
 Release: version 1.0, May 2013, Q-Chem Inc. Pittsburgh 
 -------------------------------------------------------
 using 16 threads for integral computing
 -------------------------------------------------------
 OpenMP Integral computing Module                
 Release: version 1.0, May 2013, Q-Chem Inc. Pittsburgh 
 -------------------------------------------------------
 -------------------------------------------------------
 OpenMP BLAS3 based DFT computing Module                
 Release: version 1.0, May 2013, Q-Chem Inc. Pittsburgh 
 -------------------------------------------------------
 -------------------------------------------------------
 OpenMP BLAS3 based DFT computing Module                
 Release: version 1.0, May 2013, Q-Chem Inc. Pittsburgh 
 -------------------------------------------------------
 -------------------------------------------------------
 OpenMP BLAS3 based DFT computing Module                
 Release: version 1.0, May 2013, Q-Chem Inc. Pittsburgh 
 -------------------------------------------------------
 ---------------------------------------
  Cycle       Energy         DIIS Error
 ---------------------------------------
    1    -646.6194656858      3.95E-04
    2    -646.9495672411      4.27E-04
    3    -646.9575457923      1.99E-04
    4    -646.9588753979      1.44E-04
    5    -646.9596826829      1.11E-04
    6    -646.9601512905      8.67E-05
    7    -646.9605635633      5.76E-05
    8    -646.9607839719      3.29E-05
    9    -646.9608669549      1.55E-05
   10    -646.9608878581      5.10E-06
   11    -646.9608903006      9.04E-07
   12    -646.9608903714      2.44E-07
   13    -646.9608903766      3.97E-08
   14    -646.9608903767      7.93E-09 Convergence criterion met
 ---------------------------------------

************** Final PCM Free Energy Summary **************
 G_electrostatic  =      -0.34196492 hartree =    -214.58622867 kcal/mol
 G_cavitation     =       0.00000000 hartree =       0.00000000 kcal/mol
 G_dispersion     =       0.00000000 hartree =       0.00000000 kcal/mol
 G_repulsion      =       0.00000000 hartree =       0.00000000 kcal/mol
 --------------------------------------------------
 Non-electrostatic Free Energy =       0.00000000 hartree =       0.00000000 kcal/mol
 Total                         =      -0.34196492 hartree =    -214.58622867 kcal/mol
 --------------------------------------------------
 SCF Energy (H0 + V/2)                       =    -646.96089038 
 Solute Internal Energy (H0)                 =    -646.61892545 
 Total Free Energy (H0 + V/2 + non-elec)     =    -646.96089038 hartree
                                             = -405974.08607797 kcal/mol
***********************************************************

 SCF time:  CPU 4295.90 s  wall 306.53 s
 SCF   energy in the final basis set = -646.96089038
 Total energy in the final basis set = -646.96089038
 
 --------------------------------------------------------------
 
                    Orbital Energies (a.u.)
 --------------------------------------------------------------
 
 Alpha MOs
 -- Occupied --
-19.255 -19.201 -19.183 -19.148 -19.147 -19.129 -10.403 -10.349
-10.316 -10.268 -10.256  -1.239  -1.153  -1.146  -1.118  -1.058
 -0.914  -0.867  -0.866  -0.778  -0.680  -0.623  -0.608  -0.606
 -0.588  -0.561  -0.545  -0.541  -0.517  -0.517  -0.501  -0.493
 -0.473  -0.453  -0.451  -0.444  -0.424  -0.408  -0.388  -0.355
 -0.345  -0.338  -0.292  -0.265
 -- Virtual --
  0.059   0.075   0.076   0.078   0.093   0.097   0.104   0.110
  0.114   0.117   0.125   0.135   0.139   0.146   0.149   0.152
  0.161   0.163   0.173   0.177   0.186   0.193   0.197   0.203
  0.207   0.214   0.217   0.223   0.232   0.235   0.238   0.244
  0.251   0.256   0.261   0.266   0.273   0.285   0.293   0.297
  0.305   0.307   0.317   0.324   0.327   0.332   0.340   0.345
  0.348   0.351   0.359   0.363   0.367   0.370   0.376   0.380
  0.386   0.393   0.397   0.401   0.405   0.412   0.419   0.420
  0.426   0.435   0.439   0.440   0.445   0.451   0.457   0.463
  0.470   0.477   0.483   0.488   0.492   0.498   0.501   0.506
  0.513   0.518   0.525   0.530   0.536   0.539   0.542   0.549
  0.558   0.561   0.568   0.578   0.585   0.588   0.592   0.601
  0.603   0.613   0.614   0.620   0.625   0.630   0.637   0.643
  0.652   0.660   0.664   0.669   0.672   0.687   0.689   0.695
  0.700   0.702   0.706   0.718   0.725   0.731   0.747   0.749
  0.753   0.757   0.769   0.771   0.777   0.781   0.787   0.796
  0.798   0.802   0.809   0.814   0.819   0.831   0.839   0.848
  0.851   0.857   0.858   0.872   0.876   0.880   0.885   0.893
  0.900   0.914   0.943   0.955   0.958   0.966   0.972   0.976
  0.993   1.000   1.012   1.021   1.027   1.039   1.056   1.070
  1.075   1.084   1.090   1.105   1.124   1.133   1.153   1.160
  1.178   1.181   1.203   1.211   1.214   1.228   1.237   1.259
  1.273   1.281   1.284   1.295   1.304   1.327   1.342   1.356
  1.366   1.373   1.389   1.402   1.413   1.422   1.441   1.459
  1.460   1.480   1.499   1.510   1.540   1.550   1.559   1.581
  1.619   1.660   1.670   1.708   1.715   1.732   1.754   1.794
  1.864   1.868   1.886   1.903   1.913   1.913   1.925   1.939
  1.943   1.953   1.968   1.971   1.984   1.989   2.005   2.020
  2.029   2.041   2.054   2.073   2.085   2.099   2.109   2.113
  2.147   2.154   2.174   2.193   2.206   2.215   2.240   2.249
  2.275   2.279   2.288   2.304   2.320   2.341   2.360   2.389
  2.393   2.422   2.452   2.461   2.480   2.492   2.506   2.526
  2.529   2.553   2.573   2.578   2.592   2.599   2.609   2.618
  2.647   2.664   2.670   2.722   2.738   2.745   2.780   2.814
  2.833   2.837   2.853   2.879   2.891   2.916   2.931   2.946
  2.974   2.986   3.005   3.013   3.040   3.056   3.065   3.069
  3.105   3.119   3.130   3.148   3.176   3.210   3.224   3.241
  3.249   3.261   3.270   3.287   3.303   3.324   3.339   3.357
  3.385   3.389   3.404   3.420   3.424   3.437   3.449   3.461
  3.470   3.494   3.513   3.530   3.542   3.569   3.585   3.597
  3.612   3.619   3.626   3.642   3.647   3.664   3.670   3.701
  3.709   3.718   3.730   3.743   3.755   3.794   3.804   3.815
  3.824   3.876   3.885   3.963   3.994   4.043   4.089   4.097
  4.114   4.146   4.156   4.181   4.231   4.259   4.277   4.284
  4.352   4.387   4.443   4.564   4.588   4.642   4.682   4.734
  4.747   4.764   4.800   4.834   4.903   4.918   4.957   5.011
  5.037   5.040   5.098   5.114   5.166   5.197   5.244   5.305
  5.321   5.348   5.355   5.367   5.370   5.376   5.381   5.436
  5.501   5.536   5.563   5.625   5.636   5.655   5.707   5.716
  5.757   5.776   5.881   5.993   6.007   6.032   6.037   6.151
  6.258   6.299   6.310   6.332   6.343   6.349   6.443   6.556
  6.611   6.630   6.636   6.639   6.642   6.646   6.651   6.673
  6.715   6.733   6.740   6.764   6.809   6.842   6.901   6.955
  6.979   6.987   7.008   7.060   7.078   7.083   7.103   7.208
  7.243   7.257   7.352   7.379   7.396   7.427   7.525   7.536
  7.651   8.162  22.622  22.822  22.870  23.612  23.781  43.906
 44.385  44.407  44.434  44.495  44.613
 --------------------------------------------------------------
 
          Ground-State Mulliken Net Atomic Charges

     Atom                 Charge (a.u.)
  ----------------------------------------
      1 C                    -0.794824
      2 H                     0.226794
      3 H                     0.240180
      4 H                     0.256881
      5 C                     0.602439
      6 C                    -0.273141
      7 H                     0.196921
      8 H                     0.241032
      9 C                    -0.012564
     10 H                     0.219121
     11 C                     0.200835
     12 O                    -0.539502
     13 O                    -0.295063
     14 O                    -0.734324
     15 O                    -0.709628
     16 H                     0.149544
     17 O                    -0.857340
     18 O                    -0.410375
     19 H                     0.293015
  ----------------------------------------
  Sum of atomic charges =    -2.000000

 -----------------------------------------------------------------
                    Cartesian Multipole Moments
 -----------------------------------------------------------------
    Charge (ESU x 10^10)
                -9.6064
    Dipole Moment (Debye)
         X     -24.7339      Y       4.9875      Z      -4.6807
       Tot      25.6622
    Quadrupole Moments (Debye-Ang)
        XX    -156.4368     XY      29.8594     YY    -120.2794
        XZ       2.3598     YZ      -1.5059     ZZ     -75.1646
    Octopole Moments (Debye-Ang^2)
       XXX    -358.8721    XXY     148.5132    XYY    -173.0563
       YYY      40.1452    XXZ     -62.4916    XYZ      13.8634
       YYZ     -46.3243    XZZ     -43.8781    YZZ       7.4726
       ZZZ     -52.5048
    Hexadecapole Moments (Debye-Ang^3)
      XXXX   -3124.6770   XXXY     730.5067   XXYY    -921.5365
      XYYY     431.4019   YYYY   -1198.1453   XXXZ    -126.5518
      XXYZ      55.6419   XYYZ    -102.1473   YYYZ     -15.7597
      XXZZ    -478.3258   XYZZ      96.3580   YYZZ    -245.1911
      XZZZ    -104.7676   YZZZ     -11.3047   ZZZZ    -399.0366
 -----------------------------------------------------------------
 Calculating analytic gradient of the SCF energy
 Gradient of SCF Energy
            1           2           3           4           5           6
    1  -0.0358702  -0.0224616   0.0520224  -0.0115303   0.0177958   0.0733778
    2   0.0121616  -0.0478726  -0.0019927   0.0228278   0.0027107  -0.0564272
    3  -0.0261267   0.0038959  -0.0093896   0.0415771   0.0581089  -0.0282306
            7           8           9          10          11          12
    1  -0.0905141   0.0548286  -0.0601593  -0.0384823   0.0415304   0.0159683
    2   0.0221598   0.0545990   0.0175048   0.0219364  -0.0058559   0.0158218
    3   0.0301721  -0.0271575   0.1130703  -0.0473325  -0.0580798  -0.0538776
           13          14          15          16          17          18
    1  -0.0214739  -0.0368321   0.0117080   0.0465683   0.0087871  -0.0348988
    2   0.0055730   0.0268664  -0.0625091  -0.0216151  -0.0294099   0.1009809
    3  -0.0043553   0.0482460  -0.0043281  -0.0367859   0.0614747  -0.0607518
           19
    1   0.0296360
    2  -0.0774597
    3  -0.0001295
 Max gradient component =       1.131E-01
 RMS gradient           =       4.365E-02
 Computing fast CPCM-ISWIG gradient
 Updating gradient with PCM contributions...
 -- total gradient after adding PCM contribution --
---------------------------------------------------
  Atom         X              Y              Z     
---------------------------------------------------
   1      -0.001170      -0.000006       0.000062
   2       0.000160       0.000182      -0.000001
   3       0.000613      -0.000020      -0.000118
   4       0.000135      -0.000030      -0.000080
   5       0.000264      -0.000154       0.000050
   6      -0.000068      -0.000037      -0.000140
   7      -0.000019      -0.000017      -0.000016
   8       0.000023       0.000012       0.000013
   9       0.000079      -0.000022       0.000109
  10      -0.000041      -0.000018      -0.000013
  11       0.000061      -0.000085      -0.000107
  12      -0.000026       0.000027      -0.000030
  13       0.000091       0.000066       0.000177
  14      -0.000046       0.000045       0.000095
  15      -0.000042       0.000066       0.000013
  16      -0.000019       0.000024      -0.000018
  17       0.000041       0.000003      -0.000002
  18      -0.000041      -0.000034      -0.000008
  19       0.000006      -0.000002       0.000012
---------------------------------------------------
 Number of fixed atoms: 0
 Gradient time:  CPU 1028.16 s  wall 76.19 s
 ----------------------------------------------------------------
             Standard Nuclear Orientation (Angstroms)
    I     Atom           X                Y                Z
 ----------------------------------------------------------------
    1      C      -2.7859741368     0.7706569808    -1.3024025191
    2      H      -2.3862205117     1.7848778425    -1.3859793445
    3      H      -3.8566394477     0.8180680462    -1.1092186271
    4      H      -2.5876507989     0.2518603495    -2.2425477714
    5      C      -2.0920828049     0.0771747161    -0.1639020006
    6      C      -0.0188016476    -0.8628497413     0.5481107427
    7      H       0.7520714279    -1.4049346934     0.0010636319
    8      H      -0.6312084362    -1.5641826593     1.1176791287
    9      C       0.5911649728     0.1961513276     1.4461865978
   10      H       1.2505544620    -0.3147883200     2.1581974373
   11      C       1.4334159513     1.2219591073     0.6702950346
   12      O      -2.5908307548    -0.1467321585     0.9189108023
   13      O      -0.8368787440    -0.2540796489    -0.4824579414
   14      O       2.3061161476     0.7674735331    -0.1205239235
   15      O       1.2071501536     2.4368085068     0.8828579315
   16      H      -0.1860744559     0.7110832716     2.0151022177
   17      O       3.4524678038    -2.4254842056     0.7276387021
   18      O       3.2427632421    -1.8383931450    -0.6061320958
   19      H       2.8873007912    -0.9543368907    -0.3926621835
 ----------------------------------------------------------------
 Nuclear Repulsion Energy =   619.2414487574 hartrees
 There are       44 alpha and       44 beta electrons
 Discretize the solute cavity surface with Lebedev spheres
	Using 110 Lebedev grid points for each H atom
	Using 110 Lebedev grid points for other atoms
	Atomic van der Waals radii will be scaled by 1.20
 Remove points where switching function is < 1.0e-08
 Keep 1169 surface tesserae and discard 921 interior tesserae
 Molecular Surface Area = 217.053 Angst**2
 Requested basis set is def2-TZVPD
 There are 189 shells and 497 basis functions
 A cutoff of  1.0D-14 yielded  15922 shell pairs
 There are    110464 function pairs (    140838 Cartesian)
 Smallest overlap matrix eigenvalue = 4.63E-06
 Guess MOs from SCF MO coefficient file
 Reading MOs from coefficient file
 Reading MOs from coefficient file
 Long-range K will be added via erf
 Coulomb attenuation parameter = 0.3 bohr**(-1)
 A restricted hybrid HF-DFT SCF calculation will be
 performed using Pulay DIIS extrapolation
 Polarizable Continuum solvation model will be applied
 Exchange:     0.1670 Hartree-Fock + 1.0000 wB97X-V + LR-HF
 Correlation:  1.0000 wB97X-V
 Using SG-2 standard quadrature grid
 Nonlocal Correlation:  VV10 with C = 0.0100 and b = 6.00
 Grid used for NLC:  SG-1 standard quadrature
 SCF converges when DIIS error is below 1.0E-08
Using Q-Chem read-in guess as SCF_GUESS READ specified.

 using 16 threads for integral computing
 -------------------------------------------------------
 OpenMP Integral computing Module                
 Release: version 1.0, May 2013, Q-Chem Inc. Pittsburgh 
 -------------------------------------------------------
 using 16 threads for integral computing
 -------------------------------------------------------
 OpenMP Integral computing Module                
 Release: version 1.0, May 2013, Q-Chem Inc. Pittsburgh 
 -------------------------------------------------------
 -------------------------------------------------------
 OpenMP BLAS3 based DFT computing Module                
 Release: version 1.0, May 2013, Q-Chem Inc. Pittsburgh 
 -------------------------------------------------------
 -------------------------------------------------------
 OpenMP BLAS3 based DFT computing Module                
 Release: version 1.0, May 2013, Q-Chem Inc. Pittsburgh 
 -------------------------------------------------------
 -------------------------------------------------------
 OpenMP BLAS3 based DFT computing Module                
 Release: version 1.0, May 2013, Q-Chem Inc. Pittsburgh 
 -------------------------------------------------------
 ---------------------------------------
  Cycle       Energy         DIIS Error
 ---------------------------------------
    1    -646.6188313832      3.95E-04
    2    -646.9495453983      4.27E-04
    3    -646.9575406624      1.99E-04
    4    -646.9588719827      1.45E-04
    5    -646.9596785753      1.11E-04
    6    -646.9601329964      8.78E-05
    7    -646.9605090171      6.23E-05
    8    -646.9607263205      4.09E-05
    9    -646.9608353409      2.38E-05
   10    -646.9608800518      1.04E-05
   11    -646.9608900119      2.43E-06
   12    -646.9608905405      6.46E-07
   13    -646.9608905784      1.08E-07
   14    -646.9608905795      1.62E-08
   15    -646.9608905795      4.86E-09 Convergence criterion met
 ---------------------------------------

************** Final PCM Free Energy Summary **************
 G_electrostatic  =      -0.34196261 hartree =    -214.58477963 kcal/mol
 G_cavitation     =       0.00000000 hartree =       0.00000000 kcal/mol
 G_dispersion     =       0.00000000 hartree =       0.00000000 kcal/mol
 G_repulsion      =       0.00000000 hartree =       0.00000000 kcal/mol
 --------------------------------------------------
 Non-electrostatic Free Energy =       0.00000000 hartree =       0.00000000 kcal/mol
 Total                         =      -0.34196261 hartree =    -214.58477963 kcal/mol
 --------------------------------------------------
 SCF Energy (H0 + V/2)                       =    -646.96089058 
 Solute Internal Energy (H0)                 =    -646.61892796 
 Total Free Energy (H0 + V/2 + non-elec)     =    -646.96089058 hartree
                                             = -405974.08620523 kcal/mol
***********************************************************

 SCF time:  CPU 4610.11 s  wall 328.75 s
 SCF   energy in the final basis set = -646.96089058
 Total energy in the final basis set = -646.96089058
 
 --------------------------------------------------------------
 
                    Orbital Energies (a.u.)
 --------------------------------------------------------------
 
 Alpha MOs
 -- Occupied --
-19.255 -19.201 -19.183 -19.148 -19.147 -19.129 -10.403 -10.349
-10.316 -10.268 -10.256  -1.239  -1.153  -1.146  -1.118  -1.058
 -0.914  -0.867  -0.866  -0.778  -0.680  -0.623  -0.608  -0.606
 -0.588  -0.561  -0.545  -0.541  -0.517  -0.516  -0.501  -0.493
 -0.474  -0.453  -0.451  -0.444  -0.424  -0.408  -0.388  -0.355
 -0.345  -0.338  -0.292  -0.265
 -- Virtual --
  0.059   0.075   0.076   0.078   0.093   0.097   0.104   0.110
  0.114   0.117   0.125   0.135   0.139   0.146   0.149   0.152
  0.161   0.163   0.173   0.177   0.186   0.193   0.197   0.203
  0.207   0.214   0.217   0.223   0.232   0.235   0.238   0.244
  0.251   0.256   0.261   0.266   0.273   0.285   0.293   0.297
  0.305   0.307   0.317   0.324   0.327   0.332   0.340   0.345
  0.348   0.351   0.359   0.363   0.367   0.370   0.376   0.380
  0.386   0.394   0.397   0.401   0.405   0.412   0.419   0.420
  0.426   0.435   0.439   0.440   0.445   0.451   0.457   0.463
  0.470   0.477   0.483   0.488   0.492   0.497   0.501   0.506
  0.513   0.518   0.525   0.530   0.536   0.539   0.542   0.549
  0.558   0.561   0.568   0.578   0.585   0.588   0.592   0.601
  0.603   0.613   0.614   0.620   0.625   0.630   0.637   0.643
  0.652   0.660   0.664   0.669   0.672   0.687   0.689   0.695
  0.700   0.702   0.706   0.718   0.725   0.731   0.747   0.749
  0.753   0.757   0.769   0.771   0.777   0.781   0.787   0.796
  0.798   0.802   0.809   0.814   0.819   0.831   0.839   0.848
  0.851   0.857   0.858   0.872   0.876   0.880   0.885   0.893
  0.900   0.914   0.943   0.955   0.958   0.966   0.972   0.976
  0.993   1.000   1.012   1.021   1.027   1.039   1.056   1.070
  1.075   1.084   1.090   1.105   1.124   1.133   1.153   1.160
  1.178   1.181   1.203   1.212   1.214   1.228   1.237   1.259
  1.273   1.281   1.285   1.295   1.304   1.327   1.342   1.356
  1.366   1.373   1.389   1.402   1.413   1.422   1.441   1.459
  1.460   1.480   1.499   1.510   1.540   1.550   1.559   1.581
  1.619   1.660   1.670   1.708   1.715   1.732   1.754   1.794
  1.864   1.868   1.886   1.903   1.913   1.913   1.925   1.939
  1.943   1.952   1.968   1.971   1.984   1.989   2.005   2.020
  2.029   2.041   2.054   2.073   2.085   2.099   2.109   2.113
  2.147   2.154   2.174   2.193   2.206   2.215   2.240   2.249
  2.275   2.279   2.289   2.304   2.320   2.341   2.360   2.389
  2.393   2.422   2.452   2.461   2.479   2.492   2.506   2.526
  2.529   2.553   2.573   2.578   2.592   2.599   2.609   2.618
  2.647   2.664   2.670   2.723   2.738   2.745   2.780   2.814
  2.833   2.837   2.853   2.879   2.891   2.916   2.931   2.946
  2.974   2.986   3.005   3.013   3.040   3.056   3.065   3.069
  3.105   3.119   3.130   3.148   3.176   3.209   3.224   3.241
  3.249   3.261   3.270   3.287   3.303   3.324   3.339   3.357
  3.385   3.390   3.404   3.420   3.424   3.437   3.449   3.461
  3.470   3.494   3.513   3.530   3.542   3.569   3.585   3.597
  3.612   3.619   3.626   3.642   3.647   3.664   3.670   3.701
  3.709   3.718   3.730   3.743   3.755   3.794   3.804   3.815
  3.824   3.876   3.885   3.963   3.994   4.043   4.089   4.097
  4.114   4.146   4.156   4.181   4.231   4.259   4.277   4.284
  4.352   4.387   4.443   4.564   4.588   4.642   4.681   4.734
  4.747   4.764   4.800   4.834   4.903   4.918   4.957   5.011
  5.037   5.040   5.098   5.114   5.166   5.197   5.244   5.305
  5.321   5.348   5.355   5.367   5.370   5.376   5.381   5.436
  5.501   5.536   5.563   5.625   5.636   5.655   5.707   5.716
  5.757   5.776   5.881   5.993   6.007   6.032   6.037   6.151
  6.258   6.299   6.310   6.332   6.343   6.349   6.443   6.556
  6.611   6.630   6.636   6.639   6.642   6.646   6.651   6.673
  6.715   6.733   6.740   6.764   6.809   6.842   6.901   6.955
  6.979   6.987   7.008   7.060   7.078   7.083   7.103   7.208
  7.243   7.257   7.352   7.379   7.396   7.427   7.525   7.536
  7.651   8.162  22.622  22.822  22.870  23.612  23.781  43.906
 44.385  44.407  44.434  44.495  44.613
 --------------------------------------------------------------
 
          Ground-State Mulliken Net Atomic Charges

     Atom                 Charge (a.u.)
  ----------------------------------------
      1 C                    -0.794090
      2 H                     0.227082
      3 H                     0.239854
      4 H                     0.256702
      5 C                     0.601993
      6 C                    -0.273423
      7 H                     0.196882
      8 H                     0.241019
      9 C                    -0.012459
     10 H                     0.219140
     11 C                     0.200854
     12 O                    -0.539520
     13 O                    -0.294916
     14 O                    -0.734321
     15 O                    -0.709627
     16 H                     0.149531
     17 O                    -0.857341
     18 O                    -0.410374
     19 H                     0.293015
  ----------------------------------------
  Sum of atomic charges =    -2.000000

 -----------------------------------------------------------------
                    Cartesian Multipole Moments
 -----------------------------------------------------------------
    Charge (ESU x 10^10)
                -9.6064
    Dipole Moment (Debye)
         X     -24.7336      Y       4.9872      Z      -4.6801
       Tot      25.6618
    Quadrupole Moments (Debye-Ang)
        XX    -156.4410     XY      29.8623     YY    -120.2783
        XZ       2.3586     YZ      -1.5052     ZZ     -75.1645
    Octopole Moments (Debye-Ang^2)
       XXX    -358.8593    XXY     148.4946    XYY    -173.0623
       YYY      40.1375    XXZ     -62.4872    XYZ      13.8606
       YYZ     -46.3271    XZZ     -43.8842    YZZ       7.4676
       ZZZ     -52.5005
    Hexadecapole Moments (Debye-Ang^3)
      XXXX   -3124.6757   XXXY     730.6028   XXYY    -921.5246
      XYYY     431.4205   YYYY   -1198.1692   XXXZ    -126.5580
      XXYZ      55.6615   XYYZ    -102.1364   YYYZ     -15.7498
      XXZZ    -478.2979   XYZZ      96.3713   YYZZ    -245.1920
      XZZZ    -104.7554   YZZZ     -11.2853   ZZZZ    -399.0438
 -----------------------------------------------------------------
 Calculating analytic gradient of the SCF energy
 Gradient of SCF Energy
            1           2           3           4           5           6
    1  -0.0348273  -0.0227796   0.0514019  -0.0115162   0.0176634   0.0733439
    2   0.0130370  -0.0486295  -0.0019952   0.0227256   0.0026389  -0.0564067
    3  -0.0261418   0.0039849  -0.0092890   0.0414104   0.0580648  -0.0282359
            7           8           9          10          11          12
    1  -0.0905169   0.0548194  -0.0601276  -0.0384852   0.0415328   0.0159989
    2   0.0221643   0.0546084   0.0174961   0.0219379  -0.0058522   0.0158365
    3   0.0301685  -0.0271549   0.1130800  -0.0473355  -0.0580759  -0.0538379
           13          14          15          16          17          18
    1  -0.0214742  -0.0368316   0.0117083   0.0465658   0.0087869  -0.0348993
    2   0.0055854   0.0268651  -0.0625090  -0.0216140  -0.0294097   0.1009804
    3  -0.0043655   0.0482437  -0.0043287  -0.0367815   0.0614741  -0.0607511
           19
    1   0.0296365
    2  -0.0774593
    3  -0.0001287
 Max gradient component =       1.131E-01
 RMS gradient           =       4.364E-02
 Computing fast CPCM-ISWIG gradient
 Updating gradient with PCM contributions...
 -- total gradient after adding PCM contribution --
---------------------------------------------------
  Atom         X              Y              Z     
---------------------------------------------------
   1      -0.000031       0.000993       0.000039
   2      -0.000169      -0.000525       0.000053
   3       0.000029      -0.000088      -0.000019
   4       0.000076      -0.000179      -0.000222
   5       0.000097      -0.000318       0.000021
   6      -0.000070      -0.000022      -0.000132
   7      -0.000020      -0.000016      -0.000019
   8       0.000020       0.000013       0.000013
   9       0.000081      -0.000024       0.000110
  10      -0.000040      -0.000018      -0.000012
  11       0.000060      -0.000085      -0.000106
  12       0.000008       0.000050       0.000041
  13       0.000059       0.000119       0.000142
  14      -0.000046       0.000045       0.000094
  15      -0.000042       0.000066       0.000013
  16      -0.000020       0.000024      -0.000018
  17       0.000040       0.000003      -0.000002
  18      -0.000041      -0.000035      -0.000008
  19       0.000006      -0.000001       0.000012
---------------------------------------------------
 Number of fixed atoms: 0
 Gradient time:  CPU 1033.55 s  wall 75.81 s
 ----------------------------------------------------------------
             Standard Nuclear Orientation (Angstroms)
    I     Atom           X                Y                Z
 ----------------------------------------------------------------
    1      C      -2.7859741368     0.7686569808    -1.3024025191
    2      H      -2.3862205117     1.7848778425    -1.3859793445
    3      H      -3.8566394477     0.8180680462    -1.1092186271
    4      H      -2.5876507989     0.2518603495    -2.2425477714
    5      C      -2.0920828049     0.0771747161    -0.1639020006
    6      C      -0.0188016476    -0.8628497413     0.5481107427
    7      H       0.7520714279    -1.4049346934     0.0010636319
    8      H      -0.6312084362    -1.5641826593     1.1176791287
    9      C       0.5911649728     0.1961513276     1.4461865978
   10      H       1.2505544620    -0.3147883200     2.1581974373
   11      C       1.4334159513     1.2219591073     0.6702950346
   12      O      -2.5908307548    -0.1467321585     0.9189108023
   13      O      -0.8368787440    -0.2540796489    -0.4824579414
   14      O       2.3061161476     0.7674735331    -0.1205239235
   15      O       1.2071501536     2.4368085068     0.8828579315
   16      H      -0.1860744559     0.7110832716     2.0151022177
   17      O       3.4524678038    -2.4254842056     0.7276387021
   18      O       3.2427632421    -1.8383931450    -0.6061320958
   19      H       2.8873007912    -0.9543368907    -0.3926621835
 ----------------------------------------------------------------
 Nuclear Repulsion Energy =   619.2558768542 hartrees
 There are       44 alpha and       44 beta electrons
 Discretize the solute cavity surface with Lebedev spheres
	Using 110 Lebedev grid points for each H atom
	Using 110 Lebedev grid points for other atoms
	Atomic van der Waals radii will be scaled by 1.20
 Remove points where switching function is < 1.0e-08
 Keep 1168 surface tesserae and discard 922 interior tesserae
 Molecular Surface Area = 217.047 Angst**2
 Requested basis set is def2-TZVPD
 There are 189 shells and 497 basis functions
 A cutoff of  1.0D-14 yielded  15922 shell pairs
 There are    110464 function pairs (    140838 Cartesian)
 Smallest overlap matrix eigenvalue = 4.63E-06
 Guess MOs from SCF MO coefficient file
 Reading MOs from coefficient file
 Reading MOs from coefficient file
 Long-range K will be added via erf
 Coulomb attenuation parameter = 0.3 bohr**(-1)
 A restricted hybrid HF-DFT SCF calculation will be
 performed using Pulay DIIS extrapolation
 Polarizable Continuum solvation model will be applied
 Exchange:     0.1670 Hartree-Fock + 1.0000 wB97X-V + LR-HF
 Correlation:  1.0000 wB97X-V
 Using SG-2 standard quadrature grid
 Nonlocal Correlation:  VV10 with C = 0.0100 and b = 6.00
 Grid used for NLC:  SG-1 standard quadrature
 SCF converges when DIIS error is below 1.0E-08
Using Q-Chem read-in guess as SCF_GUESS READ specified.

 using 16 threads for integral computing
 -------------------------------------------------------
 OpenMP Integral computing Module                
 Release: version 1.0, May 2013, Q-Chem Inc. Pittsburgh 
 -------------------------------------------------------
 using 16 threads for integral computing
 -------------------------------------------------------
 OpenMP Integral computing Module                
 Release: version 1.0, May 2013, Q-Chem Inc. Pittsburgh 
 -------------------------------------------------------
 -------------------------------------------------------
 OpenMP BLAS3 based DFT computing Module                
 Release: version 1.0, May 2013, Q-Chem Inc. Pittsburgh 
 -------------------------------------------------------
 -------------------------------------------------------
 OpenMP BLAS3 based DFT computing Module                
 Release: version 1.0, May 2013, Q-Chem Inc. Pittsburgh 
 -------------------------------------------------------
 -------------------------------------------------------
 OpenMP BLAS3 based DFT computing Module                
 Release: version 1.0, May 2013, Q-Chem Inc. Pittsburgh 
 -------------------------------------------------------
 ---------------------------------------
  Cycle       Energy         DIIS Error
 ---------------------------------------
    1    -646.6185706694      3.95E-04
    2    -646.9495512518      4.27E-04
    3    -646.9575418158      1.99E-04
    4    -646.9588731200      1.45E-04
    5    -646.9596842978      1.11E-04
    6    -646.9601524526      8.66E-05
    7    -646.9605559983      5.83E-05
    8    -646.9607772034      3.39E-05
    9    -646.9608644438      1.64E-05
   10    -646.9608876041      5.54E-06
   11    -646.9608904800      1.02E-06
   12    -646.9608905712      2.64E-07
   13    -646.9608905773      4.20E-08
   14    -646.9608905774      8.03E-09 Convergence criterion met
 ---------------------------------------

************** Final PCM Free Energy Summary **************
 G_electrostatic  =      -0.34197508 hartree =    -214.59260272 kcal/mol
 G_cavitation     =       0.00000000 hartree =       0.00000000 kcal/mol
 G_dispersion     =       0.00000000 hartree =       0.00000000 kcal/mol
 G_repulsion      =       0.00000000 hartree =       0.00000000 kcal/mol
 --------------------------------------------------
 Non-electrostatic Free Energy =       0.00000000 hartree =       0.00000000 kcal/mol
 Total                         =      -0.34197508 hartree =    -214.59260272 kcal/mol
 --------------------------------------------------
 SCF Energy (H0 + V/2)                       =    -646.96089058 
 Solute Internal Energy (H0)                 =    -646.61891550 
 Total Free Energy (H0 + V/2 + non-elec)     =    -646.96089058 hartree
                                             = -405974.08620392 kcal/mol
***********************************************************

 SCF time:  CPU 4293.02 s  wall 303.81 s
 SCF   energy in the final basis set = -646.96089058
 Total energy in the final basis set = -646.96089058
 
 --------------------------------------------------------------
 
                    Orbital Energies (a.u.)
 --------------------------------------------------------------
 
 Alpha MOs
 -- Occupied --
-19.255 -19.201 -19.183 -19.148 -19.147 -19.129 -10.403 -10.349
-10.316 -10.268 -10.256  -1.239  -1.153  -1.146  -1.118  -1.058
 -0.914  -0.867  -0.866  -0.778  -0.680  -0.623  -0.608  -0.606
 -0.588  -0.561  -0.545  -0.541  -0.517  -0.516  -0.501  -0.493
 -0.473  -0.453  -0.451  -0.444  -0.424  -0.408  -0.388  -0.355
 -0.345  -0.338  -0.292  -0.265
 -- Virtual --
  0.059   0.075   0.076   0.078   0.093   0.097   0.104   0.110
  0.114   0.117   0.125   0.135   0.139   0.146   0.149   0.152
  0.161   0.163   0.173   0.177   0.186   0.193   0.197   0.203
  0.207   0.214   0.217   0.223   0.232   0.235   0.238   0.244
  0.251   0.256   0.261   0.266   0.273   0.285   0.293   0.297
  0.305   0.307   0.317   0.323   0.327   0.332   0.340   0.345
  0.348   0.351   0.359   0.363   0.367   0.370   0.376   0.380
  0.386   0.393   0.397   0.401   0.405   0.412   0.419   0.420
  0.426   0.435   0.439   0.440   0.445   0.451   0.457   0.463
  0.470   0.477   0.483   0.488   0.492   0.497   0.501   0.506
  0.513   0.518   0.525   0.530   0.536   0.539   0.542   0.549
  0.558   0.561   0.568   0.578   0.585   0.588   0.592   0.601
  0.603   0.613   0.614   0.620   0.625   0.630   0.637   0.643
  0.652   0.660   0.664   0.669   0.672   0.687   0.689   0.695
  0.700   0.702   0.706   0.718   0.725   0.731   0.747   0.749
  0.753   0.757   0.769   0.771   0.777   0.781   0.787   0.796
  0.798   0.802   0.808   0.814   0.819   0.831   0.839   0.848
  0.851   0.857   0.858   0.872   0.876   0.880   0.885   0.893
  0.900   0.914   0.943   0.956   0.958   0.966   0.972   0.976
  0.993   1.000   1.012   1.021   1.027   1.039   1.056   1.070
  1.075   1.084   1.090   1.105   1.124   1.133   1.153   1.160
  1.178   1.181   1.203   1.212   1.214   1.228   1.237   1.259
  1.273   1.281   1.284   1.295   1.304   1.327   1.342   1.356
  1.366   1.373   1.389   1.402   1.413   1.422   1.441   1.459
  1.460   1.480   1.499   1.511   1.540   1.550   1.559   1.581
  1.620   1.660   1.670   1.708   1.715   1.732   1.754   1.794
  1.864   1.868   1.886   1.904   1.913   1.913   1.925   1.939
  1.943   1.952   1.968   1.971   1.984   1.989   2.005   2.020
  2.029   2.041   2.054   2.073   2.085   2.099   2.109   2.113
  2.147   2.154   2.174   2.193   2.207   2.215   2.240   2.249
  2.275   2.279   2.288   2.304   2.320   2.341   2.360   2.389
  2.393   2.422   2.452   2.461   2.480   2.492   2.506   2.527
  2.529   2.553   2.573   2.578   2.592   2.599   2.609   2.618
  2.647   2.664   2.670   2.722   2.739   2.745   2.780   2.814
  2.833   2.837   2.853   2.879   2.891   2.915   2.931   2.946
  2.974   2.986   3.005   3.013   3.040   3.056   3.065   3.069
  3.105   3.119   3.130   3.149   3.176   3.209   3.224   3.241
  3.249   3.261   3.270   3.286   3.303   3.324   3.339   3.357
  3.385   3.389   3.404   3.420   3.424   3.437   3.449   3.461
  3.470   3.494   3.512   3.530   3.542   3.569   3.585   3.597
  3.612   3.619   3.626   3.642   3.647   3.664   3.670   3.701
  3.709   3.718   3.730   3.743   3.755   3.794   3.804   3.815
  3.824   3.876   3.885   3.964   3.994   4.044   4.090   4.098
  4.114   4.146   4.156   4.181   4.231   4.259   4.277   4.284
  4.352   4.388   4.443   4.564   4.588   4.642   4.681   4.734
  4.747   4.764   4.800   4.834   4.903   4.918   4.957   5.011
  5.037   5.040   5.098   5.114   5.166   5.197   5.244   5.305
  5.321   5.348   5.355   5.367   5.370   5.376   5.381   5.436
  5.501   5.536   5.563   5.625   5.636   5.655   5.707   5.716
  5.757   5.776   5.881   5.993   6.007   6.032   6.037   6.151
  6.258   6.299   6.310   6.332   6.343   6.349   6.444   6.556
  6.611   6.630   6.636   6.639   6.642   6.646   6.651   6.673
  6.715   6.733   6.740   6.764   6.809   6.842   6.902   6.955
  6.979   6.988   7.008   7.060   7.078   7.083   7.103   7.208
  7.243   7.257   7.352   7.379   7.396   7.427   7.525   7.536
  7.651   8.162  22.622  22.823  22.870  23.613  23.781  43.906
 44.385  44.407  44.434  44.495  44.613
 --------------------------------------------------------------
 
          Ground-State Mulliken Net Atomic Charges

     Atom                 Charge (a.u.)
  ----------------------------------------
      1 C                    -0.795242
      2 H                     0.226721
      3 H                     0.240080
      4 H                     0.257158
      5 C                     0.602773
      6 C                    -0.273239
      7 H                     0.196961
      8 H                     0.241035
      9 C                    -0.012605
     10 H                     0.219178
     11 C                     0.200838
     12 O                    -0.539567
     13 O                    -0.294956
     14 O                    -0.734328
     15 O                    -0.709635
     16 H                     0.149531
     17 O                    -0.857341
     18 O                    -0.410374
     19 H                     0.293013
  ----------------------------------------
  Sum of atomic charges =    -2.000000

 -----------------------------------------------------------------
[...]
 Red. Mass:       2.2151                 2.4965                 1.3554
 IR Active:          YES                    YES                    YES
 IR Intens:       84.649                 76.496                 30.139
 Raman Active:       YES                    YES                    YES
               X      Y      Z        X      Y      Z        X      Y      Z
 C         -0.084  0.076  0.050    0.067 -0.008 -0.026   -0.010  0.007 -0.003
 H          0.040 -0.000 -0.235   -0.109  0.061  0.002   -0.005  0.003 -0.038
 H         -0.163  0.038 -0.391    0.103 -0.112  0.218   -0.018  0.017 -0.048
 H          0.238 -0.194  0.255   -0.148  0.028 -0.088   -0.003  0.019 -0.010
 C         -0.012 -0.077 -0.005   -0.007 -0.003  0.004    0.028 -0.016  0.013
 C         -0.133  0.074 -0.052    0.015  0.030  0.231   -0.068  0.092  0.061
 H          0.046  0.257  0.009    0.220  0.408  0.150   -0.118  0.255 -0.152
 H          0.005 -0.180 -0.209    0.251 -0.239  0.136    0.028 -0.086 -0.059
 C          0.102 -0.064 -0.029    0.050 -0.142 -0.130    0.000 -0.064 -0.040
 H         -0.194 -0.120  0.193   -0.337 -0.375  0.059    0.357  0.567  0.074
 C         -0.044 -0.006 -0.040   -0.011  0.006 -0.024    0.037  0.013  0.047
 O         -0.007  0.023 -0.007   -0.020 -0.007  0.039   -0.014 -0.000  0.012
 O          0.142 -0.066  0.061   -0.044  0.064 -0.122    0.030 -0.022 -0.021
 O         -0.028  0.005  0.040   -0.032  0.004  0.034    0.005 -0.003 -0.018
 O          0.011  0.024  0.005    0.008  0.034 -0.003   -0.005 -0.015 -0.010
 H          0.205  0.382 -0.288    0.083  0.116 -0.322   -0.351 -0.511 -0.112
 O         -0.000  0.000 -0.000    0.000 -0.000  0.000   -0.001  0.000 -0.000
 O         -0.001 -0.001  0.000    0.000  0.001  0.000   -0.000 -0.000 -0.000
 H          0.006 -0.000  0.003   -0.020 -0.010 -0.004    0.007  0.001  0.007
 TransDip  -0.246 -0.004 -0.162    0.245 -0.115  0.073   -0.037  0.164  0.052

 Mode:                31                     32                     33
 Frequency:      1269.61                1301.89                1347.92
 Force Cnst:      1.8461                 1.7565                 1.6573
 Red. Mass:       1.9439                 1.7590                 1.5482
 IR Active:          YES                    YES                    YES
 IR Intens:      270.265                379.574                 35.336
 Raman Active:       YES                    YES                    YES
               X      Y      Z        X      Y      Z        X      Y      Z
 C         -0.053  0.013  0.012    0.031 -0.003 -0.018   -0.002 -0.003  0.009
 H          0.005 -0.023 -0.231   -0.008  0.024  0.173   -0.025 -0.000 -0.078
 H         -0.109  0.138 -0.328    0.068 -0.087  0.211   -0.015  0.032 -0.071
 H          0.019  0.166 -0.070   -0.017 -0.134  0.053   -0.020  0.067 -0.036
 C          0.216 -0.095  0.047   -0.146  0.056 -0.023    0.030 -0.016  0.014
 C         -0.019 -0.039  0.041   -0.085 -0.034 -0.030    0.010  0.017 -0.029
 H         -0.387  0.037 -0.534   -0.221  0.018 -0.273   -0.136 -0.030 -0.178
 H          0.180 -0.064  0.222    0.538 -0.156  0.516    0.344  0.139  0.479
 C          0.029  0.090  0.027    0.036  0.083  0.028   -0.094 -0.120  0.011
 H         -0.235 -0.285  0.007   -0.154 -0.150  0.041    0.235  0.318  0.017
 C         -0.009  0.013 -0.031   -0.026 -0.005 -0.004   -0.038 -0.064  0.057
 O         -0.033  0.011  0.003    0.001 -0.007  0.022   -0.005  0.003 -0.002
 O         -0.052  0.033 -0.035    0.122 -0.010 -0.033   -0.001  0.013 -0.019
 O         -0.006  0.007  0.012    0.014 -0.004 -0.009    0.041 -0.018 -0.040
 O          0.006 -0.027  0.001    0.002 -0.008  0.004   -0.010  0.078  0.005
 H         -0.081 -0.136  0.087   -0.136 -0.226  0.086    0.339  0.493  0.042
 O         -0.001  0.001 -0.000   -0.001  0.001 -0.000    0.000 -0.001  0.000
 O          0.000 -0.001 -0.001   -0.000 -0.001 -0.001    0.000  0.000  0.001
 H          0.016 -0.001  0.020    0.018  0.003  0.022   -0.002  0.010 -0.021
 TransDip   0.502 -0.152  0.050   -0.616  0.094  0.027   -0.080 -0.138  0.103

 Mode:                34                     35                     36
 Frequency:      1388.89                1397.74                1421.44
 Force Cnst:      1.2479                 1.4978                 1.9467
 Red. Mass:       1.0980                 1.3012                 1.6353
 IR Active:          YES                    YES                    YES
 IR Intens:       50.853                 61.943                 72.025
 Raman Active:       YES                    YES                    YES
               X      Y      Z        X      Y      Z        X      Y      Z
 C         -0.007  0.010 -0.015   -0.060  0.071 -0.096   -0.056  0.050 -0.055
 H          0.045 -0.004  0.074    0.328 -0.043  0.438    0.290 -0.070  0.154
 H          0.003 -0.041  0.052   -0.003 -0.277  0.295   -0.034 -0.225  0.123
 H          0.022 -0.068  0.035    0.154 -0.406  0.214    0.107 -0.141  0.081
 C         -0.001  0.002 -0.002    0.044 -0.010  0.001    0.100 -0.037  0.026
 C          0.019  0.013  0.016    0.041  0.021  0.044   -0.077 -0.058 -0.076
 H         -0.103 -0.050 -0.092   -0.251 -0.041 -0.300    0.497  0.247  0.433
 H         -0.020 -0.019 -0.064   -0.112  0.001 -0.146    0.093  0.144  0.342
 C         -0.019 -0.014 -0.001   -0.031 -0.018 -0.006    0.059  0.029  0.010
 H          0.009  0.007 -0.012    0.001 -0.008 -0.028    0.022  0.030  0.043
 C          0.015  0.008 -0.012    0.014  0.002 -0.008   -0.060 -0.032  0.046
 O         -0.001 -0.001  0.003   -0.012 -0.002  0.014   -0.009  0.004 -0.004
 O          0.005 -0.005 -0.001    0.002 -0.010 -0.003   -0.055  0.032  0.001
 O         -0.010  0.007  0.004   -0.008  0.002  0.008    0.037 -0.012 -0.033
 O          0.001 -0.007 -0.001   -0.001  0.002 -0.001   -0.000  0.024  0.002
 H          0.047  0.066  0.016    0.088  0.120  0.028   -0.138 -0.170 -0.078
 O         -0.014  0.035 -0.008    0.003 -0.009  0.002   -0.002  0.006 -0.001
 O          0.010 -0.021 -0.046   -0.003  0.006  0.012    0.003 -0.004 -0.008
 H          0.068 -0.256  0.933   -0.006  0.069 -0.241   -0.017 -0.052  0.163
 TransDip   0.090 -0.094  0.188    0.236 -0.084  0.025    0.090 -0.181  0.181

 Mode:                37                     38                     39
 Frequency:      1444.45                1452.11                1455.66
 Force Cnst:      2.5395                 1.3184                 1.8134
 Red. Mass:       2.0658                 1.0612                 1.4525
 IR Active:          YES                    YES                    YES
 IR Intens:      151.224                 46.430                125.189
 Raman Active:       YES                    YES                    YES
               X      Y      Z        X      Y      Z        X      Y      Z
 C         -0.012  0.011 -0.006    0.038 -0.009 -0.022   -0.004 -0.005  0.008
 H          0.098 -0.033 -0.009   -0.436  0.214  0.457    0.050 -0.035 -0.119
 H         -0.013 -0.091  0.011   -0.001  0.390 -0.270    0.010 -0.037  0.078
 H          0.005  0.016 -0.008   -0.249 -0.440  0.166    0.079  0.107 -0.037
 C          0.019 -0.009  0.011    0.027 -0.017  0.019   -0.021  0.008 -0.011
 C         -0.022  0.005 -0.059   -0.004 -0.009 -0.005    0.025 -0.006  0.027
 H          0.137 -0.040  0.203    0.058  0.073  0.004   -0.015  0.104 -0.134
 H          0.225  0.063  0.281   -0.042  0.058  0.032   -0.224  0.063 -0.170
 C         -0.043 -0.070 -0.031    0.006  0.001 -0.015    0.028  0.028 -0.099
 H         -0.218  0.331  0.435   -0.066  0.047  0.088   -0.421  0.167  0.428
 C          0.133  0.129 -0.123   -0.010 -0.004  0.007   -0.088 -0.061  0.069
 O          0.001  0.002 -0.005    0.004  0.006 -0.021    0.000 -0.002  0.006
 O         -0.013  0.013  0.001   -0.010  0.003  0.002    0.009 -0.011  0.005
 O         -0.085  0.028  0.078    0.006 -0.002 -0.005    0.052 -0.018 -0.045
 O          0.006 -0.103 -0.007    0.000  0.003  0.000   -0.002  0.048  0.002
 H          0.310 -0.085  0.495    0.049 -0.048  0.092    0.295 -0.241  0.521
 O          0.001 -0.002  0.000   -0.000  0.000 -0.000   -0.001  0.001 -0.000
 O         -0.001  0.002  0.003    0.000 -0.000 -0.001    0.001 -0.001 -0.002
 H         -0.000  0.007 -0.055   -0.004 -0.005  0.012   -0.005 -0.006  0.033
 TransDip   0.309  0.183 -0.161   -0.072 -0.023  0.205   -0.249 -0.039  0.255

 Mode:                40                     41                     42
 Frequency:      1462.96                1485.98                1598.92
 Force Cnst:      1.3395                 1.5087                14.7779
 Red. Mass:       1.0622                 1.1596                 9.8109
 IR Active:          YES                    YES                    YES
 IR Intens:       26.901                 46.615               1369.460
 Raman Active:       YES                    YES                    YES
               X      Y      Z        X      Y      Z        X      Y      Z
 C         -0.034 -0.028 -0.038    0.011 -0.005  0.014    0.002 -0.001  0.002
 H         -0.295  0.079 -0.132    0.019 -0.013 -0.035    0.001 -0.001  0.001
 H          0.087  0.485  0.491    0.002 -0.045 -0.027    0.001 -0.003  0.001
 H          0.620  0.015  0.084   -0.047  0.043 -0.024   -0.003  0.001 -0.000
 C          0.010 -0.030 -0.011   -0.034  0.021 -0.021   -0.005  0.005 -0.006
 C         -0.003 -0.006 -0.004    0.012 -0.076  0.004    0.010 -0.001  0.016
 H          0.029  0.045 -0.007    0.170  0.570 -0.396   -0.063 -0.038 -0.043
 H         -0.008  0.041  0.046   -0.408  0.485  0.223    0.004 -0.040 -0.027
 C         -0.002 -0.004  0.005   -0.013 -0.010  0.017    0.004 -0.072 -0.010
 H          0.019  0.004 -0.007    0.051 -0.038 -0.059   -0.027 -0.112 -0.027
 C          0.008  0.007 -0.007    0.028  0.024 -0.024   -0.325  0.615  0.295
 O         -0.003  0.002  0.007   -0.003 -0.004  0.013   -0.000 -0.001  0.003
 O         -0.004  0.005  0.001    0.030 -0.017  0.003    0.005 -0.001 -0.001
 O         -0.005  0.002  0.004   -0.016  0.006  0.015    0.159 -0.102 -0.145
 O          0.000 -0.005 -0.000    0.001 -0.017 -0.001    0.066 -0.316 -0.061
 H         -0.006  0.011 -0.015   -0.011  0.071 -0.055    0.172  0.416 -0.175
 O          0.000  0.000 -0.000   -0.000  0.000 -0.000   -0.001  0.001 -0.000
 O          0.000  0.000 -0.000    0.001 -0.000 -0.000    0.003 -0.007 -0.001
 H         -0.002 -0.002  0.001   -0.016 -0.012  0.011    0.000  0.053 -0.004
 TransDip   0.127  0.107  0.005   -0.008  0.182 -0.121   -0.526  0.965  0.444

 Mode:                43                     44                     45
 Frequency:      1765.96                3070.77                3077.07
 Force Cnst:     19.6421                 5.9107                 5.7902
 Red. Mass:      10.6900                 1.0639                 1.0379
 IR Active:          YES                    YES                    YES
 IR Intens:      577.644                 12.880                  0.390
 Raman Active:       YES                    YES                    YES
               X      Y      Z        X      Y      Z        X      Y      Z
 C         -0.015  0.034 -0.082   -0.000  0.000 -0.000    0.008 -0.036  0.037
 H          0.056 -0.002 -0.120   -0.002 -0.005  0.000    0.263  0.667 -0.052
 H          0.006 -0.126  0.244    0.005 -0.000 -0.001   -0.440  0.014  0.082
 H          0.032  0.140 -0.127   -0.001  0.002  0.004    0.095 -0.259 -0.452
 C         -0.239 -0.173  0.692    0.000 -0.000 -0.000   -0.002  0.001 -0.001
 C          0.012 -0.015  0.041   -0.003 -0.005  0.003    0.000  0.000 -0.000
 H         -0.051  0.118 -0.174   -0.027  0.017  0.019    0.002 -0.002 -0.001
 H         -0.132  0.037 -0.008    0.056  0.062 -0.055   -0.002 -0.002  0.002
 C         -0.004  0.006 -0.005   -0.017  0.016 -0.067    0.000 -0.000 -0.001
 H         -0.006 -0.053 -0.039    0.538 -0.413  0.570    0.004 -0.003  0.004
 C          0.003  0.007 -0.001   -0.001 -0.001  0.000   -0.000 -0.000  0.000
 O          0.182  0.092 -0.423   -0.000  0.000  0.000    0.000 -0.000 -0.000
 O          0.010  0.011 -0.047    0.000 -0.000  0.000   -0.000  0.000  0.000
 O         -0.001 -0.000  0.001    0.000  0.000 -0.000    0.000 -0.000  0.000
 O          0.000 -0.004 -0.000   -0.000  0.000 -0.000   -0.000  0.000 -0.000
 H         -0.026 -0.003 -0.013   -0.322  0.215  0.221   -0.005  0.003  0.003
 O         -0.000  0.000  0.000   -0.000  0.000  0.000   -0.000 -0.000 -0.000
 O         -0.000 -0.000  0.000   -0.000  0.000  0.000   -0.000 -0.000  0.000
 H          0.004  0.003 -0.003    0.000 -0.001 -0.000   -0.000  0.000  0.000
 TransDip  -0.428 -0.108  0.631   -0.024 -0.008 -0.112    0.007 -0.011  0.015

 Mode:                46                     47                     48
 Frequency:      3110.23                3132.63                3152.30
 Force Cnst:      6.0461                 6.3629                 6.4352
 Red. Mass:       1.0608                 1.1005                 1.0991
 IR Active:          YES                    YES                    YES
 IR Intens:       29.221                 29.262                  3.921
 Raman Active:       YES                    YES                    YES
               X      Y      Z        X      Y      Z        X      Y      Z
 C          0.001 -0.000 -0.000   -0.000 -0.000  0.000   -0.031 -0.075 -0.041
 H          0.002  0.003 -0.000    0.001  0.002 -0.000    0.240  0.613 -0.061
 H         -0.007 -0.000  0.002   -0.001  0.000  0.000    0.257 -0.023 -0.053
 H          0.000 -0.000 -0.001    0.000 -0.001 -0.001   -0.133  0.322  0.603
 C         -0.002  0.000  0.001    0.000 -0.000  0.000    0.000 -0.001  0.001
 C         -0.006 -0.067  0.010    0.012  0.007 -0.012    0.000  0.000  0.000
 H         -0.398  0.267  0.284   -0.052  0.035  0.036   -0.000 -0.000 -0.000
 H          0.464  0.514 -0.426   -0.105 -0.119  0.099   -0.000  0.000 -0.000
 C         -0.007  0.005  0.009   -0.073  0.050  0.014    0.000 -0.000  0.000
 H         -0.027  0.016 -0.027    0.261 -0.202  0.294   -0.001  0.001 -0.001
 C          0.001  0.001 -0.000   -0.001  0.002  0.000    0.000  0.000 -0.000
 O          0.000  0.000 -0.001   -0.000 -0.000 -0.000    0.000 -0.000 -0.000
 O          0.001 -0.000  0.001    0.000 -0.000  0.000   -0.000  0.000  0.000
 O         -0.000  0.000  0.000    0.000 -0.000 -0.000   -0.000  0.000  0.000
 O          0.000 -0.000  0.000    0.000 -0.001 -0.000    0.000 -0.000  0.000
 H          0.105 -0.068 -0.076    0.618 -0.412 -0.452    0.000 -0.000 -0.000
 O         -0.000  0.000 -0.000   -0.000  0.000 -0.000    0.000 -0.000  0.000
 O          0.000  0.000 -0.000    0.000 -0.000 -0.000    0.000 -0.000 -0.000
 H          0.002 -0.000 -0.000   -0.000  0.003  0.000   -0.000  0.000  0.000
 TransDip  -0.024 -0.160  0.063   -0.126  0.111  0.043   -0.031 -0.033 -0.044

 Mode:                49                     50                     51
 Frequency:      3175.40                3188.30                3559.64
 Force Cnst:      6.5821                 6.6216                 7.9973
 Red. Mass:       1.1079                 1.1056                 1.0712
 IR Active:          YES                    YES                    YES
 IR Intens:        5.483                  8.337                936.565
 Raman Active:       YES                    YES                    YES
               X      Y      Z        X      Y      Z        X      Y      Z
 C          0.000 -0.000 -0.000   -0.081  0.009  0.047    0.000  0.000 -0.000
 H         -0.000 -0.000  0.000    0.050  0.160 -0.005   -0.000 -0.000 -0.000
 H         -0.003  0.000  0.001    0.842 -0.036 -0.150   -0.000  0.000 -0.000
 H         -0.000  0.001  0.001    0.079 -0.232 -0.413   -0.000 -0.000 -0.000
 C          0.000 -0.000  0.001   -0.001 -0.000  0.002    0.000 -0.000 -0.000
 C         -0.074  0.006  0.058   -0.000 -0.000  0.000    0.000 -0.000 -0.000
 H          0.580 -0.410 -0.423    0.000  0.000 -0.000   -0.003  0.004  0.003
 H          0.300  0.340 -0.272    0.003  0.004 -0.003   -0.002 -0.001  0.000
 C         -0.012  0.008  0.005   -0.000  0.000  0.000    0.000 -0.000 -0.000
 H          0.031 -0.022  0.033   -0.001  0.000 -0.001   -0.001  0.000 -0.000
 C         -0.000  0.001  0.000    0.000  0.000 -0.000    0.003 -0.002 -0.003
 O         -0.000  0.000 -0.000    0.000  0.000 -0.001   -0.000 -0.000  0.000
 O          0.000 -0.000 -0.000    0.000 -0.000 -0.000   -0.000 -0.000 -0.000
 O          0.000 -0.000 -0.000   -0.000 -0.000  0.000   -0.002  0.001  0.001
 O          0.000 -0.000 -0.000    0.000 -0.000  0.000   -0.001  0.001  0.001
 H          0.111 -0.079 -0.084    0.001 -0.001 -0.001   -0.003  0.000  0.002
 O         -0.000 -0.000  0.000    0.000  0.000  0.000   -0.000  0.001 -0.001
 O          0.000 -0.000 -0.000    0.000 -0.000 -0.000    0.024 -0.059 -0.014
 H         -0.004  0.005  0.002   -0.000  0.000  0.000   -0.361  0.900  0.235
 TransDip  -0.049 -0.005  0.057   -0.087  0.016  0.027   -0.412  0.885  0.090

 STANDARD THERMODYNAMIC QUANTITIES AT   298.15 K  AND     1.00 ATM

   This Molecule has  0 Imaginary Frequencies
   Zero point vibrational energy:       86.249 kcal/mol

   Atom    1 Element C  Has Mass   12.00000
   Atom    2 Element H  Has Mass    1.00783
   Atom    3 Element H  Has Mass    1.00783
   Atom    4 Element H  Has Mass    1.00783
   Atom    5 Element C  Has Mass   12.00000
   Atom    6 Element C  Has Mass   12.00000
   Atom    7 Element H  Has Mass    1.00783
   Atom    8 Element H  Has Mass    1.00783
   Atom    9 Element C  Has Mass   12.00000
   Atom   10 Element H  Has Mass    1.00783
   Atom   11 Element C  Has Mass   12.00000
   Atom   12 Element O  Has Mass   15.99491
   Atom   13 Element O  Has Mass   15.99491
   Atom   14 Element O  Has Mass   15.99491
   Atom   15 Element O  Has Mass   15.99491
   Atom   16 Element H  Has Mass    1.00783
   Atom   17 Element O  Has Mass   15.99491
   Atom   18 Element O  Has Mass   15.99491
   Atom   19 Element H  Has Mass    1.00783
   Molecular Mass:   164.032100 amu
   Principal axes and moments of inertia in amu*Bohr^2:
                             1           2           3
    Eigenvalues --     1271.47747  3289.06133  3848.25464
          X               0.95540     0.26750    -0.12514
          Y              -0.28643     0.94254    -0.17198
          Z               0.07195     0.20015     0.97712
   Rotational Symmetry Number is   1
   The Molecule is an Asymmetric Top
   Translational Enthalpy:        0.889 kcal/mol
   Rotational Enthalpy:           0.889 kcal/mol
   Vibrational Enthalpy:         92.895 kcal/mol
   gas constant (RT):             0.592 kcal/mol
   Translational Entropy:        41.193  cal/mol.K
   Rotational Entropy:           31.154  cal/mol.K
   Vibrational Entropy:          50.731  cal/mol.K

   Total Enthalpy:               95.265 kcal/mol
   Total Entropy:               123.078  cal/mol.K
Archival summary:
1\1\c5-80\FREQ\ProcedureUnspecified\BasisUnspecified\658(2-,1)\leeping\SatMar2112:15:022020SatMar2112:15:022020\0\\#,FREQ,ProcedureUnspecified,BasisUnspecified,\\-2,1\O\C,1,1.33669\O,2,1.213,1,123.58\C,1,1.4498,2,117.679,3,-2.67687,0\H,4,1.08966,1,104.549,2,157.262,0\H,4,1.09148,1,108.914,2,39.9122,0\C,2,1.5024,1,111.551,3,179.25,0\H,7,1.08903,2,109.885,1,166.807,0\H,7,1.09148,2,110.496,1,44.4353,0\H,7,1.09429,2,108.468,1,-73.6941,0\C,4,1.5166,1,110.773,2,-82.9765,0\H,11,1.09221,4,110.576,1,66.1532,0\H,11,1.09673,4,107.514,1,-176.141,0\C,11,1.53743,4,112.792,1,-57.1816,0\O,14,1.25389,11,117.519,4,129.982,0\O,14,1.26236,11,117.043,4,-50.6663,0\H,16,1.83752,14,130.451,11,-7.359,0\O,17,0.976462,16,174.793,14,172.398,0\O,18,1.47228,17,102.406,16,142.788,0\\\@

 Total job time:  48239.41s(wall), 672778.33s(cpu) 
 Sat Mar 21 12:15:02 2020

        *************************************************************
        *                                                           *
        *  Thank you very much for using Q-Chem.  Have a nice day.  *
        *                                                           *
        *************************************************************


