19   
From 2-transition-freq.out: Frame 1 / 115, Energy=    -646.9213980148
C       -3.1244013448    0.6124285276   -0.9962948017
H       -3.1170544490    1.6723215314   -0.7206074227
H       -4.1026070729    0.1994644110   -0.7448774582
H       -2.9454919576    0.5399559589   -2.0702469954
C       -2.0329122380   -0.0893735846   -0.2060097718
C        0.5441521289   -0.8616260289    0.1732379755
H        1.0024602452   -1.0675566045   -0.7788438283
H       -0.0836235480   -1.6095846044    0.6289321592
C        0.9269419032    0.3544119641    0.9744877073
H        1.4625041102    0.0210000954    1.8677150888
C        1.8482644319    1.3429676159    0.2465834100
O       -2.2881482602   -0.5837961764    0.9016239772
O       -0.8734860631   -0.0869834017   -0.7635650453
O        2.7439332800    0.8654857721   -0.5077510885
O        1.6763122983    2.5635361316    0.4786797369
H        0.0297734683    0.8758993995    1.3104299533
O        2.1245803647   -2.0149663400    0.8132622229
O        3.1183282474   -1.8537742626   -0.2357274970
H        3.0904744556   -0.8798104041   -0.3710283226
