
Running Job 1 of 1 qc-freq2.in
qchem qc-freq2.in_28372.0 /scratch/lmgong/1862652/qc-freq2.d/ 1
/home/leeping/opt/qchem/5.0.2-openmp/exe/qcprog.exe_s qc-freq2.in_28372.0 /scratch/lmgong/1862652/qc-freq2.d/
Check license passed

                  Welcome to Q-Chem
     A Quantum Leap Into The Future Of Chemistry


 Q-Chem 5.0, Q-Chem, Inc., Pleasanton, CA (2017)

 Yihan Shao,  Zhengting Gan,  E. Epifanovsky,  A. T. B. Gilbert,  M. Wormit,  
 J. Kussmann,  A. W. Lange,  A. Behn,  Jia Deng,  Xintian Feng,  D. Ghosh,  
 M. Goldey,  P. R. Horn,  L. D. Jacobson,  I. Kaliman,  T. Kus,  A. Landau,  
 Jie Liu,  E. I. Proynov,  R. M. Richard,  R. P. Steele,  E. J. Sundstrom,  
 H. L. Woodcock III,  P. M. Zimmerman,  D. Zuev,  B. Albrecht,  E. Alguire,  
 S. A. Baeppler,  D. Barton,  Z. Benda,  Y. A. Bernard,  E. J. Berquist,  
 K. B. Bravaya,  H. Burton,  D. Casanova,  Chun-Min Chang,  Yunqing Chen,  
 A. Chien,  K. D. Closser,  M. P. Coons,  S. Dasgupta,  A. L. Dempwolff,  
 M. Diedenhofen,  Hainam Do,  R. G. Edgar,  Po-Tung Fang,  S. Fatehi,  
 Qingguo Feng,  J. Fosso-Tande,  Qinghui Ge,  A. Ghysels,  G. Gidofalvi,  
 J. Gomes,  J. Gonthier,  A. Gunina,  M. W. D. Hanson-Heine,  
 P. H. P. Harbach,  A. W. Hauser,  J. E. Herr,  E. G. Hohenstein,  
 Z. C. Holden,  Kerwin Hui,  T.-C. Jagau,  Hyunjun Ji,  B. Kaduk,  
 K. Khistyaev,  Jaehoon Kim,  P. Klunzinger,  K. Koh,  D. Kosenkov,  
 L. Koulias,  T. Kowalczyk,  C. M. Krauter,  A. Kunitsa,  Ka Un Lao,  
 A. Laurent,  K. V. Lawler,  Joonho Lee,  D. Lefrancois,  S. Lehtola,  
 D. S. Levine,  Yi-Pei Li,  You-Sheng Lin,  Fenglai Liu,  E. Livshits,  
 A. Luenser,  P. Manohar,  E. Mansoor,  S. F. Manzer,  Shan-Ping Mao,  
 Yuezhi Mao,  N. Mardirossian,  A. V. Marenich,  T. Markovich,  
 L. A. Martinez-Martinez,  S. A. Maurer,  N. J. Mayhall,  S. C. McKenzie,  
 J.-M. Mewes,  A. F. Morrison,  J. W. Mullinax,  K. Nanda,  
 T. S. Nguyen-Beck,  R. Olivares-Amaya,  J. A. Parkhill,  T. M. Perrine,  
 F. Plasser,  S. Prager,  A. Prociuk,  E. Ramos,  D. R. Rehn,  F. Rob,  
 M. Schneider,  N. Sergueev,  S. M. Sharada,  S. Sharma,  D. W. Small,  
 T. Stauch,  T. Stein,  Yu-Chuan Su,  A. J. W. Thom,  A. Tkatchenko,  
 T. Tsuchimochi,  L. Vogt,  O. Vydrov,  M. A. Watson,  J. Wenzel,  
 M. de Wergifosse,  T. A. Wesolowski,  A. White,  J. Witte,  A. Yamada,  
 Jun Yang,  K. Yao,  S. Yeganeh,  S. R. Yost,  Zhi-Qiang You,  A. Zech,  
 Igor Ying Zhang,  Xing Zhang,  Yan Zhao,  Ying Zhu,  B. R. Brooks,  
 G. K. L. Chan,  C. J. Cramer,  M. S. Gordon,  W. J. Hehre,  A. Klamt,  
 M. W. Schmidt,  C. D. Sherrill,  D. G. Truhlar,  A. Aspuru-Guzik,  R. Baer,  
 A. T. Bell,  N. A. Besley,  Jeng-Da Chai,  R. A. DiStasio Jr.,  A. Dreuw,  
 B. D. Dunietz,  T. R. Furlani,  Chao-Ping Hsu,  Yousung Jung,  Jing Kong,  
 D. S. Lambrecht,  WanZhen Liang,  C. Ochsenfeld,  V. A. Rassolov,  
 L. V. Slipchenko,  J. E. Subotnik,  T. Van Voorhis,  J. M. Herbert,  
 A. I. Krylov,  P. M. W. Gill,  M. Head-Gordon

 Contributors to earlier versions of Q-Chem not listed above: 
 R. D. Adamson,  B. Austin,  J. Baker,  G. J. O. Beran,  K. Brandhorst,  
 S. T. Brown,  E. F. C. Byrd,  A. K. Chakraborty,  C.-L. Cheng,  
 Siu Hung Chien,  D. M. Chipman,  D. L. Crittenden,  H. Dachsel,  
 R. J. Doerksen,  A. D. Dutoi,  L. Fusti-Molnar,  W. A. Goddard III,  
 A. Golubeva-Zadorozhnaya,  S. R. Gwaltney,  G. Hawkins,  A. Heyden,  
 S. Hirata,  G. Kedziora,  F. J. Keil,  C. Kelley,  Jihan Kim,  R. A. King,  
 R. Z. Khaliullin,  P. P. Korambath,  W. Kurlancheek,  A. M. Lee,  M. S. Lee,  
 S. V. Levchenko,  Ching Yeh Lin,  D. Liotard,  R. C. Lochan,  I. Lotan,  
 P. E. Maslen,  N. Nair,  D. P. O'Neill,  D. Neuhauser,  E. Neuscamman,  
 C. M. Oana,  R. Olson,  B. Peters,  R. Peverati,  P. A. Pieniazek,  
 Y. M. Rhee,  J. Ritchie,  M. A. Rohrdanz,  E. Rosta,  N. J. Russ,  
 H. F. Schaefer III,  N. E. Schultz,  N. Shenvi,  A. C. Simmonett,  A. Sodt,  
 D. Stuck,  K. S. Thanthiriwatte,  V. Vanovschi,  Tao Wang,  A. Warshel,  
 C. F. Williams,  Q. Wu,  X. Xu,  W. Zhang

 Please cite Q-Chem as follows:
 Y. Shao et al., Mol. Phys. 113, 184-215 (2015)
 DOI: 10.1080/00268976.2014.952696

 Q-Chem 5.0.2 for Intel X86 EM64T Linux

 Parts of Q-Chem use Armadillo 5.200.1 (Boston Tea Smuggler).
 http://arma.sourceforge.net/

 Q-Chem begins on Fri Mar 20 13:57:21 2020  

Host: 
0

     Scratch files written to /scratch/lmgong/1862652/qc-freq2.d//
 Dec517 15110_ 26548  26544 5633   
Processing $rem in /home/leeping/opt/qchem/5.0.2-openmp/config/preferences.
 MEM_STATIC 2000
 MEM_TOTAL  8000
 SYMMETRY   OFF
 SYM_IGNORE TRUE 
Symmetry turned off for PCM/SM12/SMD calculation

Checking the input file for inconsistencies... 	...done.

--------------------------------------------------------------
User input:
--------------------------------------------------------------
$molecule
-2 1
O       -0.2062626506    0.5930440079   -2.9217890986
C       -0.9793976066    0.6958802960   -1.7927891354
H       -1.8720350043    1.3509792477   -1.9337980431
H       -0.4328286424    1.1445194159   -0.9315130508
H       -0.6706866087   -1.3276763290   -1.1042585291
C       -2.3614384095   -0.5122500332   -0.0385237379
O       -1.7388146426   -0.4440857004    1.0834598673
O       -3.6001016157   -0.4099446370   -0.1308092658
O        0.8971013713    1.4236788957    1.8021673715
H        3.2199133927   -0.0631086571    0.4584185764
C        2.8940370901    0.1240456411    1.4857156009
H        3.1387119730   -0.7619301445    2.0766225973
H        3.4147468631    0.9951600119    1.8815758104
C        1.4023277120    0.3506305225    1.4942124407
H       -2.1396762538   -1.1092029906   -2.0884691439
O        0.7131696393   -0.7047018562    1.1336915365
H       -0.3513580451   -0.5323548756    1.0923194255
C       -1.5249448080   -0.6698871517   -1.2967813149
$end

$rem
jobtype               freq
method                wb97x-v
basis                 def2-tzvpd
symmetry              off
sym_ignore            true
incdft                false
incfock               0
!scf_algorithm        diis_gdm
scf_convergence       8
thresh                14
!purecart             112
max_scf_cycles        1000
geom_opt_max_cycles   500
geom_opt_dmax         100
geom_opt_tol_gradient 10
solvent_method        pcm
ideriv                1
rpath_tol_displacement 1000
rpath_max_cycles      100
rpath_direction       1
!scf_guess            read
scf_guess             read
$end

$pcm
theory              cosmo
method              iswig
Radii               bondi
vdwScale            1.20
hpoints             110
heavypoints         110
$end

$solvent
dielectric 78.400000
$end

--------------------------------------------------------------
 ----------------------------------------------------------------
             Standard Nuclear Orientation (Angstroms)
    I     Atom           X                Y                Z
 ----------------------------------------------------------------
    1      O      -0.2062626506     0.5930440079    -2.9217890986
    2      C      -0.9793976066     0.6958802960    -1.7927891354
    3      H      -1.8720350043     1.3509792477    -1.9337980431
    4      H      -0.4328286424     1.1445194159    -0.9315130508
    5      H      -0.6706866087    -1.3276763290    -1.1042585291
    6      C      -2.3614384095    -0.5122500332    -0.0385237379
    7      O      -1.7388146426    -0.4440857004     1.0834598673
    8      O      -3.6001016157    -0.4099446370    -0.1308092658
    9      O       0.8971013713     1.4236788957     1.8021673715
   10      H       3.2199133927    -0.0631086571     0.4584185764
   11      C       2.8940370901     0.1240456411     1.4857156009
   12      H       3.1387119730    -0.7619301445     2.0766225973
   13      H       3.4147468631     0.9951600119     1.8815758104
   14      C       1.4023277120     0.3506305225     1.4942124407
   15      H      -2.1396762538    -1.1092029906    -2.0884691439
   16      O       0.7131696393    -0.7047018562     1.1336915365
   17      H      -0.3513580451    -0.5323548756     1.0923194255
   18      C      -1.5249448080    -0.6698871517    -1.2967813149
 ----------------------------------------------------------------
 Nuclear Repulsion Energy =   524.7335561232 hartrees
 There are       40 alpha and       40 beta electrons
 Requested basis set is def2-TZVPD
 There are 175 shells and 457 basis functions

 Total QAlloc Memory Limit   8000 MB
 Mega-Array Size      1956 MB
 MEM_STATIC part      2000 MB
 Discretize the solute cavity surface with Lebedev spheres
	Using 110 Lebedev grid points for each H atom
	Using 110 Lebedev grid points for other atoms
	Atomic van der Waals radii will be scaled by 1.20
 Remove points where switching function is < 1.0e-08
 Keep 1121 surface tesserae and discard 859 interior tesserae
 Molecular Surface Area = 200.086 Angst**2
 A cutoff of  1.0D-14 yielded  13819 shell pairs
 There are     94679 function pairs (    120437 Cartesian)
 
 -------------------------------------------------------
 OpenMP Integral Computing Module                       
 Release: version 1.0, May 2013, Q-Chem Inc. Pittsburgh 
 -------------------------------------------------------
 Integral Job Info:
 Integral job number is                      11
 Integral operator is                         1
 short-range coefficients              16700000
 long-range coefficients              100000000
 Omega coefficients                         300
 if combine SR and LR in K                    1
 Integral screening is                        0
 Integral computing path is                   2
 max size of driver memory is            800000
 size of driver memory is                776718
 size of scratch memory is              4473992
 max col of scratch BK array              10000
 max len of scratch array in speh3          662
 max len of scratch index in speh4           32
 max int batch size is                      520
 min int batch size is                       52
 fixed nKL is                                52
 max L of basis functions is                  3
 order of int derivative is                   0
 number of shells is                        175
 number of basis is                         517
 number of cartesian basis is               517
 number of contracted shell pairs         13819
 number of primitive shell pairs          27645
 maxK2 (contraction) of shell pair           36
 max number of K2 of shell pair               1
 max number of CS2 of shell pair           2309
 max number of PS2 of shell pair           3138
 mem total for path MDJ                  780264
 -------------------------------------------------------
 Smallest overlap matrix eigenvalue = 6.73E-06
 Guess MOs from SCF MO coefficient file
 Reading MOs from coefficient file
 Reading MOs from coefficient file
 Long-range K will be added via erf
 Coulomb attenuation parameter = 0.3 bohr**(-1)
 A restricted hybrid HF-DFT SCF calculation will be
 performed using Pulay DIIS extrapolation
 Polarizable Continuum solvation model will be applied
 Exchange:     0.1670 Hartree-Fock + 1.0000 wB97X-V + LR-HF
 Correlation:  1.0000 wB97X-V
 Using SG-2 standard quadrature grid
 Nonlocal Correlation:  VV10 with C = 0.0100 and b = 6.00
 Grid used for NLC:  SG-1 standard quadrature
 SCF converges when DIIS error is below 1.0E-08
Using Q-Chem read-in guess as SCF_GUESS READ specified.

 using 16 threads for integral computing
 -------------------------------------------------------
 OpenMP Integral computing Module                
 Release: version 1.0, May 2013, Q-Chem Inc. Pittsburgh 
 -------------------------------------------------------
 using 16 threads for integral computing
 -------------------------------------------------------
 OpenMP Integral computing Module                
 Release: version 1.0, May 2013, Q-Chem Inc. Pittsburgh 
 -------------------------------------------------------
 -------------------------------------------------------
 OpenMP BLAS3 based DFT computing Module                
 Release: version 1.0, May 2013, Q-Chem Inc. Pittsburgh 
 -------------------------------------------------------
 -------------------------------------------------------
 OpenMP BLAS3 based DFT computing Module                
 Release: version 1.0, May 2013, Q-Chem Inc. Pittsburgh 
 -------------------------------------------------------
 -------------------------------------------------------
 OpenMP BLAS3 based DFT computing Module                
 Release: version 1.0, May 2013, Q-Chem Inc. Pittsburgh 
 -------------------------------------------------------
 ---------------------------------------
  Cycle       Energy         DIIS Error
 ---------------------------------------
    1    -571.4981146127      3.92E-04
    2    -571.8132532998      4.27E-04
    3    -571.8198153784      2.00E-04
    4    -571.8208918001      1.44E-04
    5    -571.8215949698      1.08E-04
    6    -571.8219497401      8.58E-05
    7    -571.8222007701      6.52E-05
    8    -571.8223486520      4.92E-05
    9    -571.8224326480      3.72E-05
   10    -571.8224766200      2.89E-05
   11    -571.8225049539      2.20E-05
   12    -571.8225218688      1.65E-05
   13    -571.8225306973      1.28E-05
   14    -571.8225363165      9.63E-06
   15    -571.8225388598      7.81E-06
   16    -571.8225409606      5.91E-06
   17    -571.8225437649      5.29E-09 Convergence criterion met
 ---------------------------------------

************** Final PCM Free Energy Summary **************
 G_electrostatic  =      -0.32443039 hartree =    -203.58313949 kcal/mol
 G_cavitation     =       0.00000000 hartree =       0.00000000 kcal/mol
 G_dispersion     =       0.00000000 hartree =       0.00000000 kcal/mol
 G_repulsion      =       0.00000000 hartree =       0.00000000 kcal/mol
 --------------------------------------------------
 Non-electrostatic Free Energy =       0.00000000 hartree =       0.00000000 kcal/mol
 Total                         =      -0.32443039 hartree =    -203.58313949 kcal/mol
 --------------------------------------------------
 SCF Energy (H0 + V/2)                       =    -571.82254376 
 Solute Internal Energy (H0)                 =    -571.49811338 
 Total Free Energy (H0 + V/2 + non-elec)     =    -571.82254376 hartree
                                             = -358824.06194379 kcal/mol
***********************************************************

 SCF time:  CPU 4095.33 s  wall 294.17 s
 SCF   energy in the final basis set = -571.82254376
 Total energy in the final basis set = -571.82254376
 
 --------------------------------------------------------------
 
                    Orbital Energies (a.u.)
 --------------------------------------------------------------
 
 Alpha MOs
 -- Occupied --
-19.211 -19.181 -19.164 -19.152 -19.086 -10.386 -10.353 -10.269
-10.260 -10.235  -1.207  -1.162  -1.114  -1.067  -1.013  -0.866
 -0.845  -0.707  -0.689  -0.620  -0.592  -0.575  -0.571  -0.556
 -0.548  -0.519  -0.514  -0.502  -0.480  -0.461  -0.447  -0.436
 -0.431  -0.403  -0.372  -0.365  -0.358  -0.343  -0.280  -0.279
 -- Virtual --
  0.060   0.075   0.080   0.084   0.099   0.106   0.109   0.114
  0.120   0.123   0.127   0.134   0.142   0.149   0.156   0.161
  0.163   0.169   0.182   0.189   0.193   0.201   0.211   0.218
  0.222   0.234   0.240   0.246   0.251   0.253   0.266   0.267
  0.277   0.283   0.291   0.295   0.303   0.311   0.314   0.316
  0.320   0.337   0.340   0.345   0.351   0.359   0.362   0.364
  0.370   0.373   0.375   0.380   0.387   0.389   0.399   0.404
  0.406   0.416   0.425   0.431   0.434   0.436   0.444   0.450
  0.454   0.459   0.465   0.472   0.473   0.477   0.483   0.490
  0.491   0.495   0.500   0.504   0.513   0.516   0.519   0.529
  0.532   0.534   0.546   0.549   0.554   0.564   0.568   0.580
  0.586   0.600   0.608   0.613   0.621   0.627   0.634   0.638
  0.645   0.649   0.659   0.662   0.677   0.678   0.683   0.688
  0.694   0.708   0.712   0.726   0.728   0.741   0.743   0.746
  0.753   0.762   0.767   0.777   0.781   0.785   0.790   0.794
  0.805   0.807   0.809   0.816   0.826   0.827   0.836   0.846
  0.854   0.855   0.862   0.873   0.877   0.883   0.890   0.907
  0.913   0.930   0.955   0.967   0.976   0.979   0.998   1.001
  1.015   1.022   1.046   1.056   1.073   1.084   1.093   1.099
  1.115   1.122   1.127   1.137   1.156   1.170   1.178   1.193
  1.216   1.229   1.238   1.243   1.261   1.273   1.291   1.298
  1.320   1.338   1.345   1.377   1.379   1.387   1.395   1.406
  1.410   1.415   1.437   1.445   1.479   1.500   1.539   1.554
  1.571   1.575   1.607   1.634   1.672   1.688   1.741   1.824
  1.834   1.858   1.873   1.883   1.894   1.902   1.910   1.919
  1.931   1.939   1.951   1.958   1.981   1.990   2.010   2.025
  2.034   2.039   2.058   2.069   2.098   2.106   2.125   2.133
  2.149   2.158   2.168   2.184   2.210   2.233   2.256   2.269
  2.276   2.322   2.339   2.350   2.379   2.382   2.391   2.408
  2.421   2.434   2.454   2.475   2.489   2.505   2.518   2.545
  2.555   2.575   2.583   2.619   2.641   2.656   2.670   2.690
  2.698   2.736   2.759   2.766   2.806   2.823   2.838   2.840
  2.889   2.899   2.924   2.934   2.950   2.959   2.985   2.992
  3.012   3.036   3.074   3.093   3.118   3.146   3.190   3.210
  3.223   3.231   3.255   3.266   3.283   3.310   3.322   3.336
  3.344   3.359   3.366   3.369   3.391   3.400   3.423   3.444
  3.447   3.460   3.475   3.478   3.489   3.509   3.524   3.555
  3.587   3.596   3.615   3.621   3.632   3.640   3.649   3.668
  3.671   3.688   3.712   3.733   3.741   3.743   3.755   3.775
  3.785   3.806   3.832   3.838   3.910   3.921   3.978   4.030
  4.068   4.074   4.084   4.092   4.137   4.189   4.247   4.258
  4.294   4.329   4.461   4.545   4.554   4.572   4.604   4.650
  4.677   4.751   4.797   4.810   4.814   4.891   4.914   4.966
  5.028   5.068   5.158   5.289   5.315   5.334   5.349   5.362
  5.368   5.396   5.403   5.417   5.463   5.528   5.560   5.627
  5.631   5.682   5.716   5.728   5.762   5.795   5.972   6.000
  6.075   6.130   6.150   6.201   6.264   6.307   6.314   6.339
  6.364   6.480   6.578   6.625   6.651   6.666   6.710   6.722
  6.734   6.749   6.759   6.767   6.856   6.905   6.968   6.998
  7.006   7.023   7.045   7.064   7.107   7.113   7.224   7.261
  7.338   7.369   7.401   7.402   7.435   7.509   7.755  22.616
 22.842  22.868  23.643  23.702  44.313  44.361  44.403  44.442
 44.577
 --------------------------------------------------------------
 
          Ground-State Mulliken Net Atomic Charges

     Atom                 Charge (a.u.)
  ----------------------------------------
      1 O                    -0.918827
      2 C                    -0.415925
      3 H                     0.138859
      4 H                     0.020197
      5 H                     0.217478
      6 C                     0.299715
      7 O                    -0.682374
      8 O                    -0.664867
      9 O                    -0.584761
     10 H                     0.226622
     11 C                    -0.791085
     12 H                     0.252535
     13 H                     0.222567
     14 C                     0.611001
     15 H                     0.147679
     16 O                    -0.474952
     17 H                     0.380702
     18 C                     0.015438
  ----------------------------------------
  Sum of atomic charges =    -2.000000

 -----------------------------------------------------------------
                    Cartesian Multipole Moments
 -----------------------------------------------------------------
    Charge (ESU x 10^10)
                -9.6064
    Dipole Moment (Debye)
         X      12.4290      Y      -3.6842      Z       8.2232
       Tot      15.3517
    Quadrupole Moments (Debye-Ang)
        XX    -101.7337     XY      -5.0732     YY     -74.3208
        XZ       3.3211     YZ       3.9189     ZZ    -116.0198
    Octopole Moments (Debye-Ang^2)
       XXX     252.6626    XXY      10.3882    XYY      23.0091
       YYY     -22.2790    XXZ       2.9152    XYZ      -6.7387
       YYZ      -3.6089    XZZ      41.8200    YZZ     -39.2796
       ZZZ     125.9983
    Hexadecapole Moments (Debye-Ang^3)
      XXXX   -2051.3635   XXXY    -148.1704   XXYY    -307.1511
      XYYY     -99.4739   YYYY    -295.9929   XXXZ    -214.9450
      XXYZ       4.4054   XYYZ     -88.4742   YYYZ       1.3836
      XXZZ    -437.2225   XYZZ     -40.6400   YYZZ    -267.3347
      XZZZ    -251.7436   YZZZ      68.8981   ZZZZ   -1500.4710
 -----------------------------------------------------------------
 Calculating analytic gradient of the SCF energy
 Gradient of SCF Energy
            1           2           3           4           5           6
    1   0.0063812  -0.0513990   0.0596847  -0.0319665  -0.0728082  -0.0283539
    2  -0.0022415   0.0743065  -0.0441614  -0.0198530   0.0375865   0.0809002
    3  -0.0060158   0.0643948   0.0058312  -0.0596812  -0.0179305   0.0249597
            7           8           9          10          11          12
    1  -0.0377892   0.0662299   0.0345417  -0.0138578   0.0566782  -0.0106234
    2  -0.0045341  -0.0067793  -0.0575411   0.0115254   0.0090151   0.0453027
    3  -0.0377209  -0.0023885  -0.0191122   0.0602431   0.0071429  -0.0292979
           13          14          15          16          17          18
    1  -0.0313714  -0.0579786   0.0553025   0.0238152   0.0184084   0.0151064
    2  -0.0514959   0.0195128   0.0181476   0.0107291   0.0116481  -0.1320675
    3  -0.0225997  -0.0012687   0.0735808   0.0109688  -0.0260149  -0.0250910
 Max gradient component =       1.321E-01
 RMS gradient           =       4.246E-02
 Computing fast CPCM-ISWIG gradient
 Updating gradient with PCM contributions...
 -- total gradient after adding PCM contribution --
---------------------------------------------------
  Atom         X              Y              Z     
---------------------------------------------------
   1      -0.000006      -0.000001       0.000010
   2       0.000003       0.000002      -0.000010
   3       0.000002       0.000000       0.000001
   4       0.000001       0.000002       0.000002
   5      -0.000001       0.000001      -0.000001
   6      -0.000017      -0.000000      -0.000018
   7       0.000001       0.000002       0.000008
   8       0.000013      -0.000001       0.000002
   9      -0.000002       0.000004      -0.000001
  10       0.000000       0.000001       0.000002
  11      -0.000001      -0.000004      -0.000006
  12       0.000001       0.000001       0.000003
  13       0.000000      -0.000001       0.000003
  14      -0.000001      -0.000007      -0.000001
  15      -0.000001      -0.000001      -0.000002
  16       0.000013       0.000008       0.000002
  17      -0.000004      -0.000006       0.000004
  18      -0.000001      -0.000001       0.000005
---------------------------------------------------
 Number of fixed atoms: 0
 Gradient time:  CPU 820.30 s  wall 60.37 s
 ######################################################
 ######################################################
 # Starting finite difference calculation for IDERIV  #
 Finite diff step size:  1.88973e-03 a.u.
 ----------------------------------------------------------------
             Standard Nuclear Orientation (Angstroms)
    I     Atom           X                Y                Z
 ----------------------------------------------------------------
    1      O      -0.2052626506     0.5930440079    -2.9217890986
    2      C      -0.9793976066     0.6958802960    -1.7927891354
    3      H      -1.8720350043     1.3509792477    -1.9337980431
    4      H      -0.4328286424     1.1445194159    -0.9315130508
    5      H      -0.6706866087    -1.3276763290    -1.1042585291
    6      C      -2.3614384095    -0.5122500332    -0.0385237379
    7      O      -1.7388146426    -0.4440857004     1.0834598673
    8      O      -3.6001016157    -0.4099446370    -0.1308092658
    9      O       0.8971013713     1.4236788957     1.8021673715
   10      H       3.2199133927    -0.0631086571     0.4584185764
   11      C       2.8940370901     0.1240456411     1.4857156009
   12      H       3.1387119730    -0.7619301445     2.0766225973
   13      H       3.4147468631     0.9951600119     1.8815758104
   14      C       1.4023277120     0.3506305225     1.4942124407
   15      H      -2.1396762538    -1.1092029906    -2.0884691439
   16      O       0.7131696393    -0.7047018562     1.1336915365
   17      H      -0.3513580451    -0.5323548756     1.0923194255
   18      C      -1.5249448080    -0.6698871517    -1.2967813149
 ----------------------------------------------------------------
 Nuclear Repulsion Energy =   524.7211996339 hartrees
 There are       40 alpha and       40 beta electrons
 Discretize the solute cavity surface with Lebedev spheres
	Using 110 Lebedev grid points for each H atom
	Using 110 Lebedev grid points for other atoms
	Atomic van der Waals radii will be scaled by 1.20
 Remove points where switching function is < 1.0e-08
 Keep 1121 surface tesserae and discard 859 interior tesserae
 Molecular Surface Area = 200.095 Angst**2
 Requested basis set is def2-TZVPD
 There are 175 shells and 457 basis functions
 A cutoff of  1.0D-14 yielded  13819 shell pairs
 There are     94679 function pairs (    120437 Cartesian)
 Smallest overlap matrix eigenvalue = 6.73E-06
 Guess MOs from SCF MO coefficient file
 Reading MOs from coefficient file
 Reading MOs from coefficient file
 Long-range K will be added via erf
 Coulomb attenuation parameter = 0.3 bohr**(-1)
 A restricted hybrid HF-DFT SCF calculation will be
 performed using Pulay DIIS extrapolation
 Polarizable Continuum solvation model will be applied
 Exchange:     0.1670 Hartree-Fock + 1.0000 wB97X-V + LR-HF
 Correlation:  1.0000 wB97X-V
 Using SG-2 standard quadrature grid
 Nonlocal Correlation:  VV10 with C = 0.0100 and b = 6.00
 Grid used for NLC:  SG-1 standard quadrature
 SCF converges when DIIS error is below 1.0E-08
Using Q-Chem read-in guess as SCF_GUESS READ specified.

 using 16 threads for integral computing
 -------------------------------------------------------
 OpenMP Integral computing Module                
 Release: version 1.0, May 2013, Q-Chem Inc. Pittsburgh 
 -------------------------------------------------------
 using 16 threads for integral computing
 -------------------------------------------------------
 OpenMP Integral computing Module                
 Release: version 1.0, May 2013, Q-Chem Inc. Pittsburgh 
 -------------------------------------------------------
 -------------------------------------------------------
 OpenMP BLAS3 based DFT computing Module                
 Release: version 1.0, May 2013, Q-Chem Inc. Pittsburgh 
 -------------------------------------------------------
 -------------------------------------------------------
 OpenMP BLAS3 based DFT computing Module                
 Release: version 1.0, May 2013, Q-Chem Inc. Pittsburgh 
 -------------------------------------------------------
 -------------------------------------------------------
 OpenMP BLAS3 based DFT computing Module                
 Release: version 1.0, May 2013, Q-Chem Inc. Pittsburgh 
 -------------------------------------------------------
 ---------------------------------------
  Cycle       Energy         DIIS Error
 ---------------------------------------
    1    -571.4978410769      3.92E-04
    2    -571.8132536203      4.27E-04
    3    -571.8198141519      2.00E-04
    4    -571.8208904887      1.44E-04
    5    -571.8215960796      1.08E-04
    6    -571.8219564545      8.53E-05
    7    -571.8222158024      6.37E-05
    8    -571.8223756695      4.56E-05
    9    -571.8224701810      3.02E-05
   10    -571.8225208711      1.68E-05
   11    -571.8225392921      7.25E-06
   12    -571.8225432187      1.89E-06
   13    -571.8225434955      3.18E-07
   14    -571.8225435033      4.95E-08
   15    -571.8225435035      1.76E-08
   16    -571.8225435035      4.77E-09 Convergence criterion met
 ---------------------------------------

************** Final PCM Free Energy Summary **************
 G_electrostatic  =      -0.32443872 hartree =    -203.58837203 kcal/mol
 G_cavitation     =       0.00000000 hartree =       0.00000000 kcal/mol
 G_dispersion     =       0.00000000 hartree =       0.00000000 kcal/mol
 G_repulsion      =       0.00000000 hartree =       0.00000000 kcal/mol
 --------------------------------------------------
 Non-electrostatic Free Energy =       0.00000000 hartree =       0.00000000 kcal/mol
 Total                         =      -0.32443872 hartree =    -203.58837203 kcal/mol
 --------------------------------------------------
 SCF Energy (H0 + V/2)                       =    -571.82254350 
 Solute Internal Energy (H0)                 =    -571.49810478 
 Total Free Energy (H0 + V/2 + non-elec)     =    -571.82254350 hartree
                                             = -358824.06177976 kcal/mol
***********************************************************

 SCF time:  CPU 3862.12 s  wall 277.03 s
 SCF   energy in the final basis set = -571.82254350
 Total energy in the final basis set = -571.82254350
 
 --------------------------------------------------------------
 
                    Orbital Energies (a.u.)
 --------------------------------------------------------------
 
 Alpha MOs
 -- Occupied --
-19.211 -19.181 -19.164 -19.152 -19.086 -10.386 -10.353 -10.269
-10.260 -10.235  -1.207  -1.162  -1.114  -1.067  -1.013  -0.866
 -0.845  -0.707  -0.689  -0.620  -0.592  -0.575  -0.571  -0.556
 -0.548  -0.519  -0.514  -0.502  -0.480  -0.461  -0.447  -0.436
 -0.431  -0.403  -0.372  -0.365  -0.358  -0.343  -0.280  -0.279
 -- Virtual --
  0.060   0.075   0.080   0.084   0.099   0.106   0.109   0.114
  0.120   0.123   0.127   0.134   0.142   0.149   0.156   0.161
  0.163   0.169   0.182   0.189   0.193   0.201   0.211   0.218
  0.222   0.234   0.240   0.246   0.251   0.253   0.266   0.267
  0.277   0.283   0.291   0.295   0.303   0.311   0.314   0.316
  0.320   0.337   0.340   0.345   0.351   0.359   0.362   0.364
  0.370   0.373   0.375   0.380   0.387   0.389   0.399   0.404
  0.406   0.416   0.425   0.431   0.434   0.436   0.444   0.450
  0.454   0.459   0.465   0.472   0.473   0.477   0.483   0.490
  0.490   0.495   0.500   0.504   0.513   0.516   0.519   0.529
  0.531   0.534   0.546   0.549   0.554   0.564   0.568   0.580
  0.586   0.600   0.608   0.613   0.621   0.626   0.634   0.638
  0.645   0.649   0.659   0.662   0.677   0.678   0.683   0.688
  0.694   0.708   0.712   0.726   0.728   0.741   0.743   0.746
  0.753   0.762   0.767   0.777   0.781   0.785   0.790   0.794
  0.805   0.807   0.809   0.816   0.826   0.827   0.836   0.846
  0.854   0.855   0.862   0.873   0.877   0.883   0.890   0.907
  0.913   0.930   0.955   0.967   0.976   0.979   0.998   1.001
  1.015   1.022   1.046   1.056   1.073   1.084   1.093   1.099
  1.115   1.122   1.127   1.137   1.156   1.170   1.178   1.193
  1.216   1.229   1.238   1.243   1.261   1.273   1.291   1.298
  1.320   1.338   1.345   1.377   1.379   1.387   1.395   1.406
  1.410   1.415   1.437   1.445   1.479   1.500   1.539   1.554
  1.571   1.575   1.606   1.634   1.672   1.688   1.741   1.824
  1.834   1.858   1.873   1.883   1.894   1.902   1.910   1.919
  1.931   1.939   1.951   1.958   1.981   1.990   2.010   2.025
  2.034   2.039   2.058   2.069   2.098   2.106   2.125   2.133
  2.149   2.158   2.168   2.184   2.210   2.233   2.256   2.269
  2.276   2.322   2.339   2.350   2.379   2.382   2.391   2.408
  2.421   2.434   2.454   2.475   2.489   2.505   2.518   2.545
  2.555   2.575   2.583   2.619   2.641   2.656   2.670   2.690
  2.698   2.736   2.759   2.766   2.806   2.823   2.838   2.840
  2.889   2.899   2.924   2.934   2.950   2.959   2.985   2.992
  3.012   3.036   3.074   3.093   3.118   3.146   3.190   3.210
  3.223   3.230   3.255   3.266   3.283   3.310   3.322   3.336
  3.344   3.359   3.366   3.369   3.390   3.400   3.423   3.444
  3.447   3.460   3.475   3.478   3.489   3.509   3.524   3.555
  3.587   3.596   3.615   3.621   3.632   3.640   3.648   3.668
  3.671   3.688   3.712   3.733   3.741   3.743   3.755   3.775
  3.785   3.806   3.832   3.838   3.910   3.921   3.978   4.030
  4.068   4.074   4.084   4.092   4.137   4.189   4.247   4.258
  4.294   4.329   4.461   4.545   4.554   4.572   4.604   4.650
  4.677   4.751   4.797   4.810   4.814   4.891   4.914   4.966
  5.028   5.069   5.157   5.289   5.315   5.334   5.349   5.362
  5.368   5.396   5.403   5.417   5.463   5.528   5.560   5.627
  5.631   5.682   5.716   5.728   5.762   5.795   5.972   5.999
  6.074   6.129   6.150   6.201   6.264   6.307   6.314   6.338
  6.364   6.480   6.578   6.625   6.651   6.665   6.710   6.722
  6.734   6.749   6.759   6.767   6.856   6.905   6.968   6.998
  7.006   7.023   7.045   7.064   7.107   7.113   7.224   7.261
  7.338   7.369   7.401   7.402   7.435   7.509   7.755  22.616
 22.841  22.867  23.643  23.702  44.312  44.360  44.403  44.442
 44.577
 --------------------------------------------------------------
 
          Ground-State Mulliken Net Atomic Charges

     Atom                 Charge (a.u.)
  ----------------------------------------
      1 O                    -0.918943
      2 C                    -0.415970
      3 H                     0.139062
      4 H                     0.020137
      5 H                     0.217413
      6 C                     0.299824
      7 O                    -0.682369
      8 O                    -0.664862
      9 O                    -0.584770
     10 H                     0.226617
     11 C                    -0.791080
     12 H                     0.252537
     13 H                     0.222568
     14 C                     0.611019
     15 H                     0.147635
     16 O                    -0.474961
     17 H                     0.380698
     18 C                     0.015445
  ----------------------------------------
  Sum of atomic charges =    -2.000000

 -----------------------------------------------------------------
                    Cartesian Multipole Moments
 -----------------------------------------------------------------
    Charge (ESU x 10^10)
                -9.6064
    Dipole Moment (Debye)
         X      12.4223      Y      -3.6843      Z       8.2258
       Tot      15.3477
    Quadrupole Moments (Debye-Ang)
        XX    -101.7269     XY      -5.0772     YY     -74.3200
        XZ       3.3356     YZ       3.9205     ZZ    -116.0287
    Octopole Moments (Debye-Ang^2)
       XXX     252.6189    XXY      10.3917    XYY      22.9938
       YYY     -22.2806    XXZ       2.9095    XYZ      -6.7286
       YYZ      -3.6044    XZZ      41.7722    YZZ     -39.2865
       ZZZ     126.0373
    Hexadecapole Moments (Debye-Ang^3)
      XXXX   -2051.2741   XXXY    -148.1934   XXYY    -307.1338
      XYYY     -99.4946   YYYY    -295.9885   XXXZ    -214.8637
      XXYZ       4.3990   XYYZ     -88.4398   YYYZ       1.3933
      XXZZ    -437.2009   XYZZ     -40.6691   YYZZ    -267.3526
      XZZZ    -251.5713   YZZZ      68.9254   ZZZZ   -1500.6295
 -----------------------------------------------------------------
 Calculating analytic gradient of the SCF energy
 Gradient of SCF Energy
            1           2           3           4           5           6
    1   0.0065874  -0.0515508   0.0596586  -0.0319845  -0.0727952  -0.0283350
    2  -0.0022681   0.0743427  -0.0441586  -0.0198466   0.0375885   0.0808847
    3  -0.0062381   0.0646221   0.0058198  -0.0596778  -0.0179407   0.0249680
            7           8           9          10          11          12
    1  -0.0377854   0.0662215   0.0345431  -0.0138589   0.0566802  -0.0106240
    2  -0.0045307  -0.0067766  -0.0575419   0.0115268   0.0090152   0.0453044
    3  -0.0377146  -0.0023860  -0.0191151   0.0602489   0.0071392  -0.0292988
           13          14          15          16          17          18
    1  -0.0313729  -0.0579796   0.0553014   0.0238181   0.0184032   0.0150728
    2  -0.0514983   0.0195101   0.0181566   0.0107310   0.0116464  -0.1320855
    3  -0.0226007  -0.0012644   0.0735695   0.0109655  -0.0260127  -0.0250841
 Max gradient component =       1.321E-01
 RMS gradient           =       4.247E-02
 Computing fast CPCM-ISWIG gradient
 Updating gradient with PCM contributions...
 -- total gradient after adding PCM contribution --
---------------------------------------------------
  Atom         X              Y              Z     
---------------------------------------------------
   1       0.000283      -0.000026      -0.000276
   2      -0.000244       0.000021       0.000144
   3      -0.000045       0.000017       0.000065
   4       0.000032       0.000009       0.000015
   5       0.000002       0.000001      -0.000002
   6      -0.000007      -0.000015      -0.000029
   7       0.000002       0.000006       0.000016
   8       0.000006       0.000002       0.000005
   9      -0.000002       0.000004      -0.000001
  10       0.000000       0.000001       0.000002
  11      -0.000001      -0.000004      -0.000006
  12       0.000001       0.000001       0.000003
  13       0.000000      -0.000001       0.000003
  14      -0.000002      -0.000008      -0.000001
  15       0.000001       0.000005      -0.000005
  16       0.000015       0.000008       0.000002
  17      -0.000007      -0.000006       0.000003
  18      -0.000035      -0.000017       0.000062
---------------------------------------------------
 Number of fixed atoms: 0
 Gradient time:  CPU 975.49 s  wall 70.01 s
 ----------------------------------------------------------------
             Standard Nuclear Orientation (Angstroms)
    I     Atom           X                Y                Z
 ----------------------------------------------------------------
    1      O      -0.2072626506     0.5930440079    -2.9217890986
    2      C      -0.9793976066     0.6958802960    -1.7927891354
    3      H      -1.8720350043     1.3509792477    -1.9337980431
    4      H      -0.4328286424     1.1445194159    -0.9315130508
    5      H      -0.6706866087    -1.3276763290    -1.1042585291
    6      C      -2.3614384095    -0.5122500332    -0.0385237379
    7      O      -1.7388146426    -0.4440857004     1.0834598673
    8      O      -3.6001016157    -0.4099446370    -0.1308092658
    9      O       0.8971013713     1.4236788957     1.8021673715
   10      H       3.2199133927    -0.0631086571     0.4584185764
   11      C       2.8940370901     0.1240456411     1.4857156009
   12      H       3.1387119730    -0.7619301445     2.0766225973
   13      H       3.4147468631     0.9951600119     1.8815758104
   14      C       1.4023277120     0.3506305225     1.4942124407
   15      H      -2.1396762538    -1.1092029906    -2.0884691439
   16      O       0.7131696393    -0.7047018562     1.1336915365
   17      H      -0.3513580451    -0.5323548756     1.0923194255
   18      C      -1.5249448080    -0.6698871517    -1.2967813149
 ----------------------------------------------------------------
 Nuclear Repulsion Energy =   524.7459110195 hartrees
 There are       40 alpha and       40 beta electrons
 Discretize the solute cavity surface with Lebedev spheres
	Using 110 Lebedev grid points for each H atom
	Using 110 Lebedev grid points for other atoms
	Atomic van der Waals radii will be scaled by 1.20
 Remove points where switching function is < 1.0e-08
 Keep 1121 surface tesserae and discard 859 interior tesserae
 Molecular Surface Area = 200.077 Angst**2
 Requested basis set is def2-TZVPD
 There are 175 shells and 457 basis functions
 A cutoff of  1.0D-14 yielded  13819 shell pairs
 There are     94679 function pairs (    120437 Cartesian)
 Smallest overlap matrix eigenvalue = 6.73E-06
 Guess MOs from SCF MO coefficient file
 Reading MOs from coefficient file
 Reading MOs from coefficient file
 Long-range K will be added via erf
 Coulomb attenuation parameter = 0.3 bohr**(-1)
 A restricted hybrid HF-DFT SCF calculation will be
 performed using Pulay DIIS extrapolation
 Polarizable Continuum solvation model will be applied
 Exchange:     0.1670 Hartree-Fock + 1.0000 wB97X-V + LR-HF
 Correlation:  1.0000 wB97X-V
 Using SG-2 standard quadrature grid
 Nonlocal Correlation:  VV10 with C = 0.0100 and b = 6.00
 Grid used for NLC:  SG-1 standard quadrature
 SCF converges when DIIS error is below 1.0E-08
Using Q-Chem read-in guess as SCF_GUESS READ specified.

 using 16 threads for integral computing
 -------------------------------------------------------
 OpenMP Integral computing Module                
 Release: version 1.0, May 2013, Q-Chem Inc. Pittsburgh 
 -------------------------------------------------------
 using 16 threads for integral computing
 -------------------------------------------------------
 OpenMP Integral computing Module                
 Release: version 1.0, May 2013, Q-Chem Inc. Pittsburgh 
 -------------------------------------------------------
 -------------------------------------------------------
 OpenMP BLAS3 based DFT computing Module                
 Release: version 1.0, May 2013, Q-Chem Inc. Pittsburgh 
 -------------------------------------------------------
 -------------------------------------------------------
 OpenMP BLAS3 based DFT computing Module                
 Release: version 1.0, May 2013, Q-Chem Inc. Pittsburgh 
 -------------------------------------------------------
 -------------------------------------------------------
 OpenMP BLAS3 based DFT computing Module                
 Release: version 1.0, May 2013, Q-Chem Inc. Pittsburgh 
 -------------------------------------------------------
 ---------------------------------------
  Cycle       Energy         DIIS Error
 ---------------------------------------
    1    -571.4986507938      3.93E-04
    2    -571.8132489788      4.28E-04
    3    -571.8198184683      2.00E-04
    4    -571.8208965145      1.44E-04
    5    -571.8216031130      1.08E-04
    6    -571.8219735732      8.40E-05
    7    -571.8222600897      5.93E-05
    8    -571.8224343689      3.68E-05
    9    -571.8225156107      1.86E-05
   10    -571.8225403860      6.24E-06
   11    -571.8225432587      1.67E-06
   12    -571.8225434737      2.84E-07
   13    -571.8225434798      4.63E-08
   14    -571.8225434800      1.33E-08
   15    -571.8225434800      2.35E-09 Convergence criterion met
 ---------------------------------------

************** Final PCM Free Energy Summary **************
 G_electrostatic  =      -0.32442202 hartree =    -203.57789150 kcal/mol
 G_cavitation     =       0.00000000 hartree =       0.00000000 kcal/mol
 G_dispersion     =       0.00000000 hartree =       0.00000000 kcal/mol
 G_repulsion      =       0.00000000 hartree =       0.00000000 kcal/mol
 --------------------------------------------------
 Non-electrostatic Free Energy =       0.00000000 hartree =       0.00000000 kcal/mol
 Total                         =      -0.32442202 hartree =    -203.57789150 kcal/mol
 --------------------------------------------------
 SCF Energy (H0 + V/2)                       =    -571.82254348 
 Solute Internal Energy (H0)                 =    -571.49812146 
 Total Free Energy (H0 + V/2 + non-elec)     =    -571.82254348 hartree
                                             = -358824.06176501 kcal/mol
***********************************************************

 SCF time:  CPU 3619.34 s  wall 259.08 s
 SCF   energy in the final basis set = -571.82254348
 Total energy in the final basis set = -571.82254348
 
 --------------------------------------------------------------
 
                    Orbital Energies (a.u.)
 --------------------------------------------------------------
 
 Alpha MOs
 -- Occupied --
-19.211 -19.181 -19.164 -19.152 -19.085 -10.386 -10.353 -10.269
-10.260 -10.235  -1.207  -1.162  -1.114  -1.067  -1.013  -0.866
 -0.845  -0.707  -0.689  -0.620  -0.592  -0.575  -0.571  -0.555
 -0.548  -0.519  -0.514  -0.502  -0.480  -0.461  -0.447  -0.436
 -0.431  -0.403  -0.372  -0.365  -0.358  -0.343  -0.280  -0.279
 -- Virtual --
  0.060   0.075   0.080   0.084   0.099   0.106   0.109   0.114
  0.120   0.123   0.127   0.134   0.142   0.149   0.156   0.161
  0.163   0.169   0.182   0.189   0.193   0.201   0.211   0.218
  0.222   0.234   0.240   0.246   0.251   0.253   0.266   0.267
  0.277   0.283   0.291   0.295   0.303   0.311   0.314   0.316
  0.320   0.337   0.340   0.345   0.351   0.359   0.362   0.364
  0.370   0.373   0.375   0.380   0.387   0.389   0.399   0.404
  0.406   0.416   0.425   0.431   0.434   0.436   0.444   0.450
  0.454   0.459   0.465   0.472   0.473   0.477   0.483   0.490
  0.491   0.495   0.500   0.504   0.513   0.516   0.519   0.529
  0.532   0.534   0.546   0.549   0.554   0.564   0.568   0.580
  0.586   0.600   0.608   0.613   0.621   0.627   0.634   0.638
  0.645   0.649   0.659   0.662   0.677   0.678   0.683   0.688
  0.694   0.708   0.712   0.726   0.728   0.741   0.743   0.746
  0.753   0.762   0.767   0.777   0.781   0.785   0.790   0.793
  0.805   0.807   0.809   0.816   0.826   0.827   0.836   0.846
  0.854   0.855   0.862   0.873   0.877   0.883   0.890   0.907
  0.913   0.930   0.955   0.967   0.976   0.979   0.998   1.001
  1.015   1.022   1.046   1.056   1.073   1.084   1.093   1.099
  1.115   1.122   1.127   1.137   1.156   1.170   1.178   1.193
  1.216   1.229   1.238   1.243   1.261   1.273   1.291   1.298
  1.320   1.338   1.345   1.377   1.379   1.387   1.395   1.406
  1.410   1.415   1.437   1.445   1.479   1.500   1.539   1.555
  1.571   1.575   1.607   1.634   1.672   1.688   1.741   1.824
  1.834   1.858   1.873   1.883   1.894   1.902   1.910   1.919
  1.931   1.939   1.951   1.958   1.981   1.990   2.010   2.025
  2.034   2.039   2.058   2.069   2.098   2.106   2.125   2.133
  2.149   2.158   2.168   2.184   2.210   2.233   2.256   2.269
  2.276   2.322   2.339   2.350   2.379   2.382   2.391   2.408
  2.421   2.433   2.454   2.475   2.489   2.505   2.518   2.545
  2.555   2.575   2.583   2.619   2.641   2.656   2.670   2.690
  2.698   2.736   2.759   2.766   2.806   2.823   2.838   2.840
  2.889   2.899   2.924   2.934   2.950   2.959   2.985   2.992
  3.012   3.036   3.074   3.093   3.118   3.146   3.190   3.210
  3.223   3.231   3.255   3.266   3.283   3.310   3.322   3.336
  3.344   3.359   3.366   3.369   3.391   3.400   3.423   3.444
  3.447   3.460   3.475   3.478   3.489   3.509   3.524   3.555
  3.587   3.596   3.615   3.621   3.632   3.641   3.649   3.668
  3.672   3.688   3.712   3.733   3.741   3.743   3.755   3.776
  3.785   3.806   3.832   3.839   3.910   3.921   3.978   4.030
  4.068   4.074   4.084   4.092   4.137   4.189   4.247   4.258
  4.294   4.329   4.461   4.545   4.554   4.572   4.604   4.650
  4.677   4.751   4.797   4.810   4.814   4.891   4.914   4.966
  5.028   5.068   5.158   5.289   5.315   5.334   5.349   5.362
  5.368   5.396   5.403   5.418   5.463   5.528   5.560   5.628
  5.632   5.682   5.716   5.728   5.762   5.795   5.972   6.000
  6.076   6.131   6.150   6.201   6.264   6.307   6.314   6.340
  6.364   6.480   6.578   6.625   6.651   6.666   6.710   6.722
  6.734   6.749   6.759   6.768   6.856   6.905   6.968   6.998
  7.006   7.023   7.045   7.065   7.108   7.113   7.224   7.261
  7.338   7.369   7.401   7.402   7.435   7.509   7.755  22.616
 22.842  22.870  23.643  23.702  44.313  44.361  44.403  44.442
 44.577
 --------------------------------------------------------------
 
          Ground-State Mulliken Net Atomic Charges

     Atom                 Charge (a.u.)
  ----------------------------------------
      1 O                    -0.918709
      2 C                    -0.415878
      3 H                     0.138656
      4 H                     0.020254
      5 H                     0.217542
      6 C                     0.299606
      7 O                    -0.682380
      8 O                    -0.664873
      9 O                    -0.584748
     10 H                     0.226626
     11 C                    -0.791089
     12 H                     0.252534
     13 H                     0.222566
     14 C                     0.610979
     15 H                     0.147722
     16 O                    -0.474944
     17 H                     0.380706
     18 C                     0.015431
  ----------------------------------------
  Sum of atomic charges =    -2.000000

 -----------------------------------------------------------------
                    Cartesian Multipole Moments
 -----------------------------------------------------------------
    Charge (ESU x 10^10)
                -9.6064
    Dipole Moment (Debye)
         X      12.4356      Y      -3.6841      Z       8.2205
       Tot      15.3556
    Quadrupole Moments (Debye-Ang)
        XX    -101.7406     XY      -5.0692     YY     -74.3216
        XZ       3.3066     YZ       3.9173     ZZ    -116.0108
    Octopole Moments (Debye-Ang^2)
       XXX     252.7062    XXY      10.3846    XYY      23.0245
       YYY     -22.2775    XXZ       2.9209    XYZ      -6.7487
       YYZ      -3.6133    XZZ      41.8676    YZZ     -39.2727
       ZZZ     125.9591
    Hexadecapole Moments (Debye-Ang^3)
      XXXX   -2051.4534   XXXY    -148.1474   XXYY    -307.1685
      XYYY     -99.4532   YYYY    -295.9974   XXXZ    -215.0265
      XXYZ       4.4117   XYYZ     -88.5087   YYYZ       1.3741
      XXZZ    -437.2441   XYZZ     -40.6108   YYZZ    -267.3168
      XZZZ    -251.9157   YZZZ      68.8711   ZZZZ   -1500.3120
 -----------------------------------------------------------------
 Calculating analytic gradient of the SCF energy
 Gradient of SCF Energy
            1           2           3           4           5           6
    1   0.0061744  -0.0512468   0.0597108  -0.0319485  -0.0728210  -0.0283729
    2  -0.0022147   0.0742698  -0.0441641  -0.0198593   0.0375844   0.0809148
    3  -0.0057925   0.0641663   0.0058427  -0.0596844  -0.0179204   0.0249510
            7           8           9          10          11          12
    1  -0.0377931   0.0662383   0.0345412  -0.0138566   0.0566759  -0.0106229
    2  -0.0045375  -0.0067817  -0.0575415   0.0115239   0.0090154   0.0453009
    3  -0.0377271  -0.0023908  -0.0191084   0.0602371   0.0071465  -0.0292970
           13          14          15          16          17          18
    1  -0.0313699  -0.0579784   0.0553035   0.0238123   0.0184136   0.0151401
    2  -0.0514935   0.0195161   0.0181384   0.0107271   0.0116502  -0.1320487
    3  -0.0225988  -0.0012739   0.0735920   0.0109722  -0.0260170  -0.0250976
 Max gradient component =       1.320E-01
 RMS gradient           =       4.245E-02
 Computing fast CPCM-ISWIG gradient
 Updating gradient with PCM contributions...
 -- total gradient after adding PCM contribution --
---------------------------------------------------
  Atom         X              Y              Z     
---------------------------------------------------
   1      -0.000295       0.000024       0.000296
   2       0.000251      -0.000018      -0.000164
   3       0.000050      -0.000016      -0.000064
   4      -0.000031      -0.000005      -0.000011
   5      -0.000004       0.000002      -0.000000
   6      -0.000026       0.000015      -0.000006
   7      -0.000000      -0.000002       0.000001
   8       0.000020      -0.000005      -0.000001
   9      -0.000003       0.000004      -0.000002
  10       0.000000       0.000001       0.000001
  11      -0.000001      -0.000004      -0.000006
  12       0.000001       0.000001       0.000003
  13       0.000000      -0.000001       0.000003
  14       0.000000      -0.000006      -0.000001
  15      -0.000002      -0.000008       0.000000
  16       0.000011       0.000008       0.000001
  17      -0.000001      -0.000006       0.000005
  18       0.000032       0.000015      -0.000053
---------------------------------------------------
 Number of fixed atoms: 0
 Gradient time:  CPU 857.50 s  wall 64.10 s
 ----------------------------------------------------------------
             Standard Nuclear Orientation (Angstroms)
    I     Atom           X                Y                Z
 ----------------------------------------------------------------
    1      O      -0.2062626506     0.5940440079    -2.9217890986
    2      C      -0.9793976066     0.6958802960    -1.7927891354
    3      H      -1.8720350043     1.3509792477    -1.9337980431
    4      H      -0.4328286424     1.1445194159    -0.9315130508
    5      H      -0.6706866087    -1.3276763290    -1.1042585291
    6      C      -2.3614384095    -0.5122500332    -0.0385237379
    7      O      -1.7388146426    -0.4440857004     1.0834598673
    8      O      -3.6001016157    -0.4099446370    -0.1308092658
    9      O       0.8971013713     1.4236788957     1.8021673715
   10      H       3.2199133927    -0.0631086571     0.4584185764
   11      C       2.8940370901     0.1240456411     1.4857156009
   12      H       3.1387119730    -0.7619301445     2.0766225973
   13      H       3.4147468631     0.9951600119     1.8815758104
   14      C       1.4023277120     0.3506305225     1.4942124407
   15      H      -2.1396762538    -1.1092029906    -2.0884691439
   16      O       0.7131696393    -0.7047018562     1.1336915365
   17      H      -0.3513580451    -0.5323548756     1.0923194255
   18      C      -1.5249448080    -0.6698871517    -1.2967813149
 ----------------------------------------------------------------
 Nuclear Repulsion Energy =   524.7303554224 hartrees
 There are       40 alpha and       40 beta electrons
 Discretize the solute cavity surface with Lebedev spheres
	Using 110 Lebedev grid points for each H atom
	Using 110 Lebedev grid points for other atoms
	Atomic van der Waals radii will be scaled by 1.20
 Remove points where switching function is < 1.0e-08
 Keep 1121 surface tesserae and discard 859 interior tesserae
 Molecular Surface Area = 200.087 Angst**2
 Requested basis set is def2-TZVPD
 There are 175 shells and 457 basis functions
 A cutoff of  1.0D-14 yielded  13819 shell pairs
 There are     94679 function pairs (    120437 Cartesian)
 Smallest overlap matrix eigenvalue = 6.73E-06
 Guess MOs from SCF MO coefficient file
 Reading MOs from coefficient file
 Reading MOs from coefficient file
 Long-range K will be added via erf
 Coulomb attenuation parameter = 0.3 bohr**(-1)
 A restricted hybrid HF-DFT SCF calculation will be
 performed using Pulay DIIS extrapolation
 Polarizable Continuum solvation model will be applied
 Exchange:     0.1670 Hartree-Fock + 1.0000 wB97X-V + LR-HF
 Correlation:  1.0000 wB97X-V
 Using SG-2 standard quadrature grid
 Nonlocal Correlation:  VV10 with C = 0.0100 and b = 6.00
 Grid used for NLC:  SG-1 standard quadrature
 SCF converges when DIIS error is below 1.0E-08
Using Q-Chem read-in guess as SCF_GUESS READ specified.

 using 16 threads for integral computing
 -------------------------------------------------------
 OpenMP Integral computing Module                
 Release: version 1.0, May 2013, Q-Chem Inc. Pittsburgh 
 -------------------------------------------------------
 using 16 threads for integral computing
 -------------------------------------------------------
 OpenMP Integral computing Module                
 Release: version 1.0, May 2013, Q-Chem Inc. Pittsburgh 
 -------------------------------------------------------
 -------------------------------------------------------
 OpenMP BLAS3 based DFT computing Module                
 Release: version 1.0, May 2013, Q-Chem Inc. Pittsburgh 
 -------------------------------------------------------
 -------------------------------------------------------
 OpenMP BLAS3 based DFT computing Module                
 Release: version 1.0, May 2013, Q-Chem Inc. Pittsburgh 
 -------------------------------------------------------
 -------------------------------------------------------
 OpenMP BLAS3 based DFT computing Module                
 Release: version 1.0, May 2013, Q-Chem Inc. Pittsburgh 
 -------------------------------------------------------
 ---------------------------------------
  Cycle       Energy         DIIS Error
 ---------------------------------------
    1    -571.4979023261      3.92E-04
    2    -571.8132549072      4.27E-04
    3    -571.8198148340      2.00E-04
    4    -571.8208911877      1.44E-04
    5    -571.8215970500      1.08E-04
    6    -571.8219591670      8.51E-05
    7    -571.8222220475      6.31E-05
    8    -571.8223849823      4.44E-05
    9    -571.8224796000      2.82E-05
   10    -571.8225271442      1.44E-05
   11    -571.8225412639      5.48E-06
   12    -571.8225435382      1.26E-06
   13    -571.8225436617      1.90E-07
   14    -571.8225436644      2.80E-08
   15    -571.8225436645      8.88E-09 Convergence criterion met
 ---------------------------------------

************** Final PCM Free Energy Summary **************
 G_electrostatic  =      -0.32442955 hartree =    -203.58261496 kcal/mol
 G_cavitation     =       0.00000000 hartree =       0.00000000 kcal/mol
 G_dispersion     =       0.00000000 hartree =       0.00000000 kcal/mol
 G_repulsion      =       0.00000000 hartree =       0.00000000 kcal/mol
 --------------------------------------------------
 Non-electrostatic Free Energy =       0.00000000 hartree =       0.00000000 kcal/mol
 Total                         =      -0.32442955 hartree =    -203.58261496 kcal/mol
 --------------------------------------------------
 SCF Energy (H0 + V/2)                       =    -571.82254366 
 Solute Internal Energy (H0)                 =    -571.49811412 
 Total Free Energy (H0 + V/2 + non-elec)     =    -571.82254366 hartree
                                             = -358824.06188077 kcal/mol
***********************************************************

 SCF time:  CPU 3602.18 s  wall 258.24 s
 SCF   energy in the final basis set = -571.82254366
 Total energy in the final basis set = -571.82254366
 
 --------------------------------------------------------------
 
                    Orbital Energies (a.u.)
 --------------------------------------------------------------
 
 Alpha MOs
 -- Occupied --
-19.211 -19.181 -19.164 -19.152 -19.086 -10.386 -10.353 -10.269
-10.260 -10.235  -1.207  -1.162  -1.114  -1.067  -1.013  -0.866
 -0.845  -0.707  -0.689  -0.620  -0.592  -0.575  -0.571  -0.556
 -0.548  -0.519  -0.514  -0.502  -0.480  -0.461  -0.447  -0.436
 -0.431  -0.403  -0.372  -0.365  -0.358  -0.343  -0.280  -0.279
 -- Virtual --
  0.060   0.075   0.080   0.084   0.099   0.106   0.109   0.114
  0.120   0.123   0.127   0.134   0.142   0.149   0.156   0.161
  0.163   0.169   0.182   0.189   0.193   0.201   0.211   0.218
  0.222   0.234   0.240   0.246   0.251   0.253   0.266   0.267
  0.277   0.283   0.291   0.295   0.303   0.311   0.314   0.316
  0.320   0.337   0.340   0.345   0.351   0.359   0.362   0.364
  0.370   0.373   0.375   0.380   0.387   0.389   0.399   0.404
  0.406   0.416   0.425   0.431   0.434   0.436   0.444   0.450
  0.454   0.459   0.465   0.472   0.473   0.477   0.483   0.490
  0.491   0.495   0.500   0.504   0.513   0.516   0.519   0.529
  0.532   0.534   0.546   0.549   0.554   0.564   0.568   0.580
  0.586   0.600   0.608   0.613   0.621   0.626   0.634   0.638
  0.645   0.649   0.659   0.662   0.677   0.678   0.683   0.688
  0.694   0.708   0.712   0.726   0.728   0.741   0.743   0.746
  0.753   0.762   0.767   0.777   0.781   0.785   0.790   0.793
  0.805   0.807   0.809   0.816   0.826   0.827   0.836   0.846
  0.854   0.855   0.862   0.873   0.877   0.883   0.890   0.907
  0.913   0.930   0.955   0.967   0.976   0.979   0.998   1.001
  1.015   1.022   1.046   1.056   1.073   1.084   1.093   1.099
  1.115   1.122   1.127   1.137   1.156   1.170   1.178   1.193
  1.216   1.229   1.238   1.243   1.261   1.273   1.291   1.298
  1.320   1.338   1.345   1.377   1.379   1.387   1.395   1.406
  1.410   1.415   1.437   1.445   1.479   1.500   1.539   1.554
  1.571   1.575   1.607   1.634   1.672   1.688   1.741   1.824
  1.834   1.858   1.873   1.883   1.894   1.902   1.910   1.919
  1.931   1.939   1.951   1.958   1.981   1.990   2.010   2.025
  2.034   2.039   2.058   2.069   2.098   2.106   2.125   2.133
  2.149   2.158   2.168   2.184   2.210   2.233   2.256   2.269
  2.276   2.322   2.339   2.350   2.379   2.382   2.391   2.408
  2.421   2.434   2.454   2.475   2.489   2.505   2.518   2.545
  2.555   2.575   2.583   2.619   2.641   2.656   2.670   2.690
  2.698   2.736   2.759   2.766   2.806   2.823   2.838   2.840
  2.889   2.899   2.924   2.934   2.950   2.959   2.985   2.992
  3.012   3.036   3.074   3.093   3.118   3.146   3.190   3.210
  3.223   3.231   3.255   3.266   3.283   3.310   3.322   3.336
  3.344   3.359   3.366   3.369   3.391   3.400   3.423   3.444
  3.447   3.460   3.475   3.478   3.489   3.509   3.524   3.555
  3.587   3.596   3.615   3.621   3.632   3.640   3.648   3.668
  3.671   3.688   3.712   3.733   3.741   3.743   3.755   3.775
  3.785   3.806   3.832   3.838   3.910   3.921   3.978   4.030
  4.068   4.074   4.084   4.092   4.137   4.189   4.247   4.258
  4.294   4.329   4.461   4.545   4.554   4.572   4.604   4.650
  4.677   4.751   4.797   4.810   4.814   4.891   4.914   4.966
  5.028   5.068   5.158   5.289   5.315   5.334   5.349   5.362
  5.368   5.396   5.403   5.417   5.463   5.528   5.560   5.627
  5.631   5.682   5.716   5.728   5.762   5.795   5.972   5.999
  6.075   6.130   6.150   6.201   6.264   6.307   6.314   6.339
  6.364   6.480   6.578   6.625   6.651   6.665   6.710   6.722
  6.734   6.749   6.759   6.768   6.856   6.905   6.968   6.998
  7.006   7.023   7.045   7.065   7.107   7.113   7.224   7.261
  7.338   7.369   7.401   7.402   7.435   7.509   7.755  22.616
 22.842  22.869  23.643  23.702  44.313  44.360  44.403  44.442
 44.577
 --------------------------------------------------------------
 
          Ground-State Mulliken Net Atomic Charges

     Atom                 Charge (a.u.)
  ----------------------------------------
      1 O                    -0.918877
      2 C                    -0.416104
      3 H                     0.138813
      4 H                     0.020257
      5 H                     0.217507
      6 C                     0.299781
      7 O                    -0.682363
      8 O                    -0.664849
      9 O                    -0.584757
     10 H                     0.226623
     11 C                    -0.791090
     12 H                     0.252534
     13 H                     0.222567
     14 C                     0.611004
     15 H                     0.147681
     16 O                    -0.474951
     17 H                     0.380705
     18 C                     0.015518
  ----------------------------------------
  Sum of atomic charges =    -2.000000

 -----------------------------------------------------------------
                    Cartesian Multipole Moments
 -----------------------------------------------------------------
    Charge (ESU x 10^10)
                -9.6064
    Dipole Moment (Debye)
         X      12.4289      Y      -3.6890      Z       8.2233
       Tot      15.3528
    Quadrupole Moments (Debye-Ang)
        XX    -101.7328     XY      -5.0713     YY     -74.3263
        XZ       3.3201     YZ       3.9320     ZZ    -116.0187
    Octopole Moments (Debye-Ang^2)
       XXX     252.6577    XXY      10.3779    XYY      23.0109
       YYY     -22.3081    XXZ       2.9171    XYZ      -6.7426
       YYZ      -3.5932    XZZ      41.8201    YZZ     -39.3247
       ZZZ     125.9950
    Hexadecapole Moments (Debye-Ang^3)
      XXXX   -2051.3402   XXXY    -148.1577   XXYY    -307.1613
      XYYY     -99.4666   YYYY    -296.0540   XXXZ    -214.9518
      XXYZ       4.4298   XYYZ     -88.4792   YYYZ       1.4674
      XXZZ    -437.2212   XYZZ     -40.6253   YYZZ    -267.3876
      XZZZ    -251.7466   YZZZ      69.0696   ZZZZ   -1500.4531
 -----------------------------------------------------------------
 Calculating analytic gradient of the SCF energy
 Gradient of SCF Energy
            1           2           3           4           5           6
    1   0.0063477  -0.0513628   0.0596647  -0.0319529  -0.0728044  -0.0283497
    2  -0.0022214   0.0743692  -0.0441691  -0.0198704   0.0375901   0.0808852
    3  -0.0059784   0.0643408   0.0058173  -0.0596602  -0.0179306   0.0249696
            7           8           9          10          11          12
    1  -0.0377886   0.0662255   0.0345426  -0.0138575   0.0566773  -0.0106230
    2  -0.0045301  -0.0067760  -0.0575412   0.0115248   0.0090174   0.0453015
    3  -0.0377182  -0.0023849  -0.0191125   0.0602420   0.0071447  -0.0292974
           13          14          15          16          17          18
    1  -0.0313712  -0.0579798   0.0552921   0.0238155   0.0184058   0.0151188
    2  -0.0514960   0.0195117   0.0181582   0.0107304   0.0116461  -0.1321303
    3  -0.0225997  -0.0012699   0.0735841   0.0109707  -0.0260167  -0.0251008
 Max gradient component =       1.321E-01
 RMS gradient           =       4.247E-02
 Computing fast CPCM-ISWIG gradient
 Updating gradient with PCM contributions...
 -- total gradient after adding PCM contribution --
---------------------------------------------------
  Atom         X              Y              Z     
---------------------------------------------------
   1      -0.000031       0.000108       0.000048
   2       0.000030      -0.000143      -0.000046
   3       0.000025       0.000008      -0.000035
   4       0.000017       0.000011      -0.000023
   5      -0.000000       0.000009      -0.000003
   6      -0.000016      -0.000016      -0.000023
   7       0.000002       0.000005       0.000015
   8       0.000006       0.000002       0.000006
   9      -0.000003       0.000005      -0.000001
  10       0.000001       0.000001       0.000001
  11      -0.000002      -0.000004      -0.000006
  12       0.000001       0.000001       0.000003
  13       0.000000      -0.000001       0.000003
  14      -0.000000      -0.000008      -0.000001
  15       0.000002       0.000005      -0.000003
  16       0.000014       0.000008       0.000002
  17      -0.000007      -0.000006       0.000004
  18      -0.000039       0.000013       0.000060
---------------------------------------------------
 Number of fixed atoms: 0
 Gradient time:  CPU 821.36 s  wall 60.63 s
 ----------------------------------------------------------------
             Standard Nuclear Orientation (Angstroms)
    I     Atom           X                Y                Z
 ----------------------------------------------------------------
    1      O      -0.2062626506     0.5920440079    -2.9217890986
    2      C      -0.9793976066     0.6958802960    -1.7927891354
    3      H      -1.8720350043     1.3509792477    -1.9337980431
    4      H      -0.4328286424     1.1445194159    -0.9315130508
    5      H      -0.6706866087    -1.3276763290    -1.1042585291
    6      C      -2.3614384095    -0.5122500332    -0.0385237379
    7      O      -1.7388146426    -0.4440857004     1.0834598673
    8      O      -3.6001016157    -0.4099446370    -0.1308092658
    9      O       0.8971013713     1.4236788957     1.8021673715
   10      H       3.2199133927    -0.0631086571     0.4584185764
   11      C       2.8940370901     0.1240456411     1.4857156009
   12      H       3.1387119730    -0.7619301445     2.0766225973
   13      H       3.4147468631     0.9951600119     1.8815758104
   14      C       1.4023277120     0.3506305225     1.4942124407
   15      H      -2.1396762538    -1.1092029906    -2.0884691439
   16      O       0.7131696393    -0.7047018562     1.1336915365
   17      H      -0.3513580451    -0.5323548756     1.0923194255
   18      C      -1.5249448080    -0.6698871517    -1.2967813149
 ----------------------------------------------------------------
 Nuclear Repulsion Energy =   524.7367442433 hartrees
 There are       40 alpha and       40 beta electrons
 Discretize the solute cavity surface with Lebedev spheres
	Using 110 Lebedev grid points for each H atom
	Using 110 Lebedev grid points for other atoms
	Atomic van der Waals radii will be scaled by 1.20
 Remove points where switching function is < 1.0e-08
 Keep 1121 surface tesserae and discard 859 interior tesserae
 Molecular Surface Area = 200.085 Angst**2
 Requested basis set is def2-TZVPD
 There are 175 shells and 457 basis functions
 A cutoff of  1.0D-14 yielded  13819 shell pairs
 There are     94679 function pairs (    120437 Cartesian)
 Smallest overlap matrix eigenvalue = 6.73E-06
 Guess MOs from SCF MO coefficient file
 Reading MOs from coefficient file
 Reading MOs from coefficient file
 Long-range K will be added via erf
 Coulomb attenuation parameter = 0.3 bohr**(-1)
 A restricted hybrid HF-DFT SCF calculation will be
 performed using Pulay DIIS extrapolation
 Polarizable Continuum solvation model will be applied
 Exchange:     0.1670 Hartree-Fock + 1.0000 wB97X-V + LR-HF
 Correlation:  1.0000 wB97X-V
 Using SG-2 standard quadrature grid
 Nonlocal Correlation:  VV10 with C = 0.0100 and b = 6.00
 Grid used for NLC:  SG-1 standard quadrature
 SCF converges when DIIS error is below 1.0E-08
Using Q-Chem read-in guess as SCF_GUESS READ specified.

 using 16 threads for integral computing
 -------------------------------------------------------
 OpenMP Integral computing Module                
 Release: version 1.0, May 2013, Q-Chem Inc. Pittsburgh 
 -------------------------------------------------------
 using 16 threads for integral computing
 -------------------------------------------------------
 OpenMP Integral computing Module                
 Release: version 1.0, May 2013, Q-Chem Inc. Pittsburgh 
 -------------------------------------------------------
 -------------------------------------------------------
 OpenMP BLAS3 based DFT computing Module                
 Release: version 1.0, May 2013, Q-Chem Inc. Pittsburgh 
 -------------------------------------------------------
 -------------------------------------------------------
 OpenMP BLAS3 based DFT computing Module                
 Release: version 1.0, May 2013, Q-Chem Inc. Pittsburgh 
 -------------------------------------------------------
 -------------------------------------------------------
 OpenMP BLAS3 based DFT computing Module                
 Release: version 1.0, May 2013, Q-Chem Inc. Pittsburgh 
 -------------------------------------------------------
 ---------------------------------------
  Cycle       Energy         DIIS Error
 ---------------------------------------
    1    -571.4980087432      3.92E-04
    2    -571.8132555494      4.27E-04
    3    -571.8198161643      2.00E-04
    4    -571.8208926432      1.44E-04
    5    -571.8215986922      1.08E-04
    6    -571.8219623774      8.49E-05
    7    -571.8222315503      6.22E-05
    8    -571.8224003692      4.22E-05
    9    -571.8224933951      2.50E-05
   10    -571.8225338829      1.11E-05
   11    -571.8225425898      3.66E-06
   12    -571.8225436145      7.55E-07
   13    -571.8225436586      1.13E-07
   14    -571.8225436595      1.84E-08
   15    -571.8225436596      3.47E-09 Convergence criterion met
 ---------------------------------------

************** Final PCM Free Energy Summary **************
 G_electrostatic  =      -0.32443108 hartree =    -203.58357497 kcal/mol
 G_cavitation     =       0.00000000 hartree =       0.00000000 kcal/mol
 G_dispersion     =       0.00000000 hartree =       0.00000000 kcal/mol
 G_repulsion      =       0.00000000 hartree =       0.00000000 kcal/mol
 --------------------------------------------------
 Non-electrostatic Free Energy =       0.00000000 hartree =       0.00000000 kcal/mol
 Total                         =      -0.32443108 hartree =    -203.58357497 kcal/mol
 --------------------------------------------------
 SCF Energy (H0 + V/2)                       =    -571.82254366 
 Solute Internal Energy (H0)                 =    -571.49811258 
 Total Free Energy (H0 + V/2 + non-elec)     =    -571.82254366 hartree
                                             = -358824.06187768 kcal/mol
***********************************************************

 SCF time:  CPU 3607.49 s  wall 258.58 s
 SCF   energy in the final basis set = -571.82254366
 Total energy in the final basis set = -571.82254366
 
 --------------------------------------------------------------
 
                    Orbital Energies (a.u.)
 --------------------------------------------------------------
 
 Alpha MOs
 -- Occupied --
-19.211 -19.181 -19.164 -19.152 -19.086 -10.386 -10.353 -10.269
-10.260 -10.235  -1.207  -1.162  -1.114  -1.067  -1.013  -0.866
 -0.845  -0.707  -0.689  -0.620  -0.592  -0.575  -0.571  -0.555
 -0.548  -0.519  -0.514  -0.502  -0.480  -0.461  -0.447  -0.436
 -0.431  -0.403  -0.372  -0.365  -0.358  -0.343  -0.280  -0.279
 -- Virtual --
  0.060   0.075   0.080   0.084   0.099   0.106   0.109   0.114
  0.120   0.123   0.127   0.134   0.142   0.149   0.156   0.161
  0.163   0.169   0.182   0.189   0.193   0.201   0.211   0.218
  0.222   0.234   0.240   0.246   0.251   0.253   0.266   0.267
  0.277   0.283   0.291   0.295   0.303   0.311   0.314   0.316
  0.320   0.337   0.340   0.345   0.351   0.359   0.362   0.364
  0.370   0.373   0.375   0.380   0.387   0.389   0.399   0.404
  0.406   0.416   0.425   0.431   0.434   0.436   0.444   0.450
  0.454   0.459   0.465   0.472   0.473   0.477   0.483   0.490
  0.490   0.495   0.500   0.504   0.513   0.516   0.519   0.529
  0.531   0.534   0.546   0.549   0.554   0.564   0.568   0.580
  0.586   0.600   0.608   0.613   0.621   0.627   0.634   0.638
  0.645   0.649   0.659   0.662   0.677   0.678   0.683   0.688
  0.694   0.708   0.712   0.726   0.728   0.741   0.743   0.746
  0.753   0.762   0.767   0.777   0.781   0.785   0.790   0.794
  0.805   0.807   0.809   0.816   0.826   0.827   0.836   0.846
  0.854   0.855   0.862   0.873   0.877   0.883   0.890   0.907
  0.913   0.930   0.955   0.967   0.976   0.979   0.998   1.001
  1.015   1.022   1.046   1.056   1.073   1.084   1.093   1.099
  1.115   1.122   1.127   1.137   1.156   1.170   1.178   1.193
  1.216   1.229   1.238   1.243   1.261   1.273   1.291   1.298
  1.320   1.338   1.345   1.377   1.379   1.387   1.395   1.406
  1.410   1.415   1.437   1.445   1.479   1.500   1.539   1.554
  1.571   1.575   1.606   1.634   1.672   1.688   1.741   1.824
  1.834   1.858   1.873   1.883   1.894   1.902   1.910   1.919
  1.931   1.939   1.951   1.958   1.981   1.990   2.010   2.025
  2.034   2.039   2.058   2.069   2.098   2.106   2.125   2.133
  2.149   2.158   2.168   2.184   2.210   2.233   2.256   2.269
  2.276   2.322   2.339   2.350   2.379   2.382   2.391   2.408
  2.421   2.434   2.454   2.475   2.489   2.505   2.518   2.545
  2.555   2.575   2.583   2.619   2.641   2.656   2.670   2.690
  2.698   2.736   2.759   2.766   2.806   2.823   2.838   2.840
  2.889   2.899   2.924   2.934   2.950   2.959   2.985   2.992
  3.012   3.036   3.074   3.093   3.118   3.146   3.190   3.210
  3.223   3.230   3.255   3.266   3.283   3.310   3.322   3.336
  3.344   3.359   3.366   3.369   3.391   3.400   3.423   3.444
  3.447   3.460   3.475   3.478   3.489   3.509   3.524   3.555
  3.587   3.596   3.615   3.621   3.632   3.641   3.649   3.668
  3.672   3.688   3.712   3.733   3.741   3.743   3.755   3.775
  3.785   3.806   3.832   3.838   3.910   3.921   3.978   4.030
  4.068   4.074   4.084   4.092   4.137   4.189   4.247   4.258
  4.294   4.329   4.461   4.545   4.554   4.572   4.604   4.650
  4.677   4.751   4.797   4.810   4.814   4.891   4.914   4.966
  5.028   5.069   5.158   5.289   5.315   5.334   5.349   5.362
  5.368   5.396   5.403   5.417   5.463   5.528   5.560   5.627
  5.631   5.682   5.716   5.728   5.762   5.795   5.972   6.000
  6.075   6.129   6.150   6.201   6.264   6.307   6.314   6.339
  6.364   6.480   6.578   6.625   6.651   6.666   6.710   6.722
  6.734   6.749   6.759   6.767   6.856   6.905   6.968   6.998
  7.006   7.023   7.045   7.064   7.107   7.113   7.224   7.261
  7.338   7.369   7.401   7.402   7.435   7.509   7.755  22.616
 22.842  22.868  23.643  23.702  44.313  44.361  44.403  44.442
 44.577
 --------------------------------------------------------------
 
          Ground-State Mulliken Net Atomic Charges

     Atom                 Charge (a.u.)
  ----------------------------------------
      1 O                    -0.918777
      2 C                    -0.415742
      3 H                     0.138905
      4 H                     0.020133
      5 H                     0.217448
      6 C                     0.299648
      7 O                    -0.682385
      8 O                    -0.664886
      9 O                    -0.584761
     10 H                     0.226620
     11 C                    -0.791078
     12 H                     0.252536
     13 H                     0.222567
     14 C                     0.610994
     15 H                     0.147676
     16 O                    -0.474954
     17 H                     0.380699
     18 C                     0.015358
  ----------------------------------------
  Sum of atomic charges =    -2.000000

 -----------------------------------------------------------------
                    Cartesian Multipole Moments
 -----------------------------------------------------------------
    Charge (ESU x 10^10)
                -9.6064
    Dipole Moment (Debye)
         X      12.4290      Y      -3.6793      Z       8.2231
       Tot      15.3505
    Quadrupole Moments (Debye-Ang)
        XX    -101.7347     XY      -5.0751     YY     -74.3153
        XZ       3.3220     YZ       3.9058     ZZ    -116.0209
    Octopole Moments (Debye-Ang^2)
       XXX     252.6672    XXY      10.3985    XYY      23.0074
       YYY     -22.2500    XXZ       2.9133    XYZ      -6.7347
       YYZ      -3.6245    XZZ      41.8197    YZZ     -39.2345
       ZZZ     126.0015
    Hexadecapole Moments (Debye-Ang^3)
      XXXX   -2051.3879   XXXY    -148.1831   XXYY    -307.1411
      XYYY     -99.4812   YYYY    -295.9320   XXXZ    -214.9388
      XXYZ       4.3810   XYYZ     -88.4694   YYYZ       1.3000
      XXZZ    -437.2239   XYZZ     -40.6546   YYZZ    -267.2820
      XZZZ    -251.7406   YZZZ      68.7270   ZZZZ   -1500.4890
 -----------------------------------------------------------------
 Calculating analytic gradient of the SCF energy
 Gradient of SCF Energy
            1           2           3           4           5           6
    1   0.0064148  -0.0514349   0.0597041  -0.0319799  -0.0728114  -0.0283582
    2  -0.0022615   0.0742429  -0.0441533  -0.0198354   0.0375825   0.0809139
    3  -0.0060534   0.0644485   0.0058451  -0.0597015  -0.0179303   0.0249494
            7           8           9          10          11          12
    1  -0.0377897   0.0662339   0.0345415  -0.0138579   0.0566785  -0.0106238
    2  -0.0045381  -0.0067823  -0.0575418   0.0115259   0.0090132   0.0453035
    3  -0.0377233  -0.0023919  -0.0191109   0.0602437   0.0071410  -0.0292982
           13          14          15          16          17          18
    1  -0.0313715  -0.0579778   0.0553125   0.0238147   0.0184110   0.0150940
    2  -0.0514954   0.0195145   0.0181367   0.0107276   0.0116504  -0.1320031
    3  -0.0225997  -0.0012684   0.0735769   0.0109668  -0.0260128  -0.0250811
 Max gradient component =       1.320E-01
 RMS gradient           =       4.246E-02
 Computing fast CPCM-ISWIG gradient
 Updating gradient with PCM contributions...
 -- total gradient after adding PCM contribution --
---------------------------------------------------
  Atom         X              Y              Z     
---------------------------------------------------
   1       0.000019      -0.000110      -0.000029
   2      -0.000023       0.000146       0.000027
[...]
 C          0.031 -0.003 -0.001   -0.010 -0.065  0.209   -0.003 -0.008  0.001
 H          0.017  0.022 -0.016   -0.005  0.002  0.006    0.406 -0.102 -0.411
 O         -0.058 -0.044 -0.015    0.003  0.011 -0.032    0.017  0.007 -0.001
 H         -0.098  0.036 -0.029    0.004  0.010 -0.001   -0.067 -0.033  0.079
 C          0.002  0.020 -0.002    0.002 -0.000  0.001   -0.133  0.042 -0.079
 TransDip  -0.097  0.088 -0.004   -0.011 -0.030  0.126   -0.286 -0.081 -0.173

 Mode:                25                     26                     27
 Frequency:      1125.78                1200.40                1256.16
 Force Cnst:      6.2923                 1.1655                 1.4247
 Red. Mass:       8.4267                 1.3728                 1.5324
 IR Active:          YES                    YES                    YES
 IR Intens:      387.811                235.908                593.769
 Raman Active:       YES                    YES                    YES
               X      Y      Z        X      Y      Z        X      Y      Z
 O          0.251 -0.071 -0.385    0.042 -0.008  0.021   -0.003 -0.015 -0.021
 C         -0.296  0.140  0.491   -0.125  0.021 -0.075    0.009  0.023  0.035
 H         -0.196  0.055  0.298   -0.115  0.152  0.441   -0.020 -0.035  0.001
 H         -0.271  0.172  0.331    0.302 -0.198 -0.242   -0.223 -0.072  0.236
 H          0.066  0.036 -0.006   -0.332 -0.364  0.357   -0.237 -0.260  0.214
 C          0.006  0.103  0.012   -0.018 -0.020 -0.045   -0.015 -0.057 -0.080
 O         -0.009 -0.017 -0.012    0.011  0.008  0.039    0.018  0.016  0.042
 O          0.030 -0.020  0.003    0.013  0.001 -0.000   -0.039  0.012  0.002
 O          0.000  0.001  0.001    0.000 -0.001 -0.001    0.005 -0.006 -0.003
 H         -0.003  0.003 -0.001    0.002 -0.005  0.003    0.016 -0.023  0.014
 C          0.002  0.000  0.001   -0.002  0.001  0.001   -0.003  0.007  0.004
 H          0.002 -0.000 -0.000    0.002 -0.003 -0.006    0.016 -0.010 -0.026
 H         -0.001  0.003 -0.002    0.013 -0.006 -0.002    0.059 -0.024 -0.007
 C          0.004  0.007  0.002   -0.009 -0.014 -0.004   -0.036 -0.037 -0.012
 H          0.111  0.016 -0.195    0.182  0.266 -0.243   -0.376 -0.366  0.527
 O         -0.012 -0.006 -0.004    0.021  0.012  0.002    0.048  0.039  0.007
 H          0.042 -0.001  0.054   -0.096 -0.055  0.047   -0.217 -0.206  0.155
 C         -0.041 -0.124 -0.016    0.041  0.014  0.012    0.089  0.087 -0.077
 TransDip  -0.309  0.054  0.547   -0.436 -0.111 -0.198   -0.685 -0.312 -0.206

 Mode:                28                     29                     30
 Frequency:      1276.65                1302.71                1312.89
 Force Cnst:      1.6661                 1.0831                 1.3139
 Red. Mass:       1.7351                 1.0833                 1.2937
 IR Active:          YES                    YES                    YES
 IR Intens:     1247.265                 31.663               1267.383
 Raman Active:       YES                    YES                    YES
               X      Y      Z        X      Y      Z        X      Y      Z
 O         -0.001 -0.013  0.006    0.023 -0.005  0.013   -0.000 -0.002  0.008
 C         -0.004  0.024  0.002    0.022  0.000  0.013    0.003  0.006 -0.004
 H         -0.054  0.001  0.138   -0.341 -0.354  0.450   -0.043 -0.032  0.057
 H         -0.020  0.057  0.004    0.339  0.315 -0.380    0.056  0.041 -0.062
 H         -0.274 -0.283  0.259    0.130  0.229 -0.095   -0.022 -0.003  0.069
 C          0.025 -0.023  0.124   -0.000 -0.002 -0.012    0.040 -0.001  0.047
 O         -0.010 -0.011 -0.039   -0.003  0.001  0.006    0.023 -0.000 -0.048
 O          0.011  0.006 -0.008   -0.005  0.001  0.000   -0.030  0.002 -0.006
 O         -0.013  0.016  0.008    0.002 -0.002 -0.000   -0.007  0.004 -0.005
 H         -0.047  0.052 -0.035    0.014 -0.013  0.008   -0.073  0.065 -0.034
 C          0.005 -0.016 -0.010   -0.002  0.003  0.001    0.010 -0.012  0.005
 H         -0.048  0.021  0.062    0.014 -0.002 -0.012   -0.077 -0.005  0.042
 H         -0.138  0.055  0.018    0.025 -0.012 -0.001   -0.093  0.055 -0.010
 C          0.080  0.071  0.023   -0.015 -0.012 -0.005    0.060  0.048  0.022
 H         -0.030 -0.305  0.143   -0.119 -0.252  0.161   -0.028 -0.022  0.010
 O         -0.085 -0.081 -0.009    0.014  0.011  0.006   -0.063 -0.027 -0.048
 H          0.373  0.470 -0.427   -0.045 -0.027 -0.061    0.134 -0.198  0.932
 C          0.044  0.049 -0.098   -0.050  0.012 -0.037    0.001 -0.000 -0.022
 TransDip   0.960  0.397  0.448   -0.131 -0.084 -0.091    0.887  0.170  0.696

 Mode:                31                     32                     33
 Frequency:      1366.72                1388.21                1413.38
 Force Cnst:      1.8315                 1.3893                 2.5699
 Red. Mass:       1.6642                 1.2236                 2.1835
 IR Active:          YES                    YES                    YES
 IR Intens:      410.890                239.189                160.128
 Raman Active:       YES                    YES                    YES
               X      Y      Z        X      Y      Z        X      Y      Z
 O         -0.005  0.003  0.009    0.006 -0.023 -0.014   -0.002 -0.009  0.001
 C         -0.013 -0.013  0.010    0.058  0.081 -0.071    0.021  0.026 -0.029
 H          0.100  0.130 -0.059   -0.368 -0.379  0.356   -0.088 -0.058  0.156
 H          0.053  0.133 -0.103   -0.300 -0.422  0.437   -0.129 -0.066  0.131
 H         -0.099 -0.139  0.016    0.057  0.096  0.007   -0.088 -0.153 -0.124
 C          0.014  0.012  0.137    0.018 -0.000  0.013   -0.022  0.024  0.165
 O         -0.027 -0.004 -0.074   -0.001 -0.003 -0.009   -0.043  0.002 -0.086
 O          0.019 -0.002 -0.008   -0.005  0.000 -0.002    0.050 -0.007 -0.010
 O          0.027 -0.028 -0.008    0.002 -0.002 -0.001    0.026 -0.028 -0.007
 H          0.432 -0.205  0.211    0.140 -0.048  0.066   -0.438  0.065 -0.197
 C         -0.083  0.041  0.013   -0.036  0.008  0.002    0.147 -0.006 -0.001
 H          0.445 -0.007 -0.259    0.141  0.005 -0.072   -0.401 -0.035  0.181
 H          0.407 -0.210 -0.072    0.100 -0.059 -0.028   -0.216  0.151  0.127
 C         -0.114 -0.032 -0.014    0.000  0.008  0.003   -0.142 -0.057 -0.028
 H          0.100 -0.125 -0.042    0.026  0.132 -0.078    0.206 -0.156 -0.092
 O          0.019  0.050  0.010   -0.008 -0.006 -0.003    0.039  0.082  0.026
 H          0.221 -0.034  0.153    0.077  0.079  0.028    0.008 -0.428 -0.080
 C          0.012  0.007 -0.038   -0.021 -0.001  0.030   -0.001  0.017 -0.013
 TransDip   0.423 -0.134  0.474    0.461  0.141 -0.112   -0.244 -0.225  0.233

 Mode:                34                     35                     36
 Frequency:      1451.77                1463.71                1475.68
 Force Cnst:      1.3359                 1.3256                 1.6882
 Red. Mass:       1.0758                 1.0501                 1.3158
 IR Active:          YES                    YES                    YES
 IR Intens:       51.242                 30.019                106.710
 Raman Active:       YES                    YES                    YES
               X      Y      Z        X      Y      Z        X      Y      Z
 O         -0.000 -0.000  0.000   -0.000  0.000  0.000   -0.002  0.001  0.004
 C          0.001  0.000 -0.001   -0.002  0.001  0.002   -0.009  0.011  0.013
 H         -0.001  0.003  0.011   -0.001 -0.007 -0.023   -0.023 -0.070 -0.160
 H         -0.009  0.004  0.004    0.020 -0.010 -0.008    0.142 -0.097 -0.041
 H         -0.012 -0.024 -0.035    0.022  0.046  0.073    0.152  0.305  0.510
 C         -0.008  0.003  0.006    0.012 -0.003 -0.004    0.045 -0.014  0.024
 O         -0.002  0.001 -0.003    0.002 -0.001  0.002   -0.005 -0.005 -0.008
 O          0.007 -0.001 -0.000   -0.009  0.001  0.000   -0.027  0.004 -0.002
 O          0.013 -0.027 -0.008    0.003 -0.003  0.002    0.016 -0.002  0.000
 H          0.082  0.636 -0.091   -0.356 -0.205 -0.109   -0.013  0.136 -0.038
 C         -0.043 -0.044 -0.013   -0.002  0.014 -0.048    0.045 -0.006  0.009
 H         -0.050  0.292  0.476    0.358  0.312  0.267   -0.168 -0.036  0.053
 H          0.403 -0.213 -0.188    0.044 -0.318  0.625    0.040  0.059 -0.122
 C         -0.000  0.024  0.009   -0.012  0.006 -0.026   -0.107 -0.043 -0.014
 H          0.030 -0.031 -0.005   -0.059  0.059  0.008   -0.403  0.402  0.045
 O         -0.005  0.001  0.000    0.001 -0.002  0.002    0.024  0.015  0.008
 H         -0.041 -0.102 -0.044    0.042  0.064  0.045    0.199  0.307  0.043
 C         -0.001  0.004  0.002    0.002 -0.007 -0.006    0.024 -0.051 -0.057
 TransDip  -0.101  0.200  0.049    0.098  0.009  0.145    0.284  0.069  0.156

 Mode:                37                     38                     39
 Frequency:      1496.28                1503.83                1576.75
 Force Cnst:      1.8355                 1.4999                 5.4233
 Red. Mass:       1.3915                 1.1257                 3.7024
 IR Active:          YES                    YES                    YES
 IR Intens:      118.423                 10.802               1262.460
 Raman Active:       YES                    YES                    YES
               X      Y      Z        X      Y      Z        X      Y      Z
 O          0.005 -0.000 -0.007    0.003 -0.002 -0.005    0.005  0.003 -0.006
 C          0.011 -0.037 -0.022    0.022 -0.058 -0.043   -0.012 -0.016  0.007
 H          0.096  0.189  0.295    0.166  0.327  0.483    0.041  0.045  0.010
 H         -0.272  0.245  0.043   -0.447  0.413  0.062   -0.016  0.040 -0.022
 H         -0.063 -0.116 -0.245    0.109  0.179  0.226   -0.089 -0.041  0.038
 C          0.050 -0.009 -0.072   -0.021 -0.002  0.024    0.348 -0.033 -0.069
 O          0.016 -0.009  0.028   -0.005  0.004 -0.008    0.004  0.012  0.045
 O         -0.042  0.005  0.004    0.015 -0.001 -0.001   -0.209  0.017 -0.001
 O          0.007  0.022  0.007   -0.002 -0.007 -0.003    0.048 -0.104 -0.029
 H         -0.054  0.087 -0.045    0.017 -0.025  0.014    0.027 -0.057  0.012
 C          0.037 -0.003  0.003   -0.012  0.001 -0.001    0.025 -0.001  0.001
 H         -0.098  0.005  0.074    0.028 -0.002 -0.022    0.020 -0.038 -0.054
 H          0.047  0.007 -0.029   -0.015 -0.001  0.007   -0.052  0.048  0.005
 C         -0.099 -0.062 -0.025    0.032  0.020  0.008   -0.070  0.136  0.040
 H          0.198 -0.161 -0.030   -0.197  0.226  0.003    0.154 -0.014 -0.081
 O          0.029 -0.008 -0.002   -0.008  0.003  0.001   -0.058  0.037  0.014
 H          0.228  0.632  0.272   -0.085 -0.211 -0.089    0.356 -0.625 -0.447
 C         -0.026  0.022  0.048    0.011 -0.032 -0.024   -0.047  0.014  0.036
 TransDip   0.318 -0.048 -0.133   -0.090 -0.016 -0.053    1.108  0.220  0.136

 Mode:                40                     41                     42
 Frequency:      1677.77                1902.99                2806.36
 Force Cnst:     10.4497                 3.3367                 5.0066
 Red. Mass:       6.3007                 1.5638                 1.0790
 IR Active:          YES                    YES                    YES
 IR Intens:      479.361               2378.994                343.900
 Raman Active:       YES                    YES                    YES
               X      Y      Z        X      Y      Z        X      Y      Z
 O         -0.002 -0.001  0.003   -0.001 -0.000  0.001   -0.003  0.000  0.005
 C          0.007  0.005 -0.002    0.001  0.002 -0.000   -0.063  0.043 -0.024
 H         -0.017 -0.015  0.002   -0.004 -0.002 -0.001    0.785 -0.584  0.164
 H          0.005 -0.003  0.004    0.001 -0.001  0.001    0.027  0.059  0.058
 H          0.057  0.021 -0.102    0.014  0.011 -0.007   -0.015  0.013 -0.002
 C         -0.289  0.009 -0.147   -0.062 -0.001 -0.070   -0.001  0.001  0.001
 O          0.073  0.001  0.077    0.029  0.006  0.040    0.000  0.000 -0.000
 O          0.152 -0.011  0.020    0.034 -0.003  0.010    0.001 -0.000 -0.000
 O          0.125 -0.242 -0.069   -0.030  0.064  0.018   -0.000 -0.000 -0.000
 H          0.040 -0.112  0.008   -0.010  0.025 -0.003    0.000 -0.000 -0.001
 C          0.059 -0.022 -0.003   -0.000  0.014  0.004   -0.000  0.000  0.000
 H          0.071 -0.073 -0.086   -0.023  0.015  0.019    0.000 -0.001  0.000
 H         -0.162  0.111  0.039    0.074 -0.035 -0.013    0.000  0.001  0.000
 C         -0.241  0.378  0.106    0.037 -0.128 -0.037    0.000  0.000  0.000
 H         -0.117 -0.023  0.110   -0.038  0.002  0.029   -0.013 -0.012 -0.019
 O         -0.051 -0.022 -0.013   -0.074  0.042  0.008   -0.000  0.000 -0.000
 H          0.647  0.090  0.147    0.885 -0.392 -0.090    0.002 -0.001  0.002
 C          0.024 -0.003  0.012    0.004 -0.001  0.007    0.001  0.001  0.000
 TransDip  -0.139  0.683  0.082    1.530 -0.314  0.035   -0.487  0.339  0.024

 Mode:                43                     44                     45
 Frequency:      2840.08                3060.30                3073.15
 Force Cnst:      5.0832                 5.8388                 5.7700
 Red. Mass:       1.0696                 1.0581                 1.0369
 IR Active:          YES                    YES                    YES
 IR Intens:      296.817                 50.911                  2.567
 Raman Active:       YES                    YES                    YES
               X      Y      Z        X      Y      Z        X      Y      Z
 O          0.004 -0.000 -0.005    0.000 -0.000 -0.000   -0.000 -0.000  0.000
 C         -0.039 -0.036 -0.053   -0.001 -0.000  0.001   -0.000  0.000  0.000
 H         -0.097  0.044 -0.032   -0.002  0.003 -0.002    0.001 -0.001  0.000
 H          0.519  0.389  0.749    0.002  0.001  0.002   -0.001 -0.000 -0.002
 H         -0.015  0.013 -0.002    0.577 -0.425  0.138   -0.003  0.003 -0.001
 C          0.000 -0.001 -0.001    0.002 -0.000 -0.003    0.000  0.000  0.000
 O          0.000  0.000  0.000    0.000  0.000  0.000    0.000 -0.000  0.000
 O         -0.000  0.000  0.000   -0.001  0.000  0.000   -0.000 -0.000 -0.000
 O         -0.000  0.000 -0.000    0.000 -0.000 -0.000    0.000  0.000  0.000
 H         -0.000  0.000  0.001   -0.000  0.000  0.001   -0.193  0.110  0.626
 C          0.000 -0.000  0.000   -0.000 -0.000 -0.000    0.047 -0.018 -0.011
 H         -0.000  0.001 -0.001    0.000 -0.000  0.000   -0.125  0.474 -0.323
 H         -0.000 -0.001 -0.000    0.001  0.001  0.001   -0.214 -0.370 -0.169
 C          0.000  0.000  0.000    0.000  0.000  0.000   -0.003 -0.000 -0.000
 H         -0.009 -0.007 -0.013   -0.390 -0.258 -0.494   -0.003 -0.002 -0.003
 O         -0.000  0.000 -0.000    0.000 -0.000 -0.000    0.000  0.000  0.000
 H         -0.002 -0.002  0.002   -0.004  0.001 -0.000   -0.001  0.001  0.000
 C          0.001 -0.001  0.001   -0.016  0.057  0.032    0.001 -0.000  0.000
 TransDip  -0.105 -0.278 -0.465   -0.049  0.194  0.111    0.048 -0.017 -0.004

 Mode:                46                     47                     48
 Frequency:      3113.36                3145.30                3179.43
 Force Cnst:      6.3203                 6.4153                 6.5808
 Red. Mass:       1.1067                 1.1006                 1.1049
 IR Active:          YES                    YES                    YES
 IR Intens:       68.745                  7.221                 14.842
 Raman Active:       YES                    YES                    YES
               X      Y      Z        X      Y      Z        X      Y      Z
 O          0.000 -0.000  0.000    0.000  0.000  0.000   -0.000  0.000 -0.000
 C         -0.004  0.001 -0.003   -0.000  0.000 -0.000   -0.000  0.000  0.000
 H          0.022 -0.016  0.007    0.000 -0.000  0.000    0.000 -0.000 -0.000
 H          0.016  0.011  0.019    0.000  0.000  0.000   -0.000 -0.000  0.000
 H          0.529 -0.407  0.117   -0.000  0.000 -0.000   -0.002  0.001 -0.000
 C         -0.002  0.000 -0.001   -0.000  0.000  0.000   -0.000  0.000  0.000
 O          0.000 -0.000  0.000   -0.000  0.000 -0.000   -0.000  0.000 -0.000
 O          0.001  0.000  0.000    0.000 -0.000  0.000    0.000  0.000  0.000
 O          0.000 -0.000 -0.000   -0.000  0.000 -0.000   -0.000  0.001  0.000
 H         -0.001  0.001  0.004   -0.212  0.128  0.648   -0.079  0.031  0.239
 C          0.000 -0.000 -0.000   -0.001  0.030 -0.087   -0.022 -0.087 -0.029
 H         -0.001  0.004 -0.003    0.161 -0.577  0.372   -0.089  0.307 -0.217
 H         -0.001 -0.002 -0.001    0.053  0.094  0.027    0.420  0.705  0.322
 C          0.000  0.000  0.000    0.001  0.000 -0.001    0.001 -0.002 -0.001
 H          0.408  0.292  0.528    0.001  0.000  0.001    0.000  0.000  0.000
 O         -0.000 -0.000 -0.000   -0.000 -0.000  0.000   -0.000  0.000  0.000
 H          0.003  0.000  0.004    0.000 -0.001  0.001    0.005 -0.000  0.000
 C         -0.077  0.009 -0.054   -0.000 -0.000 -0.000    0.000 -0.000  0.000
 TransDip  -0.214  0.015 -0.156   -0.012  0.029 -0.080   -0.047 -0.108 -0.037

 STANDARD THERMODYNAMIC QUANTITIES AT   298.15 K  AND     1.00 ATM

   This Molecule has  0 Imaginary Frequencies
   Zero point vibrational energy:       82.109 kcal/mol

   Atom    1 Element O  Has Mass   15.99491
   Atom    2 Element C  Has Mass   12.00000
   Atom    3 Element H  Has Mass    1.00783
   Atom    4 Element H  Has Mass    1.00783
   Atom    5 Element H  Has Mass    1.00783
   Atom    6 Element C  Has Mass   12.00000
   Atom    7 Element O  Has Mass   15.99491
   Atom    8 Element O  Has Mass   15.99491
   Atom    9 Element O  Has Mass   15.99491
   Atom   10 Element H  Has Mass    1.00783
   Atom   11 Element C  Has Mass   12.00000
   Atom   12 Element H  Has Mass    1.00783
   Atom   13 Element H  Has Mass    1.00783
   Atom   14 Element C  Has Mass   12.00000
   Atom   15 Element H  Has Mass    1.00783
   Atom   16 Element O  Has Mass   15.99491
   Atom   17 Element H  Has Mass    1.00783
   Atom   18 Element C  Has Mass   12.00000
   Molecular Mass:   148.037190 amu
   Principal axes and moments of inertia in amu*Bohr^2:
                             1           2           3
    Eigenvalues --     1114.40134  2496.57337  3203.03095
          X               0.84209    -0.49285    -0.21906
          Y               0.11542    -0.23207     0.96583
          Z               0.52685     0.83860     0.13854
   Rotational Symmetry Number is   1
   The Molecule is an Asymmetric Top
   Translational Enthalpy:        0.889 kcal/mol
   Rotational Enthalpy:           0.889 kcal/mol
   Vibrational Enthalpy:         87.716 kcal/mol
   gas constant (RT):             0.592 kcal/mol
   Translational Entropy:        40.887  cal/mol.K
   Rotational Entropy:           30.567  cal/mol.K
   Vibrational Entropy:          40.506  cal/mol.K

   Total Enthalpy:               90.086 kcal/mol
   Total Entropy:               111.960  cal/mol.K
Archival summary:
1\1\c5-68\FREQ\ProcedureUnspecified\BasisUnspecified\558(2-,1)\lmgong\FriMar2023:39:462020FriMar2023:39:462020\0\\#,FREQ,ProcedureUnspecified,BasisUnspecified,\\-2,1\O\H,1,1.07918\C,1,1.31097,2,113.611\O,3,1.22537,1,123.87,2,2.37993,0\O,2,1.39029,1,174.151,3,-145.35,0\C,5,1.28497,2,119.062,1,-102.805,0\O,6,1.2463,5,122.811,2,-178.281,0\C,3,1.50884,1,113.408,2,-177.194,0\H,8,1.08935,3,110.514,1,-174.623,0\H,8,1.0927,3,109.882,1,-52.8312,0\H,8,1.09387,3,108.996,1,64.8547,0\C,6,1.51914,5,117.51,2,-0.734618,0\H,12,1.09438,6,109.362,5,157.307,0\H,12,1.09522,6,110.256,5,37.573,0\C,12,1.55208,6,111.526,5,-82.5176,0\H,15,1.11437,12,106.241,6,54.8274,0\H,15,1.11617,12,106.006,6,-56.1716,0\O,15,1.37221,12,113.268,6,179.377,0\\\@

 Total job time:  34945.48s(wall), 485424.41s(cpu) 
 Fri Mar 20 23:39:46 2020

        *************************************************************
        *                                                           *
        *  Thank you very much for using Q-Chem.  Have a nice day.  *
        *                                                           *
        *************************************************************


