
Running Job 1 of 1 qc-3-tshess.in
qchem qc-3-tshess.in_86432.0 ./qc-3-tshess.d/ 1
/home/leeping/opt/qchem/5.0.2-openmp/exe/qcprog.exe_s qc-3-tshess.in_86432.0 ./qc-3-tshess.d/
Check license passed

                  Welcome to Q-Chem
     A Quantum Leap Into The Future Of Chemistry


 Q-Chem 5.0, Q-Chem, Inc., Pleasanton, CA (2017)

 Yihan Shao,  Zhengting Gan,  E. Epifanovsky,  A. T. B. Gilbert,  M. Wormit,  
 J. Kussmann,  A. W. Lange,  A. Behn,  Jia Deng,  Xintian Feng,  D. Ghosh,  
 M. Goldey,  P. R. Horn,  L. D. Jacobson,  I. Kaliman,  T. Kus,  A. Landau,  
 Jie Liu,  E. I. Proynov,  R. M. Richard,  R. P. Steele,  E. J. Sundstrom,  
 H. L. Woodcock III,  P. M. Zimmerman,  D. Zuev,  B. Albrecht,  E. Alguire,  
 S. A. Baeppler,  D. Barton,  Z. Benda,  Y. A. Bernard,  E. J. Berquist,  
 K. B. Bravaya,  H. Burton,  D. Casanova,  Chun-Min Chang,  Yunqing Chen,  
 A. Chien,  K. D. Closser,  M. P. Coons,  S. Dasgupta,  A. L. Dempwolff,  
 M. Diedenhofen,  Hainam Do,  R. G. Edgar,  Po-Tung Fang,  S. Fatehi,  
 Qingguo Feng,  J. Fosso-Tande,  Qinghui Ge,  A. Ghysels,  G. Gidofalvi,  
 J. Gomes,  J. Gonthier,  A. Gunina,  M. W. D. Hanson-Heine,  
 P. H. P. Harbach,  A. W. Hauser,  J. E. Herr,  E. G. Hohenstein,  
 Z. C. Holden,  Kerwin Hui,  T.-C. Jagau,  Hyunjun Ji,  B. Kaduk,  
 K. Khistyaev,  Jaehoon Kim,  P. Klunzinger,  K. Koh,  D. Kosenkov,  
 L. Koulias,  T. Kowalczyk,  C. M. Krauter,  A. Kunitsa,  Ka Un Lao,  
 A. Laurent,  K. V. Lawler,  Joonho Lee,  D. Lefrancois,  S. Lehtola,  
 D. S. Levine,  Yi-Pei Li,  You-Sheng Lin,  Fenglai Liu,  E. Livshits,  
 A. Luenser,  P. Manohar,  E. Mansoor,  S. F. Manzer,  Shan-Ping Mao,  
 Yuezhi Mao,  N. Mardirossian,  A. V. Marenich,  T. Markovich,  
 L. A. Martinez-Martinez,  S. A. Maurer,  N. J. Mayhall,  S. C. McKenzie,  
 J.-M. Mewes,  A. F. Morrison,  J. W. Mullinax,  K. Nanda,  
 T. S. Nguyen-Beck,  R. Olivares-Amaya,  J. A. Parkhill,  T. M. Perrine,  
 F. Plasser,  S. Prager,  A. Prociuk,  E. Ramos,  D. R. Rehn,  F. Rob,  
 M. Schneider,  N. Sergueev,  S. M. Sharada,  S. Sharma,  D. W. Small,  
 T. Stauch,  T. Stein,  Yu-Chuan Su,  A. J. W. Thom,  A. Tkatchenko,  
 T. Tsuchimochi,  L. Vogt,  O. Vydrov,  M. A. Watson,  J. Wenzel,  
 M. de Wergifosse,  T. A. Wesolowski,  A. White,  J. Witte,  A. Yamada,  
 Jun Yang,  K. Yao,  S. Yeganeh,  S. R. Yost,  Zhi-Qiang You,  A. Zech,  
 Igor Ying Zhang,  Xing Zhang,  Yan Zhao,  Ying Zhu,  B. R. Brooks,  
 G. K. L. Chan,  C. J. Cramer,  M. S. Gordon,  W. J. Hehre,  A. Klamt,  
 M. W. Schmidt,  C. D. Sherrill,  D. G. Truhlar,  A. Aspuru-Guzik,  R. Baer,  
 A. T. Bell,  N. A. Besley,  Jeng-Da Chai,  R. A. DiStasio Jr.,  A. Dreuw,  
 B. D. Dunietz,  T. R. Furlani,  Chao-Ping Hsu,  Yousung Jung,  Jing Kong,  
 D. S. Lambrecht,  WanZhen Liang,  C. Ochsenfeld,  V. A. Rassolov,  
 L. V. Slipchenko,  J. E. Subotnik,  T. Van Voorhis,  J. M. Herbert,  
 A. I. Krylov,  P. M. W. Gill,  M. Head-Gordon

 Contributors to earlier versions of Q-Chem not listed above: 
 R. D. Adamson,  B. Austin,  J. Baker,  G. J. O. Beran,  K. Brandhorst,  
 S. T. Brown,  E. F. C. Byrd,  A. K. Chakraborty,  C.-L. Cheng,  
 Siu Hung Chien,  D. M. Chipman,  D. L. Crittenden,  H. Dachsel,  
 R. J. Doerksen,  A. D. Dutoi,  L. Fusti-Molnar,  W. A. Goddard III,  
 A. Golubeva-Zadorozhnaya,  S. R. Gwaltney,  G. Hawkins,  A. Heyden,  
 S. Hirata,  G. Kedziora,  F. J. Keil,  C. Kelley,  Jihan Kim,  R. A. King,  
 R. Z. Khaliullin,  P. P. Korambath,  W. Kurlancheek,  A. M. Lee,  M. S. Lee,  
 S. V. Levchenko,  Ching Yeh Lin,  D. Liotard,  R. C. Lochan,  I. Lotan,  
 P. E. Maslen,  N. Nair,  D. P. O'Neill,  D. Neuhauser,  E. Neuscamman,  
 C. M. Oana,  R. Olson,  B. Peters,  R. Peverati,  P. A. Pieniazek,  
 Y. M. Rhee,  J. Ritchie,  M. A. Rohrdanz,  E. Rosta,  N. J. Russ,  
 H. F. Schaefer III,  N. E. Schultz,  N. Shenvi,  A. C. Simmonett,  A. Sodt,  
 D. Stuck,  K. S. Thanthiriwatte,  V. Vanovschi,  Tao Wang,  A. Warshel,  
 C. F. Williams,  Q. Wu,  X. Xu,  W. Zhang

 Please cite Q-Chem as follows:
 Y. Shao et al., Mol. Phys. 113, 184-215 (2015)
 DOI: 10.1080/00268976.2014.952696

 Q-Chem 5.0.2 for Intel X86 EM64T Linux

 Parts of Q-Chem use Armadillo 5.200.1 (Boston Tea Smuggler).
 http://arma.sourceforge.net/

 Q-Chem begins on Sat May 19 14:46:04 2018  

Host: 
0

     Scratch files written to ./qc-3-tshess.d//
 Dec517 15110_ 26548  26544 5633   
Processing $rem in /home/leeping/opt/qchem/5.0.2-openmp/config/preferences.
 MEM_STATIC 2000
 MEM_TOTAL  8000
 SYMMETRY   OFF
 SYM_IGNORE TRUE 
Symmetry turned off for PCM/SM12/SMD calculation

Checking the input file for inconsistencies... 	...done.

--------------------------------------------------------------
User input:
--------------------------------------------------------------
$molecule
-2 1
C       -0.1913007151    0.9678648696   -1.0016724892
C        0.3002199399    1.8167807470   -2.1860951739
O       -0.3088372302    2.9061062585   -2.3696339312
O        1.2455279317    1.3829249517   -2.8923184881
C        0.6456840342   -0.2686519000   -0.7049548039
H       -1.2271001549    0.6908525875   -1.2290726644
H       -0.2305874273    1.6073369163   -0.1145401781
C        0.1991847626   -1.1160503328    0.4646897284
H        1.6924166879   -0.0038155447   -0.5390335339
H        0.6272034754   -0.9426046177   -1.5736917455
C       -1.2776111215   -1.2901983390    0.7053908458
H       -1.7920816356   -0.3313672503    0.7604819543
H       -1.4413191056   -1.8594829285    1.6216043660
H       -1.6953182956   -1.8468093694   -0.1435067340
O        1.0126791619   -1.8114368972    1.0679081474
O        0.4061873317    0.8764524956    2.1617782246
O        0.9313390844    0.0223936958    3.2292044000
H        1.1036949265   -0.8003179153    2.7434685522
$end

$rem
jobtype               freq
method                wb97x-v
basis                 def2-tzvpd
symmetry              off
sym_ignore            true
incdft                false
incfock               0
!scf_algorithm        diis_gdm
scf_convergence       8
thresh                14
!purecart             112
max_scf_cycles        1000
geom_opt_max_cycles   500
geom_opt_dmax         100
geom_opt_tol_gradient 10
solvent_method        pcm
ideriv                1
rpath_tol_displacement 1000
rpath_max_cycles      100
rpath_direction       1
!scf_guess            read
scf_guess             read
$end

$pcm
theory              cosmo
method              iswig
Radii               bondi
vdwScale            1.20
hpoints             110
heavypoints         110
$end

$solvent
dielectric 78.400000
$end

--------------------------------------------------------------
 ----------------------------------------------------------------
             Standard Nuclear Orientation (Angstroms)
    I     Atom           X                Y                Z
 ----------------------------------------------------------------
    1      C      -0.1913007151     0.9678648696    -1.0016724892
    2      C       0.3002199399     1.8167807470    -2.1860951739
    3      O      -0.3088372302     2.9061062585    -2.3696339312
    4      O       1.2455279317     1.3829249517    -2.8923184881
    5      C       0.6456840342    -0.2686519000    -0.7049548039
    6      H      -1.2271001549     0.6908525875    -1.2290726644
    7      H      -0.2305874273     1.6073369163    -0.1145401781
    8      C       0.1991847626    -1.1160503328     0.4646897284
    9      H       1.6924166879    -0.0038155447    -0.5390335339
   10      H       0.6272034754    -0.9426046177    -1.5736917455
   11      C      -1.2776111215    -1.2901983390     0.7053908458
   12      H      -1.7920816356    -0.3313672503     0.7604819543
   13      H      -1.4413191056    -1.8594829285     1.6216043660
   14      H      -1.6953182956    -1.8468093694    -0.1435067340
   15      O       1.0126791619    -1.8114368972     1.0679081474
   16      O       0.4061873317     0.8764524956     2.1617782246
   17      O       0.9313390844     0.0223936958     3.2292044000
   18      H       1.1036949265    -0.8003179153     2.7434685522
 ----------------------------------------------------------------
 Nuclear Repulsion Energy =   524.0796773061 hartrees
 There are       40 alpha and       40 beta electrons
 Requested basis set is def2-TZVPD
 There are 175 shells and 457 basis functions

 Total QAlloc Memory Limit   8000 MB
 Mega-Array Size      1956 MB
 MEM_STATIC part      2000 MB
 Discretize the solute cavity surface with Lebedev spheres
	Using 110 Lebedev grid points for each H atom
	Using 110 Lebedev grid points for other atoms
	Atomic van der Waals radii will be scaled by 1.20
 Remove points where switching function is < 1.0e-08
 Keep 1077 surface tesserae and discard 903 interior tesserae
 Molecular Surface Area = 193.972 Angst**2
 A cutoff of  1.0D-14 yielded  13986 shell pairs
 There are     95458 function pairs (    121381 Cartesian)
 
 -------------------------------------------------------
 OpenMP Integral Computing Module                       
 Release: version 1.0, May 2013, Q-Chem Inc. Pittsburgh 
 -------------------------------------------------------
 Integral Job Info:
 Integral job number is                      11
 Integral operator is                         1
 short-range coefficients              16700000
 long-range coefficients              100000000
 Omega coefficients                         300
 if combine SR and LR in K                    1
 Integral screening is                        0
 Integral computing path is                   2
 max size of driver memory is            800000
 size of driver memory is                776718
 size of scratch memory is              4473992
 max col of scratch BK array              10000
 max len of scratch array in speh3          662
 max len of scratch index in speh4           32
 max int batch size is                      520
 min int batch size is                       52
 fixed nKL is                                52
 max L of basis functions is                  3
 order of int derivative is                   0
 number of shells is                        175
 number of basis is                         517
 number of cartesian basis is               517
 number of contracted shell pairs         13986
 number of primitive shell pairs          28201
 maxK2 (contraction) of shell pair           36
 max number of K2 of shell pair               1
 max number of CS2 of shell pair           2309
 max number of PS2 of shell pair           3186
 mem total for path MDJ                  776120
 -------------------------------------------------------
 Smallest overlap matrix eigenvalue = 2.56E-06
 Guess MOs from SCF MO coefficient file
 Reading MOs from coefficient file
 Reading MOs from coefficient file
 Long-range K will be added via erf
 Coulomb attenuation parameter = 0.3 bohr**(-1)
 A restricted hybrid HF-DFT SCF calculation will be
 performed using Pulay DIIS extrapolation
 Polarizable Continuum solvation model will be applied
 Exchange:     0.1670 Hartree-Fock + 1.0000 wB97X-V + LR-HF
 Correlation:  1.0000 wB97X-V
 Using SG-2 standard quadrature grid
 Nonlocal Correlation:  VV10 with C = 0.0100 and b = 6.00
 Grid used for NLC:  SG-1 standard quadrature
 SCF converges when DIIS error is below 1.0E-08
Using Q-Chem read-in guess as SCF_GUESS READ specified.

 using 16 threads for integral computing
 -------------------------------------------------------
 OpenMP Integral computing Module                
 Release: version 1.0, May 2013, Q-Chem Inc. Pittsburgh 
 -------------------------------------------------------
 using 16 threads for integral computing
 -------------------------------------------------------
 OpenMP Integral computing Module                
 Release: version 1.0, May 2013, Q-Chem Inc. Pittsburgh 
 -------------------------------------------------------
 -------------------------------------------------------
 OpenMP BLAS3 based DFT computing Module                
 Release: version 1.0, May 2013, Q-Chem Inc. Pittsburgh 
 -------------------------------------------------------
 -------------------------------------------------------
 OpenMP BLAS3 based DFT computing Module                
 Release: version 1.0, May 2013, Q-Chem Inc. Pittsburgh 
 -------------------------------------------------------
 -------------------------------------------------------
 OpenMP BLAS3 based DFT computing Module                
 Release: version 1.0, May 2013, Q-Chem Inc. Pittsburgh 
 -------------------------------------------------------
 ---------------------------------------
  Cycle       Energy         DIIS Error
 ---------------------------------------
    1    -571.3926008735      4.22E-04
    2    -571.6986493793      4.70E-04
    3    -571.7065455239      2.14E-04
    4    -571.7078040123      1.56E-04
    5    -571.7085635177      1.19E-04
    6    -571.7089434955      9.73E-05
    7    -571.7092546901      7.49E-05
    8    -571.7094534992      5.62E-05
    9    -571.7095645717      4.23E-05
   10    -571.7096314452      3.10E-05
   11    -571.7096692005      2.23E-05
   12    -571.7096828490      1.81E-05
   13    -571.7096921882      1.45E-05
   14    -571.7096986128      1.15E-05
   15    -571.7097022159      9.33E-06
   16    -571.7097047832      7.43E-06
   17    -571.7097092228      9.77E-09 Convergence criterion met
 ---------------------------------------

************** Final PCM Free Energy Summary **************
 G_electrostatic  =      -0.31710836 hartree =    -198.98849864 kcal/mol
 G_cavitation     =       0.00000000 hartree =       0.00000000 kcal/mol
 G_dispersion     =       0.00000000 hartree =       0.00000000 kcal/mol
 G_repulsion      =       0.00000000 hartree =       0.00000000 kcal/mol
 --------------------------------------------------
 Non-electrostatic Free Energy =       0.00000000 hartree =       0.00000000 kcal/mol
 Total                         =      -0.31710836 hartree =    -198.98849864 kcal/mol
 --------------------------------------------------
 SCF Energy (H0 + V/2)                       =    -571.70970922 
 Solute Internal Energy (H0)                 =    -571.39260086 
 Total Free Energy (H0 + V/2 + non-elec)     =    -571.70970922 hartree
                                             = -358753.25719994 kcal/mol
***********************************************************

 SCF time:  CPU 4201.79 s  wall 309.20 s
 SCF   energy in the final basis set = -571.70970922
 Total energy in the final basis set = -571.70970922
 
 --------------------------------------------------------------
 
                    Orbital Energies (a.u.)
 --------------------------------------------------------------
 
 Alpha MOs
 -- Occupied --
-19.195 -19.188 -19.140 -19.137 -19.133 -10.354 -10.341 -10.255
-10.253 -10.248  -1.161  -1.143  -1.130  -1.048  -0.911  -0.873
 -0.848  -0.774  -0.635  -0.609  -0.582  -0.567  -0.559  -0.538
 -0.528  -0.514  -0.509  -0.486  -0.476  -0.464  -0.447  -0.436
 -0.433  -0.421  -0.357  -0.346  -0.334  -0.326  -0.297  -0.268
 -- Virtual --
  0.060   0.071   0.079   0.084   0.094   0.097   0.102   0.110
  0.124   0.128   0.131   0.136   0.144   0.150   0.152   0.162
  0.167   0.179   0.185   0.189   0.193   0.198   0.207   0.212
  0.217   0.230   0.241   0.241   0.243   0.252   0.260   0.268
  0.280   0.285   0.289   0.295   0.307   0.311   0.315   0.319
  0.326   0.329   0.332   0.339   0.346   0.356   0.363   0.368
  0.373   0.376   0.379   0.385   0.391   0.395   0.401   0.406
  0.417   0.420   0.428   0.434   0.438   0.445   0.452   0.461
  0.470   0.471   0.476   0.483   0.485   0.490   0.491   0.508
  0.509   0.513   0.517   0.527   0.529   0.536   0.542   0.549
  0.557   0.562   0.570   0.574   0.575   0.589   0.594   0.595
  0.600   0.604   0.617   0.621   0.629   0.635   0.637   0.645
  0.655   0.662   0.671   0.672   0.679   0.682   0.689   0.700
  0.708   0.719   0.722   0.730   0.741   0.751   0.757   0.768
  0.771   0.775   0.781   0.784   0.792   0.799   0.804   0.815
  0.820   0.822   0.834   0.837   0.840   0.843   0.854   0.859
  0.862   0.876   0.890   0.899   0.902   0.909   0.915   0.926
  0.936   0.949   0.955   0.967   0.970   0.981   0.995   1.011
  1.020   1.037   1.044   1.054   1.078   1.084   1.084   1.098
  1.110   1.111   1.141   1.156   1.166   1.177   1.180   1.202
  1.210   1.219   1.229   1.240   1.250   1.265   1.290   1.307
  1.320   1.340   1.342   1.372   1.382   1.408   1.422   1.436
  1.443   1.450   1.455   1.482   1.502   1.529   1.556   1.576
  1.589   1.620   1.654   1.697   1.714   1.732   1.735   1.771
  1.795   1.818   1.859   1.904   1.921   1.938   1.940   1.950
  1.956   1.966   1.974   1.985   1.992   2.008   2.013   2.020
  2.026   2.048   2.055   2.064   2.090   2.115   2.123   2.147
  2.154   2.163   2.199   2.226   2.236   2.255   2.265   2.277
  2.297   2.308   2.314   2.325   2.329   2.350   2.382   2.394
  2.409   2.421   2.461   2.484   2.491   2.499   2.530   2.537
  2.563   2.588   2.610   2.646   2.662   2.674   2.681   2.709
  2.733   2.757   2.779   2.784   2.817   2.830   2.854   2.872
  2.917   2.934   2.937   2.957   2.988   2.997   3.007   3.023
  3.039   3.061   3.076   3.081   3.110   3.123   3.130   3.162
  3.187   3.223   3.239   3.261   3.288   3.295   3.303   3.306
  3.324   3.346   3.360   3.385   3.399   3.414   3.417   3.439
  3.447   3.479   3.491   3.494   3.525   3.531   3.541   3.562
  3.570   3.586   3.601   3.621   3.641   3.653   3.668   3.690
  3.702   3.706   3.723   3.731   3.749   3.772   3.791   3.812
  3.836   3.847   3.881   3.886   3.963   4.015   4.060   4.068
  4.089   4.148   4.159   4.194   4.210   4.234   4.264   4.309
  4.333   4.346   4.371   4.474   4.614   4.623   4.670   4.695
  4.720   4.777   4.815   4.830   4.869   4.931   4.947   4.949
  4.997   5.054   5.103   5.107   5.219   5.220   5.254   5.261
  5.326   5.340   5.364   5.372   5.380   5.392   5.430   5.433
  5.504   5.538   5.612   5.665   5.709   5.716   5.730   5.781
  5.820   6.009   6.016   6.054   6.245   6.283   6.314   6.336
  6.341   6.522   6.586   6.605   6.616   6.627   6.638   6.648
  6.663   6.699   6.705   6.733   6.755   6.762   6.776   6.851
  6.958   6.971   7.025   7.055   7.073   7.101   7.223   7.244
  7.255   7.352   7.369   7.401   7.413   7.427   8.204  22.712
 22.897  22.924  23.438  23.745  43.858  44.281  44.428  44.491
 44.554
 --------------------------------------------------------------
 
          Ground-State Mulliken Net Atomic Charges

     Atom                 Charge (a.u.)
  ----------------------------------------
      1 C                    -0.147012
      2 C                    -0.058731
      3 O                    -0.711021
      4 O                    -0.695047
      5 C                     0.172519
      6 H                     0.257324
      7 H                     0.115438
      8 C                     0.366938
      9 H                     0.173987
     10 H                     0.282520
     11 C                    -0.981471
     12 H                     0.257082
     13 H                     0.218074
     14 H                     0.310291
     15 O                    -0.668179
     16 O                    -0.733251
     17 O                    -0.463709
     18 H                     0.304248
  ----------------------------------------
  Sum of atomic charges =    -2.000000

 -----------------------------------------------------------------
                    Cartesian Multipole Moments
 -----------------------------------------------------------------
    Charge (ESU x 10^10)
                -9.6064
    Dipole Moment (Debye)
         X      -7.6690      Y     -13.6656      Z      -0.1753
       Tot      15.6713
    Quadrupole Moments (Debye-Ang)
        XX     -74.0152     XY       1.3697     YY    -104.5171
        XZ       0.0626     YZ      24.8837     ZZ    -140.3173
    Octopole Moments (Debye-Ang^2)
       XXX     -64.5177    XXY     -29.8848    XYY     -23.5892
       YYY    -152.4473    XXZ      14.6701    XYZ       6.1479
       YYZ      72.6581    XZZ     -72.1882    YZZ    -131.8521
       ZZZ      30.8849
    Hexadecapole Moments (Debye-Ang^3)
      XXXX    -366.9011   XXXY     -29.3554   XXYY    -235.9229
      XYYY      15.9303   YYYY   -1229.6762   XXXZ       4.7973
      XXYZ     130.0961   XYYZ     -15.3337   YYYZ     554.9151
      XXZZ    -392.7576   XYZZ     -51.6027   YYZZ    -646.1508
      XZZZ      19.6088   YZZZ     502.4511   ZZZZ   -2221.6711
 -----------------------------------------------------------------
 Calculating analytic gradient of the SCF energy
 Gradient of SCF Energy
            1           2           3           4           5           6
    1  -0.0570035   0.0125268   0.0230593  -0.0427641   0.1161731   0.0450568
    2   0.0376619   0.0086094  -0.0473028   0.0184700  -0.0422665   0.0028415
    3   0.0896443  -0.0620784   0.0182303   0.0377348  -0.0475907   0.0221515
            7           8           9          10          11          12
    1  -0.0052599  -0.0030696  -0.0577696  -0.0044128  -0.0631718   0.0264735
    2  -0.0351353   0.0310806  -0.0180897   0.0309130  -0.0118235  -0.0679228
    3  -0.0418508  -0.0357696  -0.0005614   0.0317945   0.0200050   0.0008481
           13          14          15          16          17          18
    1   0.0192477   0.0162030  -0.0328037  -0.0177578   0.0327676  -0.0074952
    2   0.0416789   0.0250231   0.0238846   0.0496117  -0.0939499   0.0467158
    3  -0.0639410   0.0505188  -0.0245800  -0.0412352   0.0120907   0.0345891
 Max gradient component =       1.162E-01
 RMS gradient           =       4.176E-02
 Computing fast CPCM-ISWIG gradient
 Updating gradient with PCM contributions...
 -- total gradient after adding PCM contribution --
---------------------------------------------------
  Atom         X              Y              Z     
---------------------------------------------------
   1      -0.000009       0.000003       0.000005
   2      -0.000020       0.000002      -0.000001
   3      -0.000016       0.000005       0.000009
   4      -0.000034      -0.000002      -0.000015
   5      -0.000011      -0.000002      -0.000010
   6      -0.000013       0.000010       0.000018
   7       0.000008       0.000001       0.000006
   8       0.000000      -0.000005      -0.000004
   9      -0.000007      -0.000008      -0.000024
  10      -0.000027      -0.000001      -0.000009
  11       0.000002       0.000006       0.000016
  12       0.000009       0.000009       0.000024
  13       0.000012       0.000006       0.000017
  14      -0.000012       0.000010       0.000021
  15       0.000004      -0.000006      -0.000019
  16       0.000033      -0.000005      -0.000004
  17       0.000047      -0.000012      -0.000013
  18       0.000033      -0.000010      -0.000017
---------------------------------------------------
 Number of fixed atoms: 0
 Gradient time:  CPU 840.35 s  wall 61.85 s
 ######################################################
 ######################################################
 # Starting finite difference calculation for IDERIV  #
 Finite diff step size:  1.88973e-03 a.u.
 ----------------------------------------------------------------
             Standard Nuclear Orientation (Angstroms)
    I     Atom           X                Y                Z
 ----------------------------------------------------------------
    1      C      -0.1903007151     0.9678648696    -1.0016724892
    2      C       0.3002199399     1.8167807470    -2.1860951739
    3      O      -0.3088372302     2.9061062585    -2.3696339312
    4      O       1.2455279317     1.3829249517    -2.8923184881
    5      C       0.6456840342    -0.2686519000    -0.7049548039
    6      H      -1.2271001549     0.6908525875    -1.2290726644
    7      H      -0.2305874273     1.6073369163    -0.1145401781
    8      C       0.1991847626    -1.1160503328     0.4646897284
    9      H       1.6924166879    -0.0038155447    -0.5390335339
   10      H       0.6272034754    -0.9426046177    -1.5736917455
   11      C      -1.2776111215    -1.2901983390     0.7053908458
   12      H      -1.7920816356    -0.3313672503     0.7604819543
   13      H      -1.4413191056    -1.8594829285     1.6216043660
   14      H      -1.6953182956    -1.8468093694    -0.1435067340
   15      O       1.0126791619    -1.8114368972     1.0679081474
   16      O       0.4061873317     0.8764524956     2.1617782246
   17      O       0.9313390844     0.0223936958     3.2292044000
   18      H       1.1036949265    -0.8003179153     2.7434685522
 ----------------------------------------------------------------
 Nuclear Repulsion Energy =   524.0880890164 hartrees
 There are       40 alpha and       40 beta electrons
 Discretize the solute cavity surface with Lebedev spheres
	Using 110 Lebedev grid points for each H atom
	Using 110 Lebedev grid points for other atoms
	Atomic van der Waals radii will be scaled by 1.20
 Remove points where switching function is < 1.0e-08
 Keep 1077 surface tesserae and discard 903 interior tesserae
 Molecular Surface Area = 193.975 Angst**2
 Requested basis set is def2-TZVPD
 There are 175 shells and 457 basis functions
 A cutoff of  1.0D-14 yielded  13986 shell pairs
 There are     95458 function pairs (    121381 Cartesian)
 Smallest overlap matrix eigenvalue = 2.56E-06
 Guess MOs from SCF MO coefficient file
 Reading MOs from coefficient file
 Reading MOs from coefficient file
 Long-range K will be added via erf
 Coulomb attenuation parameter = 0.3 bohr**(-1)
 A restricted hybrid HF-DFT SCF calculation will be
 performed using Pulay DIIS extrapolation
 Polarizable Continuum solvation model will be applied
 Exchange:     0.1670 Hartree-Fock + 1.0000 wB97X-V + LR-HF
 Correlation:  1.0000 wB97X-V
 Using SG-2 standard quadrature grid
 Nonlocal Correlation:  VV10 with C = 0.0100 and b = 6.00
 Grid used for NLC:  SG-1 standard quadrature
 SCF converges when DIIS error is below 1.0E-08
Using Q-Chem read-in guess as SCF_GUESS READ specified.

 using 16 threads for integral computing
 -------------------------------------------------------
 OpenMP Integral computing Module                
 Release: version 1.0, May 2013, Q-Chem Inc. Pittsburgh 
 -------------------------------------------------------
 using 16 threads for integral computing
 -------------------------------------------------------
 OpenMP Integral computing Module                
 Release: version 1.0, May 2013, Q-Chem Inc. Pittsburgh 
 -------------------------------------------------------
 -------------------------------------------------------
 OpenMP BLAS3 based DFT computing Module                
 Release: version 1.0, May 2013, Q-Chem Inc. Pittsburgh 
 -------------------------------------------------------
 -------------------------------------------------------
 OpenMP BLAS3 based DFT computing Module                
 Release: version 1.0, May 2013, Q-Chem Inc. Pittsburgh 
 -------------------------------------------------------
 -------------------------------------------------------
 OpenMP BLAS3 based DFT computing Module                
 Release: version 1.0, May 2013, Q-Chem Inc. Pittsburgh 
 -------------------------------------------------------
 ---------------------------------------
  Cycle       Energy         DIIS Error
 ---------------------------------------
    1    -571.3922553677      4.23E-04
    2    -571.6986403621      4.71E-04
    3    -571.7065447494      2.14E-04
    4    -571.7078051020      1.56E-04
    5    -571.7085698952      1.19E-04
    6    -571.7089609895      9.61E-05
    7    -571.7093040773      7.05E-05
    8    -571.7095463480      4.47E-05
    9    -571.7096582317      2.49E-05
   10    -571.7096997340      1.03E-05
   11    -571.7097076147      2.87E-06
   12    -571.7097081989      9.36E-07
   13    -571.7097082630      2.30E-07
   14    -571.7097082669      4.57E-08
   15    -571.7097082670      1.40E-08
   16    -571.7097082670      2.29E-09 Convergence criterion met
 ---------------------------------------

************** Final PCM Free Energy Summary **************
 G_electrostatic  =      -0.31710781 hartree =    -198.98815676 kcal/mol
 G_cavitation     =       0.00000000 hartree =       0.00000000 kcal/mol
 G_dispersion     =       0.00000000 hartree =       0.00000000 kcal/mol
 G_repulsion      =       0.00000000 hartree =       0.00000000 kcal/mol
 --------------------------------------------------
 Non-electrostatic Free Energy =       0.00000000 hartree =       0.00000000 kcal/mol
 Total                         =      -0.31710781 hartree =    -198.98815676 kcal/mol
 --------------------------------------------------
 SCF Energy (H0 + V/2)                       =    -571.70970827 
 Solute Internal Energy (H0)                 =    -571.39260045 
 Total Free Energy (H0 + V/2 + non-elec)     =    -571.70970827 hartree
                                             = -358753.25660020 kcal/mol
***********************************************************

 SCF time:  CPU 3948.99 s  wall 291.33 s
 SCF   energy in the final basis set = -571.70970827
 Total energy in the final basis set = -571.70970827
 
 --------------------------------------------------------------
 
                    Orbital Energies (a.u.)
 --------------------------------------------------------------
 
 Alpha MOs
 -- Occupied --
-19.195 -19.188 -19.140 -19.137 -19.133 -10.354 -10.341 -10.255
-10.253 -10.248  -1.161  -1.143  -1.130  -1.048  -0.912  -0.873
 -0.848  -0.774  -0.635  -0.609  -0.582  -0.567  -0.559  -0.538
 -0.528  -0.515  -0.509  -0.486  -0.476  -0.464  -0.447  -0.436
 -0.433  -0.421  -0.357  -0.346  -0.334  -0.326  -0.297  -0.268
 -- Virtual --
  0.060   0.071   0.079   0.084   0.094   0.097   0.102   0.110
  0.124   0.128   0.131   0.136   0.144   0.150   0.152   0.162
  0.167   0.179   0.185   0.189   0.193   0.198   0.207   0.212
  0.217   0.230   0.241   0.241   0.243   0.252   0.260   0.268
  0.280   0.285   0.289   0.295   0.307   0.311   0.315   0.319
  0.326   0.329   0.332   0.339   0.346   0.356   0.363   0.368
  0.373   0.376   0.379   0.385   0.391   0.395   0.401   0.406
  0.417   0.420   0.428   0.434   0.438   0.445   0.452   0.461
  0.470   0.471   0.476   0.483   0.485   0.490   0.491   0.508
  0.509   0.513   0.517   0.527   0.529   0.536   0.542   0.549
  0.557   0.562   0.570   0.574   0.575   0.589   0.594   0.595
  0.600   0.604   0.617   0.621   0.629   0.635   0.637   0.645
  0.655   0.662   0.671   0.672   0.679   0.682   0.689   0.700
  0.709   0.719   0.722   0.730   0.741   0.751   0.757   0.768
  0.771   0.775   0.781   0.784   0.792   0.799   0.804   0.815
  0.820   0.822   0.834   0.837   0.840   0.843   0.854   0.859
  0.862   0.876   0.890   0.899   0.902   0.909   0.915   0.926
  0.936   0.949   0.955   0.967   0.970   0.981   0.995   1.011
  1.020   1.037   1.044   1.054   1.078   1.084   1.084   1.098
  1.110   1.111   1.141   1.156   1.166   1.177   1.180   1.202
  1.210   1.219   1.229   1.240   1.250   1.265   1.290   1.307
  1.320   1.340   1.342   1.372   1.382   1.408   1.422   1.436
  1.443   1.450   1.455   1.482   1.502   1.529   1.556   1.576
  1.590   1.620   1.655   1.697   1.714   1.732   1.735   1.771
  1.795   1.818   1.859   1.904   1.921   1.938   1.940   1.950
  1.956   1.966   1.974   1.985   1.992   2.008   2.013   2.020
  2.026   2.048   2.055   2.064   2.090   2.115   2.123   2.147
  2.154   2.163   2.199   2.226   2.236   2.255   2.265   2.277
  2.297   2.308   2.314   2.325   2.329   2.350   2.382   2.394
  2.409   2.421   2.461   2.484   2.491   2.499   2.530   2.537
  2.563   2.588   2.610   2.646   2.662   2.674   2.681   2.710
  2.733   2.758   2.779   2.784   2.817   2.830   2.854   2.872
  2.916   2.934   2.937   2.957   2.988   2.997   3.007   3.023
  3.039   3.061   3.076   3.081   3.110   3.123   3.130   3.161
  3.187   3.223   3.239   3.261   3.288   3.295   3.303   3.306
  3.324   3.346   3.360   3.385   3.399   3.414   3.417   3.439
  3.448   3.479   3.491   3.494   3.525   3.531   3.541   3.562
  3.571   3.587   3.601   3.620   3.641   3.653   3.669   3.690
  3.702   3.706   3.723   3.731   3.749   3.772   3.792   3.812
  3.836   3.847   3.881   3.886   3.963   4.015   4.060   4.067
  4.089   4.148   4.159   4.194   4.210   4.234   4.264   4.309
  4.333   4.346   4.371   4.474   4.614   4.623   4.670   4.695
  4.721   4.777   4.815   4.830   4.869   4.931   4.947   4.949
  4.997   5.054   5.103   5.107   5.219   5.220   5.254   5.261
  5.326   5.340   5.364   5.372   5.380   5.392   5.430   5.433
  5.504   5.538   5.612   5.665   5.709   5.716   5.730   5.782
  5.820   6.009   6.016   6.054   6.245   6.283   6.314   6.336
  6.342   6.522   6.586   6.605   6.616   6.627   6.638   6.648
  6.663   6.699   6.705   6.733   6.755   6.762   6.776   6.851
  6.958   6.971   7.025   7.055   7.073   7.101   7.223   7.244
  7.256   7.352   7.369   7.401   7.413   7.427   8.204  22.712
 22.898  22.924  23.439  23.745  43.858  44.281  44.428  44.491
 44.554
 --------------------------------------------------------------
 
          Ground-State Mulliken Net Atomic Charges

     Atom                 Charge (a.u.)
  ----------------------------------------
      1 C                    -0.146468
      2 C                    -0.059182
      3 O                    -0.711075
      4 O                    -0.695109
      5 C                     0.173674
      6 H                     0.256511
      7 H                     0.115694
      8 C                     0.366754
      9 H                     0.173809
     10 H                     0.282304
     11 C                    -0.981546
     12 H                     0.257099
     13 H                     0.218097
     14 H                     0.310292
     15 O                    -0.668158
     16 O                    -0.733228
     17 O                    -0.463715
     18 H                     0.304249
  ----------------------------------------
  Sum of atomic charges =    -2.000000

 -----------------------------------------------------------------
                    Cartesian Multipole Moments
 -----------------------------------------------------------------
    Charge (ESU x 10^10)
                -9.6064
    Dipole Moment (Debye)
         X      -7.6685      Y     -13.6662      Z      -0.1740
       Tot      15.6716
    Quadrupole Moments (Debye-Ang)
        XX     -74.0173     XY       1.3698     YY    -104.5153
        XZ       0.0619     YZ      24.8840     ZZ    -140.3199
    Octopole Moments (Debye-Ang^2)
       XXX     -64.5308    XXY     -29.8862    XYY     -23.5928
       YYY    -152.4456    XXZ      14.6757    XYZ       6.1471
       YYZ      72.6577    XZZ     -72.1928    YZZ    -131.8559
       ZZZ      30.9020
    Hexadecapole Moments (Debye-Ang^3)
      XXXX    -366.9031   XXXY     -29.3659   XXYY    -235.9199
      XYYY      15.9176   YYYY   -1229.6413   XXXZ       4.8092
      XXYZ     130.0981   XYYZ     -15.3311   YYYZ     554.8987
      XXZZ    -392.7657   XYZZ     -51.6094   YYZZ    -646.1437
      XZZZ      19.6325   YZZZ     502.4644   ZZZZ   -2221.7205
 -----------------------------------------------------------------
 Calculating analytic gradient of the SCF energy
 Gradient of SCF Energy
            1           2           3           4           5           6
    1  -0.0561586   0.0123806   0.0230825  -0.0427611   0.1158911   0.0445105
    2   0.0376613   0.0085540  -0.0472914   0.0184632  -0.0420159   0.0027319
    3   0.0897693  -0.0619984   0.0182187   0.0377662  -0.0477222   0.0219903
            7           8           9          10          11          12
    1  -0.0052636  -0.0029378  -0.0577723  -0.0044193  -0.0631985   0.0264869
    2  -0.0351587   0.0309832  -0.0180554   0.0308877  -0.0118088  -0.0679255
    3  -0.0418155  -0.0357824  -0.0004974   0.0317712   0.0199892   0.0008591
           13          14          15          16          17          18
    1   0.0192427   0.0162071  -0.0328050  -0.0177589   0.0327690  -0.0074954
    2   0.0416766   0.0250343   0.0238841   0.0496123  -0.0939473   0.0467143
    3  -0.0639423   0.0505194  -0.0245706  -0.0412319   0.0120906   0.0345867
 Max gradient component =       1.159E-01
 RMS gradient           =       4.171E-02
 Computing fast CPCM-ISWIG gradient
 Updating gradient with PCM contributions...
 -- total gradient after adding PCM contribution --
---------------------------------------------------
  Atom         X              Y              Z     
---------------------------------------------------
   1       0.001020      -0.000015       0.000031
   2      -0.000190      -0.000040       0.000024
   3       0.000009       0.000044      -0.000006
   4      -0.000052      -0.000007       0.000058
   5      -0.000256       0.000107      -0.000022
   6      -0.000540      -0.000118      -0.000077
   7      -0.000075       0.000011       0.000014
   8       0.000018      -0.000014      -0.000025
   9      -0.000037       0.000042      -0.000034
  10      -0.000029      -0.000001      -0.000009
  11       0.000001       0.000006       0.000019
  12       0.000009       0.000008       0.000026
  13       0.000012       0.000005       0.000017
  14      -0.000012       0.000010       0.000021
  15       0.000009      -0.000013      -0.000003
  16       0.000032      -0.000004      -0.000004
  17       0.000049      -0.000012      -0.000013
  18       0.000033      -0.000010      -0.000018
---------------------------------------------------
 Number of fixed atoms: 0
 Gradient time:  CPU 836.03 s  wall 61.65 s
 ----------------------------------------------------------------
             Standard Nuclear Orientation (Angstroms)
    I     Atom           X                Y                Z
 ----------------------------------------------------------------
    1      C      -0.1923007151     0.9678648696    -1.0016724892
    2      C       0.3002199399     1.8167807470    -2.1860951739
    3      O      -0.3088372302     2.9061062585    -2.3696339312
    4      O       1.2455279317     1.3829249517    -2.8923184881
    5      C       0.6456840342    -0.2686519000    -0.7049548039
    6      H      -1.2271001549     0.6908525875    -1.2290726644
    7      H      -0.2305874273     1.6073369163    -0.1145401781
    8      C       0.1991847626    -1.1160503328     0.4646897284
    9      H       1.6924166879    -0.0038155447    -0.5390335339
   10      H       0.6272034754    -0.9426046177    -1.5736917455
   11      C      -1.2776111215    -1.2901983390     0.7053908458
   12      H      -1.7920816356    -0.3313672503     0.7604819543
   13      H      -1.4413191056    -1.8594829285     1.6216043660
   14      H      -1.6953182956    -1.8468093694    -0.1435067340
   15      O       1.0126791619    -1.8114368972     1.0679081474
   16      O       0.4061873317     0.8764524956     2.1617782246
   17      O       0.9313390844     0.0223936958     3.2292044000
   18      H       1.1036949265    -0.8003179153     2.7434685522
 ----------------------------------------------------------------
 Nuclear Repulsion Energy =   524.0712587421 hartrees
 There are       40 alpha and       40 beta electrons
 Discretize the solute cavity surface with Lebedev spheres
	Using 110 Lebedev grid points for each H atom
	Using 110 Lebedev grid points for other atoms
	Atomic van der Waals radii will be scaled by 1.20
 Remove points where switching function is < 1.0e-08
 Keep 1077 surface tesserae and discard 903 interior tesserae
 Molecular Surface Area = 193.969 Angst**2
 Requested basis set is def2-TZVPD
 There are 175 shells and 457 basis functions
 A cutoff of  1.0D-14 yielded  13986 shell pairs
 There are     95458 function pairs (    121381 Cartesian)
 Smallest overlap matrix eigenvalue = 2.57E-06
 Guess MOs from SCF MO coefficient file
 Reading MOs from coefficient file
 Reading MOs from coefficient file
 Long-range K will be added via erf
 Coulomb attenuation parameter = 0.3 bohr**(-1)
 A restricted hybrid HF-DFT SCF calculation will be
 performed using Pulay DIIS extrapolation
 Polarizable Continuum solvation model will be applied
 Exchange:     0.1670 Hartree-Fock + 1.0000 wB97X-V + LR-HF
 Correlation:  1.0000 wB97X-V
 Using SG-2 standard quadrature grid
 Nonlocal Correlation:  VV10 with C = 0.0100 and b = 6.00
 Grid used for NLC:  SG-1 standard quadrature
 SCF converges when DIIS error is below 1.0E-08
Using Q-Chem read-in guess as SCF_GUESS READ specified.

 using 16 threads for integral computing
 -------------------------------------------------------
 OpenMP Integral computing Module                
 Release: version 1.0, May 2013, Q-Chem Inc. Pittsburgh 
 -------------------------------------------------------
 using 16 threads for integral computing
 -------------------------------------------------------
 OpenMP Integral computing Module                
 Release: version 1.0, May 2013, Q-Chem Inc. Pittsburgh 
 -------------------------------------------------------
 -------------------------------------------------------
 OpenMP BLAS3 based DFT computing Module                
 Release: version 1.0, May 2013, Q-Chem Inc. Pittsburgh 
 -------------------------------------------------------
 -------------------------------------------------------
 OpenMP BLAS3 based DFT computing Module                
 Release: version 1.0, May 2013, Q-Chem Inc. Pittsburgh 
 -------------------------------------------------------
 -------------------------------------------------------
 OpenMP BLAS3 based DFT computing Module                
 Release: version 1.0, May 2013, Q-Chem Inc. Pittsburgh 
 -------------------------------------------------------
 ---------------------------------------
  Cycle       Energy         DIIS Error
 ---------------------------------------
    1    -571.3932936356      4.23E-04
    2    -571.6986633185      4.70E-04
    3    -571.7065527138      2.14E-04
    4    -571.7078120100      1.55E-04
    5    -571.7085835853      1.18E-04
    6    -571.7090058923      9.31E-05
    7    -571.7094166608      5.98E-05
    8    -571.7096498877      2.67E-05
    9    -571.7097003315      9.86E-06
   10    -571.7097077202      2.53E-06
   11    -571.7097082201      3.90E-07
   12    -571.7097082309      1.15E-07
   13    -571.7097082318      2.80E-08
   14    -571.7097082318      1.19E-08
   15    -571.7097082319      6.77E-09 Convergence criterion met
 ---------------------------------------

************** Final PCM Free Energy Summary **************
 G_electrostatic  =      -0.31710889 hartree =    -198.98883233 kcal/mol
 G_cavitation     =       0.00000000 hartree =       0.00000000 kcal/mol
 G_dispersion     =       0.00000000 hartree =       0.00000000 kcal/mol
 G_repulsion      =       0.00000000 hartree =       0.00000000 kcal/mol
 --------------------------------------------------
 Non-electrostatic Free Energy =       0.00000000 hartree =       0.00000000 kcal/mol
 Total                         =      -0.31710889 hartree =    -198.98883233 kcal/mol
 --------------------------------------------------
 SCF Energy (H0 + V/2)                       =    -571.70970823 
 Solute Internal Energy (H0)                 =    -571.39259934 
 Total Free Energy (H0 + V/2 + non-elec)     =    -571.70970823 hartree
                                             = -358753.25657814 kcal/mol
***********************************************************

 SCF time:  CPU 3703.48 s  wall 273.12 s
 SCF   energy in the final basis set = -571.70970823
 Total energy in the final basis set = -571.70970823
 
 --------------------------------------------------------------
 
                    Orbital Energies (a.u.)
 --------------------------------------------------------------
 
 Alpha MOs
 -- Occupied --
-19.195 -19.188 -19.140 -19.137 -19.133 -10.354 -10.341 -10.255
-10.253 -10.248  -1.161  -1.143  -1.130  -1.048  -0.911  -0.873
 -0.848  -0.774  -0.635  -0.609  -0.582  -0.567  -0.558  -0.538
 -0.528  -0.514  -0.509  -0.486  -0.476  -0.464  -0.447  -0.436
 -0.433  -0.421  -0.357  -0.346  -0.334  -0.326  -0.297  -0.268
 -- Virtual --
  0.060   0.071   0.079   0.084   0.094   0.097   0.102   0.110
  0.124   0.128   0.131   0.136   0.144   0.150   0.152   0.162
  0.167   0.179   0.185   0.189   0.193   0.198   0.207   0.212
  0.217   0.230   0.241   0.241   0.243   0.252   0.260   0.268
  0.280   0.285   0.289   0.295   0.307   0.311   0.315   0.319
  0.326   0.329   0.332   0.339   0.346   0.356   0.363   0.368
  0.373   0.376   0.379   0.385   0.391   0.395   0.401   0.406
  0.417   0.420   0.428   0.434   0.438   0.445   0.452   0.461
  0.470   0.471   0.476   0.483   0.485   0.490   0.491   0.508
  0.509   0.513   0.517   0.527   0.529   0.536   0.542   0.549
  0.557   0.562   0.570   0.574   0.575   0.589   0.594   0.595
  0.600   0.604   0.617   0.621   0.629   0.635   0.637   0.645
  0.655   0.662   0.671   0.672   0.679   0.682   0.689   0.700
  0.708   0.719   0.722   0.730   0.741   0.751   0.757   0.768
  0.771   0.775   0.781   0.784   0.792   0.799   0.804   0.815
  0.820   0.822   0.834   0.837   0.840   0.843   0.854   0.859
  0.862   0.876   0.891   0.899   0.902   0.909   0.915   0.926
  0.936   0.949   0.955   0.967   0.970   0.981   0.995   1.011
  1.020   1.037   1.044   1.054   1.078   1.084   1.084   1.098
  1.110   1.111   1.141   1.156   1.166   1.177   1.180   1.202
  1.210   1.219   1.229   1.240   1.250   1.265   1.290   1.307
  1.320   1.340   1.342   1.372   1.382   1.408   1.422   1.436
  1.443   1.450   1.455   1.482   1.502   1.529   1.556   1.576
  1.589   1.620   1.654   1.697   1.714   1.732   1.735   1.771
  1.795   1.818   1.859   1.904   1.921   1.938   1.940   1.950
  1.956   1.966   1.974   1.985   1.992   2.008   2.013   2.020
  2.026   2.048   2.055   2.064   2.090   2.115   2.123   2.146
  2.154   2.163   2.199   2.226   2.236   2.255   2.265   2.277
  2.297   2.308   2.314   2.325   2.329   2.350   2.382   2.394
  2.409   2.421   2.461   2.484   2.491   2.499   2.530   2.537
  2.563   2.588   2.610   2.646   2.662   2.674   2.681   2.709
  2.733   2.757   2.779   2.784   2.817   2.830   2.854   2.872
  2.917   2.934   2.937   2.958   2.988   2.997   3.007   3.023
  3.039   3.061   3.076   3.081   3.110   3.123   3.130   3.162
  3.187   3.223   3.239   3.261   3.288   3.295   3.303   3.306
  3.324   3.345   3.360   3.385   3.399   3.414   3.417   3.439
  3.447   3.479   3.491   3.494   3.525   3.531   3.541   3.562
  3.570   3.586   3.601   3.621   3.641   3.653   3.668   3.690
  3.702   3.706   3.723   3.730   3.749   3.772   3.791   3.812
  3.836   3.847   3.880   3.886   3.963   4.015   4.060   4.068
  4.089   4.148   4.159   4.194   4.210   4.233   4.264   4.309
  4.333   4.346   4.370   4.473   4.614   4.623   4.670   4.695
  4.720   4.777   4.816   4.830   4.869   4.931   4.947   4.949
  4.997   5.054   5.103   5.107   5.219   5.220   5.254   5.261
  5.326   5.340   5.364   5.372   5.380   5.392   5.430   5.433
  5.504   5.538   5.612   5.665   5.709   5.716   5.730   5.781
  5.820   6.009   6.016   6.054   6.245   6.283   6.314   6.336
  6.341   6.522   6.586   6.605   6.616   6.627   6.638   6.648
  6.663   6.699   6.705   6.733   6.755   6.762   6.776   6.851
  6.958   6.971   7.025   7.054   7.073   7.101   7.223   7.244
  7.255   7.352   7.369   7.401   7.413   7.427   8.204  22.712
 22.897  22.924  23.438  23.744  43.858  44.281  44.428  44.491
 44.554
 --------------------------------------------------------------
 
          Ground-State Mulliken Net Atomic Charges

     Atom                 Charge (a.u.)
  ----------------------------------------
      1 C                    -0.147567
      2 C                    -0.058282
      3 O                    -0.710965
      4 O                    -0.694985
      5 C                     0.171363
      6 H                     0.258144
      7 H                     0.115183
      8 C                     0.367124
      9 H                     0.174167
     10 H                     0.282736
     11 C                    -0.981398
     12 H                     0.257066
     13 H                     0.218052
     14 H                     0.310289
     15 O                    -0.668198
     16 O                    -0.733275
     17 O                    -0.463702
     18 H                     0.304248
  ----------------------------------------
  Sum of atomic charges =    -2.000000

 -----------------------------------------------------------------
                    Cartesian Multipole Moments
 -----------------------------------------------------------------
    Charge (ESU x 10^10)
                -9.6064
    Dipole Moment (Debye)
         X      -7.6694      Y     -13.6650      Z      -0.1767
       Tot      15.6710
    Quadrupole Moments (Debye-Ang)
        XX     -74.0130     XY       1.3697     YY    -104.5189
        XZ       0.0632     YZ      24.8833     ZZ    -140.3146
    Octopole Moments (Debye-Ang^2)
       XXX     -64.5046    XXY     -29.8834    XYY     -23.5855
       YYY    -152.4490    XXZ      14.6646    XYZ       6.1487
       YYZ      72.6586    XZZ     -72.1836    YZZ    -131.8484
       ZZZ      30.8676
    Hexadecapole Moments (Debye-Ang^3)
      XXXX    -366.8990   XXXY     -29.3449   XXYY    -235.9258
      XYYY      15.9430   YYYY   -1229.7107   XXXZ       4.7854
      XXYZ     130.0939   XYYZ     -15.3363   YYYZ     554.9314
      XXZZ    -392.7493   XYZZ     -51.5960   YYZZ    -646.1579
      XZZZ      19.5852   YZZZ     502.4377   ZZZZ   -2221.6218
 -----------------------------------------------------------------
 Calculating analytic gradient of the SCF energy
 Gradient of SCF Energy
            1           2           3           4           5           6
    1  -0.0578503   0.0126744   0.0230355  -0.0427672   0.1164534   0.0456056
    2   0.0376601   0.0086658  -0.0473145   0.0184767  -0.0425158   0.0029517
    3   0.0895169  -0.0621583   0.0182423   0.0377035  -0.0474591   0.0223137
            7           8           9          10          11          12
    1  -0.0052564  -0.0032004  -0.0577667  -0.0044062  -0.0631450   0.0264600
    2  -0.0351117   0.0311774  -0.0181243   0.0309385  -0.0118379  -0.0679203
    3  -0.0418857  -0.0357566  -0.0006253   0.0318180   0.0200206   0.0008372
           13          14          15          16          17          18
    1   0.0192527   0.0161989  -0.0328026  -0.0177568   0.0327662  -0.0074950
    2   0.0416815   0.0250119   0.0238850   0.0496111  -0.0939525   0.0467172
    3  -0.0639398   0.0505183  -0.0245895  -0.0412386   0.0120910   0.0345914
 Max gradient component =       1.165E-01
 RMS gradient           =       4.181E-02
 Computing fast CPCM-ISWIG gradient
 Updating gradient with PCM contributions...
 -- total gradient after adding PCM contribution --
---------------------------------------------------
  Atom         X              Y              Z     
---------------------------------------------------
   1      -0.001040       0.000019      -0.000023
   2       0.000150       0.000044      -0.000027
   3      -0.000042      -0.000033       0.000024
   4      -0.000015       0.000002      -0.000087
   5       0.000233      -0.000110       0.000003
   6       0.000517       0.000138       0.000114
   7       0.000091      -0.000009      -0.000002
   8      -0.000017       0.000004       0.000016
   9       0.000022      -0.000058      -0.000014
  10      -0.000026      -0.000002      -0.000009
  11       0.000004       0.000007       0.000014
  12       0.000009       0.000010       0.000023
  13       0.000013       0.000006       0.000017
  14      -0.000013       0.000010       0.000021
  15      -0.000001       0.000001      -0.000034
  16       0.000034      -0.000007      -0.000005
  17       0.000047      -0.000012      -0.000014
  18       0.000034      -0.000010      -0.000016
---------------------------------------------------
 Number of fixed atoms: 0
 Gradient time:  CPU 833.46 s  wall 61.64 s
 ----------------------------------------------------------------
             Standard Nuclear Orientation (Angstroms)
    I     Atom           X                Y                Z
 ----------------------------------------------------------------
    1      C      -0.1913007151     0.9688648696    -1.0016724892
    2      C       0.3002199399     1.8167807470    -2.1860951739
    3      O      -0.3088372302     2.9061062585    -2.3696339312
    4      O       1.2455279317     1.3829249517    -2.8923184881
    5      C       0.6456840342    -0.2686519000    -0.7049548039
    6      H      -1.2271001549     0.6908525875    -1.2290726644
    7      H      -0.2305874273     1.6073369163    -0.1145401781
    8      C       0.1991847626    -1.1160503328     0.4646897284
    9      H       1.6924166879    -0.0038155447    -0.5390335339
   10      H       0.6272034754    -0.9426046177    -1.5736917455
   11      C      -1.2776111215    -1.2901983390     0.7053908458
   12      H      -1.7920816356    -0.3313672503     0.7604819543
   13      H      -1.4413191056    -1.8594829285     1.6216043660
   14      H      -1.6953182956    -1.8468093694    -0.1435067340
   15      O       1.0126791619    -1.8114368972     1.0679081474
   16      O       0.4061873317     0.8764524956     2.1617782246
   17      O       0.9313390844     0.0223936958     3.2292044000
   18      H       1.1036949265    -0.8003179153     2.7434685522
 ----------------------------------------------------------------
 Nuclear Repulsion Energy =   524.0755637868 hartrees
 There are       40 alpha and       40 beta electrons
 Discretize the solute cavity surface with Lebedev spheres
	Using 110 Lebedev grid points for each H atom
	Using 110 Lebedev grid points for other atoms
	Atomic van der Waals radii will be scaled by 1.20
 Remove points where switching function is < 1.0e-08
 Keep 1077 surface tesserae and discard 903 interior tesserae
 Molecular Surface Area = 193.971 Angst**2
 Requested basis set is def2-TZVPD
 There are 175 shells and 457 basis functions
 A cutoff of  1.0D-14 yielded  13986 shell pairs
 There are     95458 function pairs (    121381 Cartesian)
 Smallest overlap matrix eigenvalue = 2.57E-06
 Guess MOs from SCF MO coefficient file
 Reading MOs from coefficient file
 Reading MOs from coefficient file
 Long-range K will be added via erf
 Coulomb attenuation parameter = 0.3 bohr**(-1)
 A restricted hybrid HF-DFT SCF calculation will be
 performed using Pulay DIIS extrapolation
 Polarizable Continuum solvation model will be applied
 Exchange:     0.1670 Hartree-Fock + 1.0000 wB97X-V + LR-HF
 Correlation:  1.0000 wB97X-V
 Using SG-2 standard quadrature grid
 Nonlocal Correlation:  VV10 with C = 0.0100 and b = 6.00
 Grid used for NLC:  SG-1 standard quadrature
 SCF converges when DIIS error is below 1.0E-08
Using Q-Chem read-in guess as SCF_GUESS READ specified.

 using 16 threads for integral computing
 -------------------------------------------------------
 OpenMP Integral computing Module                
 Release: version 1.0, May 2013, Q-Chem Inc. Pittsburgh 
 -------------------------------------------------------
 using 16 threads for integral computing
 -------------------------------------------------------
 OpenMP Integral computing Module                
 Release: version 1.0, May 2013, Q-Chem Inc. Pittsburgh 
 -------------------------------------------------------
 -------------------------------------------------------
 OpenMP BLAS3 based DFT computing Module                
 Release: version 1.0, May 2013, Q-Chem Inc. Pittsburgh 
 -------------------------------------------------------
 -------------------------------------------------------
 OpenMP BLAS3 based DFT computing Module                
 Release: version 1.0, May 2013, Q-Chem Inc. Pittsburgh 
 -------------------------------------------------------
 -------------------------------------------------------
 OpenMP BLAS3 based DFT computing Module                
 Release: version 1.0, May 2013, Q-Chem Inc. Pittsburgh 
 -------------------------------------------------------
 ---------------------------------------
  Cycle       Energy         DIIS Error
 ---------------------------------------
    1    -571.3923083363      4.23E-04
    2    -571.6986375392      4.71E-04
    3    -571.7065459420      2.14E-04
    4    -571.7078071793      1.56E-04
    5    -571.7085765856      1.19E-04
    6    -571.7089779682      9.50E-05
    7    -571.7093438577      6.70E-05
    8    -571.7095942408      3.74E-05
    9    -571.7096835468      1.75E-05
   10    -571.7097057024      5.68E-06
   11    -571.7097081787      1.18E-06
   12    -571.7097082790      3.29E-07
   13    -571.7097082868      6.72E-08
   14    -571.7097082871      1.36E-08
   15    -571.7097082871      7.09E-09 Convergence criterion met
 ---------------------------------------

************** Final PCM Free Energy Summary **************
 G_electrostatic  =      -0.31710616 hartree =    -198.98711784 kcal/mol
 G_cavitation     =       0.00000000 hartree =       0.00000000 kcal/mol
 G_dispersion     =       0.00000000 hartree =       0.00000000 kcal/mol
 G_repulsion      =       0.00000000 hartree =       0.00000000 kcal/mol
 --------------------------------------------------
 Non-electrostatic Free Energy =       0.00000000 hartree =       0.00000000 kcal/mol
 Total                         =      -0.31710616 hartree =    -198.98711784 kcal/mol
 --------------------------------------------------
 SCF Energy (H0 + V/2)                       =    -571.70970829 
 Solute Internal Energy (H0)                 =    -571.39260213 
 Total Free Energy (H0 + V/2 + non-elec)     =    -571.70970829 hartree
                                             = -358753.25661281 kcal/mol
***********************************************************

 SCF time:  CPU 3687.57 s  wall 271.47 s
 SCF   energy in the final basis set = -571.70970829
 Total energy in the final basis set = -571.70970829
 
 --------------------------------------------------------------
 
                    Orbital Energies (a.u.)
 --------------------------------------------------------------
 
 Alpha MOs
 -- Occupied --
-19.195 -19.188 -19.140 -19.137 -19.133 -10.354 -10.341 -10.255
-10.253 -10.248  -1.161  -1.143  -1.130  -1.048  -0.911  -0.873
 -0.848  -0.774  -0.635  -0.609  -0.582  -0.567  -0.559  -0.538
 -0.528  -0.515  -0.509  -0.486  -0.476  -0.464  -0.447  -0.436
 -0.433  -0.421  -0.357  -0.346  -0.334  -0.326  -0.297  -0.268
 -- Virtual --
  0.060   0.071   0.079   0.084   0.094   0.097   0.102   0.110
  0.124   0.128   0.131   0.136   0.144   0.150   0.152   0.162
  0.167   0.179   0.185   0.189   0.193   0.198   0.207   0.212
  0.217   0.230   0.241   0.241   0.243   0.252   0.260   0.268
  0.280   0.285   0.289   0.295   0.307   0.311   0.315   0.319
  0.326   0.329   0.332   0.339   0.346   0.356   0.363   0.368
  0.373   0.376   0.379   0.385   0.391   0.395   0.401   0.406
  0.417   0.420   0.428   0.434   0.438   0.445   0.452   0.461
  0.470   0.471   0.476   0.483   0.485   0.490   0.491   0.508
  0.509   0.513   0.517   0.527   0.529   0.536   0.542   0.549
  0.557   0.562   0.570   0.574   0.575   0.589   0.594   0.595
  0.600   0.604   0.617   0.621   0.629   0.635   0.637   0.645
  0.655   0.662   0.671   0.672   0.679   0.682   0.689   0.700
  0.708   0.719   0.722   0.730   0.741   0.751   0.757   0.768
  0.771   0.775   0.781   0.784   0.792   0.799   0.804   0.815
  0.820   0.822   0.834   0.837   0.840   0.843   0.854   0.859
  0.862   0.876   0.891   0.899   0.902   0.909   0.915   0.926
  0.936   0.949   0.955   0.967   0.970   0.981   0.995   1.011
  1.020   1.037   1.044   1.054   1.078   1.084   1.084   1.098
  1.110   1.111   1.141   1.156   1.166   1.177   1.180   1.202
  1.210   1.219   1.229   1.240   1.250   1.265   1.290   1.307
  1.320   1.340   1.342   1.372   1.382   1.408   1.422   1.436
  1.443   1.450   1.455   1.482   1.502   1.529   1.556   1.576
  1.589   1.620   1.654   1.697   1.714   1.732   1.735   1.771
  1.795   1.818   1.859   1.904   1.921   1.938   1.940   1.950
  1.956   1.966   1.974   1.985   1.992   2.008   2.013   2.021
  2.026   2.048   2.055   2.064   2.090   2.115   2.123   2.147
  2.154   2.163   2.199   2.226   2.236   2.255   2.265   2.277
  2.297   2.308   2.314   2.325   2.329   2.350   2.382   2.394
  2.409   2.421   2.461   2.484   2.491   2.499   2.530   2.537
  2.563   2.588   2.610   2.646   2.662   2.674   2.681   2.709
  2.733   2.757   2.779   2.784   2.817   2.830   2.854   2.872
  2.917   2.934   2.937   2.957   2.988   2.997   3.007   3.023
  3.039   3.061   3.076   3.081   3.110   3.123   3.130   3.161
  3.187   3.223   3.239   3.261   3.288   3.295   3.303   3.306
  3.324   3.346   3.360   3.385   3.399   3.414   3.417   3.439
  3.448   3.479   3.491   3.494   3.525   3.531   3.541   3.562
  3.570   3.586   3.601   3.621   3.641   3.654   3.668   3.690
  3.702   3.706   3.723   3.730   3.749   3.772   3.791   3.812
  3.836   3.847   3.881   3.886   3.963   4.015   4.060   4.068
  4.089   4.148   4.159   4.194   4.210   4.234   4.264   4.309
  4.333   4.346   4.371   4.474   4.614   4.623   4.670   4.695
  4.720   4.777   4.815   4.830   4.869   4.931   4.947   4.949
  4.997   5.054   5.103   5.107   5.219   5.220   5.254   5.261
  5.326   5.340   5.364   5.372   5.381   5.392   5.430   5.433
  5.504   5.538   5.612   5.665   5.709   5.716   5.730   5.782
  5.820   6.009   6.016   6.054   6.245   6.283   6.314   6.336
  6.342   6.522   6.586   6.605   6.616   6.627   6.638   6.648
  6.663   6.699   6.705   6.733   6.755   6.762   6.776   6.851
  6.958   6.971   7.025   7.055   7.073   7.101   7.223   7.244
  7.256   7.352   7.369   7.401   7.413   7.427   8.204  22.712
 22.897  22.924  23.438  23.745  43.858  44.281  44.428  44.491
 44.554
 --------------------------------------------------------------
 
          Ground-State Mulliken Net Atomic Charges

     Atom                 Charge (a.u.)
  ----------------------------------------
      1 C                    -0.146380
      2 C                    -0.058914
      3 O                    -0.711018
      4 O                    -0.695068
      5 C                     0.170755
      6 H                     0.257089
      7 H                     0.115972
      8 C                     0.367570
      9 H                     0.174151
     10 H                     0.282804
     11 C                    -0.981501
     12 H                     0.257125
     13 H                     0.218035
     14 H                     0.310286
     15 O                    -0.668185
     16 O                    -0.733248
     17 O                    -0.463720
     18 H                     0.304246
  ----------------------------------------
  Sum of atomic charges =    -2.000000

 -----------------------------------------------------------------
                    Cartesian Multipole Moments
 -----------------------------------------------------------------
    Charge (ESU x 10^10)
                -9.6064
    Dipole Moment (Debye)
         X      -7.6692      Y     -13.6654      Z      -0.1744
       Tot      15.6713
    Quadrupole Moments (Debye-Ang)
        XX     -74.0160     XY       1.3707     YY    -104.5183
        XZ       0.0618     YZ      24.8863     ZZ    -140.3189
    Octopole Moments (Debye-Ang^2)
       XXX     -64.5177    XXY     -29.8889    XYY     -23.5862
       YYY    -152.4686    XXZ      14.6701    XYZ       6.1447
       YYZ      72.6674    XZZ     -72.1850    YZZ    -131.8646
       ZZZ      30.8933
    Hexadecapole Moments (Debye-Ang^3)
      XXXX    -366.9078   XXXY     -29.3468   XXYY    -235.9318
      XYYY      15.9403   YYYY   -1229.7646   XXXZ       4.7927
      XXYZ     130.1006   XYYZ     -15.3418   YYYZ     554.9660
      XXZZ    -392.7542   XYZZ     -51.5938   YYZZ    -646.1896
      XZZZ      19.5997   YZZZ     502.4939   ZZZZ   -2221.6945
 -----------------------------------------------------------------
 Calculating analytic gradient of the SCF energy
 Gradient of SCF Energy
            1           2           3           4           5           6
    1  -0.0568025   0.0124952   0.0230631  -0.0427648   0.1161530   0.0449089
    2   0.0383059   0.0083930  -0.0473163   0.0184936  -0.0425473   0.0028744
    3   0.0897458  -0.0619795   0.0182573   0.0377371  -0.0474293   0.0220588
            7           8           9          10          11          12
    1  -0.0052472  -0.0030596  -0.0578197  -0.0043657  -0.0631920   0.0264742
    2  -0.0353064   0.0310715  -0.0181051   0.0309069  -0.0118219  -0.0679230
    3  -0.0421657  -0.0357833  -0.0005473   0.0318255   0.0199920   0.0008520
           13          14          15          16          17          18
    1   0.0192497   0.0162050  -0.0328130  -0.0177565   0.0327680  -0.0074961
    2   0.0416789   0.0250324   0.0238836   0.0496138  -0.0939487   0.0467147
    3  -0.0639426   0.0505164  -0.0245821  -0.0412359   0.0120921   0.0345885
 Max gradient component =       1.162E-01
 RMS gradient           =       4.178E-02
 Computing fast CPCM-ISWIG gradient
 Updating gradient with PCM contributions...
 -- total gradient after adding PCM contribution --
---------------------------------------------------
  Atom         X              Y              Z     
---------------------------------------------------
   1      -0.000025       0.000987       0.000095
   2      -0.000063      -0.000199       0.000061
   3      -0.000009      -0.000060       0.000080
   4      -0.000012       0.000022      -0.000019
   5       0.000101      -0.000309       0.000021
   6      -0.000137      -0.000115      -0.000005
   7       0.000017      -0.000258      -0.000238
   8       0.000016      -0.000035       0.000006
   9      -0.000014       0.000006      -0.000026
  10      -0.000002      -0.000035      -0.000001
  11       0.000001       0.000008       0.000018
  12       0.000009       0.000007       0.000025
  13       0.000014       0.000006       0.000016
  14      -0.000012       0.000010       0.000021
  15       0.000003      -0.000005      -0.000017
  16       0.000033      -0.000008      -0.000005
  17       0.000048      -0.000013      -0.000012
  18       0.000033      -0.000010      -0.000017
---------------------------------------------------
 Number of fixed atoms: 0
 Gradient time:  CPU 833.72 s  wall 61.59 s
 ----------------------------------------------------------------
             Standard Nuclear Orientation (Angstroms)
    I     Atom           X                Y                Z
 ----------------------------------------------------------------
    1      C      -0.1913007151     0.9668648696    -1.0016724892
    2      C       0.3002199399     1.8167807470    -2.1860951739
    3      O      -0.3088372302     2.9061062585    -2.3696339312
    4      O       1.2455279317     1.3829249517    -2.8923184881
    5      C       0.6456840342    -0.2686519000    -0.7049548039
    6      H      -1.2271001549     0.6908525875    -1.2290726644
    7      H      -0.2305874273     1.6073369163    -0.1145401781
    8      C       0.1991847626    -1.1160503328     0.4646897284
    9      H       1.6924166879    -0.0038155447    -0.5390335339
   10      H       0.6272034754    -0.9426046177    -1.5736917455
   11      C      -1.2776111215    -1.2901983390     0.7053908458
   12      H      -1.7920816356    -0.3313672503     0.7604819543
   13      H      -1.4413191056    -1.8594829285     1.6216043660
   14      H      -1.6953182956    -1.8468093694    -0.1435067340
   15      O       1.0126791619    -1.8114368972     1.0679081474
   16      O       0.4061873317     0.8764524956     2.1617782246
   17      O       0.9313390844     0.0223936958     3.2292044000
   18      H       1.1036949265    -0.8003179153     2.7434685522
 ----------------------------------------------------------------
 Nuclear Repulsion Energy =   524.0837952641 hartrees
 There are       40 alpha and       40 beta electrons
 Discretize the solute cavity surface with Lebedev spheres
	Using 110 Lebedev grid points for each H atom
	Using 110 Lebedev grid points for other atoms
	Atomic van der Waals radii will be scaled by 1.20
 Remove points where switching function is < 1.0e-08
 Keep 1077 surface tesserae and discard 903 interior tesserae
 Molecular Surface Area = 193.973 Angst**2
 Requested basis set is def2-TZVPD
 There are 175 shells and 457 basis functions
 A cutoff of  1.0D-14 yielded  13986 shell pairs
 There are     95458 function pairs (    121381 Cartesian)
 Smallest overlap matrix eigenvalue = 2.56E-06
 Guess MOs from SCF MO coefficient file
 Reading MOs from coefficient file
 Reading MOs from coefficient file
 Long-range K will be added via erf
 Coulomb attenuation parameter = 0.3 bohr**(-1)
 A restricted hybrid HF-DFT SCF calculation will be
 performed using Pulay DIIS extrapolation
 Polarizable Continuum solvation model will be applied
 Exchange:     0.1670 Hartree-Fock + 1.0000 wB97X-V + LR-HF
 Correlation:  1.0000 wB97X-V
 Using SG-2 standard quadrature grid
 Nonlocal Correlation:  VV10 with C = 0.0100 and b = 6.00
 Grid used for NLC:  SG-1 standard quadrature
 SCF converges when DIIS error is below 1.0E-08
Using Q-Chem read-in guess as SCF_GUESS READ specified.

 using 16 threads for integral computing
 -------------------------------------------------------
 OpenMP Integral computing Module                
 Release: version 1.0, May 2013, Q-Chem Inc. Pittsburgh 
 -------------------------------------------------------
 using 16 threads for integral computing
 -------------------------------------------------------
 OpenMP Integral computing Module                
 Release: version 1.0, May 2013, Q-Chem Inc. Pittsburgh 
 -------------------------------------------------------
 -------------------------------------------------------
 OpenMP BLAS3 based DFT computing Module                
 Release: version 1.0, May 2013, Q-Chem Inc. Pittsburgh 
 -------------------------------------------------------
 -------------------------------------------------------
 OpenMP BLAS3 based DFT computing Module                
 Release: version 1.0, May 2013, Q-Chem Inc. Pittsburgh 
 -------------------------------------------------------
 -------------------------------------------------------
 OpenMP BLAS3 based DFT computing Module                
 Release: version 1.0, May 2013, Q-Chem Inc. Pittsburgh 
 -------------------------------------------------------
 ---------------------------------------
  Cycle       Energy         DIIS Error
 ---------------------------------------
    1    -571.3925032692      4.23E-04
    2    -571.6986561869      4.70E-04
    3    -571.7065517248      2.14E-04
    4    -571.7078124533      1.55E-04
    5    -571.7085846034      1.18E-04
    6    -571.7090059022      9.31E-05
    7    -571.7094175591      5.97E-05
    8    -571.7096506547      2.66E-05
    9    -571.7097005895      9.74E-06
   10    -571.7097078256      2.43E-06
   11    -571.7097082873      3.83E-07
   12    -571.7097082977      1.13E-07
   13    -571.7097082985      2.74E-08
   14    -571.7097082986      1.19E-08
   15    -571.7097082986      6.59E-09 Convergence criterion met
 ---------------------------------------

************** Final PCM Free Energy Summary **************
 G_electrostatic  =      -0.31711058 hartree =    -198.98989289 kcal/mol
 G_cavitation     =       0.00000000 hartree =       0.00000000 kcal/mol
 G_dispersion     =       0.00000000 hartree =       0.00000000 kcal/mol
 G_repulsion      =       0.00000000 hartree =       0.00000000 kcal/mol
 --------------------------------------------------
 Non-electrostatic Free Energy =       0.00000000 hartree =       0.00000000 kcal/mol
 Total                         =      -0.31711058 hartree =    -198.98989289 kcal/mol
 --------------------------------------------------
 SCF Energy (H0 + V/2)                       =    -571.70970830 
 Solute Internal Energy (H0)                 =    -571.39259772 
 Total Free Energy (H0 + V/2 + non-elec)     =    -571.70970830 hartree
                                             = -358753.25662002 kcal/mol
***********************************************************

 SCF time:  CPU 3690.58 s  wall 271.51 s
 SCF   energy in the final basis set = -571.70970830
 Total energy in the final basis set = -571.70970830
 
 --------------------------------------------------------------
 
                    Orbital Energies (a.u.)
 --------------------------------------------------------------
 
 Alpha MOs
 -- Occupied --
-19.195 -19.188 -19.140 -19.137 -19.133 -10.354 -10.341 -10.255
-10.253 -10.248  -1.161  -1.143  -1.130  -1.048  -0.912  -0.873
 -0.848  -0.774  -0.635  -0.609  -0.582  -0.567  -0.559  -0.538
 -0.528  -0.514  -0.509  -0.486  -0.476  -0.464  -0.447  -0.436
 -0.433  -0.421  -0.357  -0.346  -0.334  -0.326  -0.297  -0.268
 -- Virtual --
  0.060   0.071   0.079   0.084   0.094   0.097   0.102   0.110
  0.124   0.128   0.131   0.136   0.144   0.150   0.152   0.162
  0.167   0.179   0.185   0.189   0.193   0.198   0.207   0.212
  0.217   0.230   0.241   0.241   0.243   0.252   0.260   0.268
  0.280   0.285   0.289   0.295   0.307   0.311   0.315   0.319
  0.326   0.329   0.332   0.339   0.346   0.356   0.363   0.368
  0.373   0.376   0.379   0.385   0.391   0.395   0.401   0.406
  0.417   0.420   0.428   0.434   0.438   0.446   0.452   0.461
  0.470   0.471   0.476   0.483   0.485   0.490   0.491   0.508
  0.509   0.513   0.517   0.527   0.529   0.536   0.542   0.549
  0.557   0.562   0.570   0.574   0.575   0.589   0.594   0.595
  0.600   0.604   0.617   0.621   0.629   0.635   0.637   0.645
  0.655   0.662   0.671   0.672   0.679   0.682   0.689   0.700
  0.708   0.719   0.722   0.730   0.741   0.751   0.757   0.768
  0.771   0.775   0.781   0.784   0.792   0.799   0.804   0.815
  0.820   0.822   0.834   0.837   0.840   0.843   0.854   0.859
  0.862   0.876   0.890   0.899   0.902   0.909   0.915   0.926
  0.936   0.949   0.955   0.967   0.970   0.981   0.995   1.011
  1.020   1.037   1.044   1.054   1.078   1.084   1.084   1.098
  1.110   1.111   1.141   1.156   1.165   1.177   1.180   1.202
  1.210   1.219   1.229   1.240   1.250   1.265   1.290   1.307
  1.320   1.341   1.342   1.372   1.382   1.408   1.422   1.436
  1.443   1.450   1.455   1.482   1.502   1.529   1.556   1.576
  1.589   1.620   1.654   1.697   1.714   1.732   1.735   1.771
  1.795   1.818   1.859   1.904   1.921   1.938   1.940   1.950
  1.956   1.966   1.974   1.985   1.992   2.008   2.013   2.020
  2.026   2.048   2.055   2.064   2.090   2.115   2.123   2.147
  2.154   2.163   2.199   2.226   2.236   2.255   2.265   2.277
  2.297   2.308   2.314   2.325   2.329   2.350   2.382   2.394
  2.409   2.421   2.461   2.484   2.491   2.499   2.530   2.537
  2.563   2.588   2.610   2.646   2.662   2.674   2.681   2.709
  2.733   2.758   2.779   2.784   2.817   2.831   2.854   2.872
  2.917   2.934   2.937   2.958   2.988   2.997   3.007   3.023
  3.039   3.061   3.076   3.081   3.110   3.123   3.130   3.162
  3.187   3.223   3.239   3.261   3.288   3.295   3.303   3.306
  3.324   3.345   3.361   3.385   3.399   3.414   3.417   3.438
  3.447   3.479   3.491   3.494   3.525   3.531   3.541   3.562
  3.570   3.586   3.601   3.620   3.641   3.653   3.668   3.690
  3.702   3.706   3.723   3.731   3.749   3.772   3.792   3.812
  3.836   3.847   3.881   3.886   3.963   4.015   4.060   4.068
  4.089   4.148   4.158   4.194   4.210   4.234   4.264   4.309
  4.333   4.346   4.371   4.474   4.614   4.623   4.670   4.695
  4.720   4.777   4.815   4.831   4.869   4.931   4.947   4.949
  4.997   5.054   5.103   5.107   5.219   5.220   5.254   5.261
  5.326   5.340   5.364   5.372   5.380   5.392   5.430   5.433
  5.504   5.538   5.612   5.665   5.709   5.716   5.730   5.781
  5.820   6.009   6.016   6.054   6.245   6.283   6.314   6.336
  6.341   6.522   6.586   6.605   6.616   6.627   6.638   6.648
  6.663   6.699   6.705   6.733   6.755   6.762   6.776   6.851
  6.958   6.970   7.025   7.055   7.073   7.101   7.223   7.244
  7.255   7.352   7.368   7.401   7.413   7.427   8.204  22.712
 22.898  22.924  23.439  23.744  43.858  44.281  44.428  44.491
 44.554
 --------------------------------------------------------------
 
          Ground-State Mulliken Net Atomic Charges

     Atom                 Charge (a.u.)
  ----------------------------------------
      1 C                    -0.147653
      2 C                    -0.058546
      3 O                    -0.711023
      4 O                    -0.695027
      5 C                     0.174281
      6 H                     0.257560
      7 H                     0.114906
      8 C                     0.366307
      9 H                     0.173824
     10 H                     0.282237
     11 C                    -0.981443
     12 H                     0.257040
     13 H                     0.218114
     14 H                     0.310296
     15 O                    -0.668172
     16 O                    -0.733254
     17 O                    -0.463698
     18 H                     0.304250
  ----------------------------------------
  Sum of atomic charges =    -2.000000

 -----------------------------------------------------------------
                    Cartesian Multipole Moments
 -----------------------------------------------------------------
    Charge (ESU x 10^10)
                -9.6064
    Dipole Moment (Debye)
         X      -7.6687      Y     -13.6657      Z      -0.1763
       Tot      15.6714
    Quadrupole Moments (Debye-Ang)
        XX     -74.0144     XY       1.3688     YY    -104.5159
        XZ       0.0633     YZ      24.8810     ZZ    -140.3156
    Octopole Moments (Debye-Ang^2)
       XXX     -64.5176    XXY     -29.8807    XYY     -23.5921
       YYY    -152.4260    XXZ      14.6701    XYZ       6.1511
       YYZ      72.6488    XZZ     -72.1914    YZZ    -131.8397
       ZZZ      30.8763
    Hexadecapole Moments (Debye-Ang^3)
      XXXX    -366.8943   XXXY     -29.3640   XXYY    -235.9138
      XYYY      15.9203   YYYY   -1229.5874   XXXZ       4.8020
      XXYZ     130.0914   XYYZ     -15.3256   YYYZ     554.8641
      XXZZ    -392.7608   XYZZ     -51.6116   YYZZ    -646.1120
      XZZZ      19.6180   YZZZ     502.4082   ZZZZ   -2221.6478
 -----------------------------------------------------------------
 Calculating analytic gradient of the SCF energy
 Gradient of SCF Energy
            1           2           3           4           5           6
    1  -0.0572035   0.0125589   0.0230549  -0.0427635   0.1161922   0.0452045
    2   0.0370161   0.0088264  -0.0472897   0.0184464  -0.0419835   0.0028083
    3   0.0895435  -0.0621772   0.0182039   0.0377326  -0.0477530   0.0222445
            7           8           9          10          11          12
    1  -0.0052724  -0.0030789  -0.0577194  -0.0044599  -0.0631516   0.0264728
    2  -0.0349641   0.0310895  -0.0180746   0.0309192  -0.0118251  -0.0679229
    3  -0.0415369  -0.0357555  -0.0005757   0.0317638   0.0200178   0.0008443
           13          14          15          16          17          18
    1   0.0192457   0.0162011  -0.0327946  -0.0177591   0.0327673  -0.0074944
    2   0.0416793   0.0250138   0.0238855   0.0496097  -0.0939512   0.0467169
    3  -0.0639397   0.0505214  -0.0245781  -0.0412346   0.0120895   0.0345895
 Max gradient component =       1.162E-01
 RMS gradient           =       4.175E-02
 Computing fast CPCM-ISWIG gradient
 Updating gradient with PCM contributions...
 -- total gradient after adding PCM contribution --
---------------------------------------------------
  Atom         X              Y              Z     
---------------------------------------------------
   1       0.000009      -0.000981      -0.000084
   2       0.000023       0.000204      -0.000063
   3      -0.000024       0.000070      -0.000062
[...]
 H          0.233 -0.036 -0.048    0.487  0.104 -0.191   -0.111  0.190 -0.084
 O          0.007  0.012 -0.008   -0.017  0.016 -0.002   -0.056  0.017 -0.035
 O          0.048 -0.081  0.102    0.046 -0.078  0.095   -0.001  0.004 -0.002
 O         -0.049  0.081 -0.100   -0.046  0.076 -0.095    0.001 -0.002  0.003
 H          0.002  0.019  0.017    0.004  0.016  0.021   -0.003 -0.006  0.006
 TransDip   0.016  0.069 -0.054   -0.082 -0.136  0.051    0.003  0.053  0.091

 Mode:                25                     26                     27
 Frequency:      1076.54                1110.02                1182.25
 Force Cnst:      1.4660                 1.9819                 1.0937
 Red. Mass:       2.1470                 2.7301                 1.3281
 IR Active:          YES                    YES                    YES
 IR Intens:       19.041                  2.718                 16.371
 Raman Active:       YES                    YES                    YES
               X      Y      Z        X      Y      Z        X      Y      Z
 C         -0.091 -0.083 -0.087   -0.193  0.195  0.011   -0.030 -0.043 -0.022
 C          0.095  0.068  0.085    0.007 -0.007  0.013    0.057  0.037  0.053
 O         -0.020 -0.006 -0.017    0.007 -0.035  0.016   -0.014  0.003 -0.010
 O         -0.020 -0.014 -0.014    0.005  0.005 -0.013   -0.008 -0.009 -0.009
 C          0.095  0.070  0.086    0.195 -0.182 -0.012   -0.013 -0.028 -0.037
 H         -0.191 -0.012  0.339   -0.215  0.343 -0.089   -0.026 -0.308  0.299
 H          0.290  0.149 -0.231   -0.211  0.367 -0.111    0.034  0.364 -0.315
 C         -0.032 -0.104 -0.095   -0.015  0.039  0.022   -0.028  0.045  0.089
 H          0.194 -0.129 -0.268    0.227 -0.391  0.151   -0.000 -0.258  0.260
 H         -0.289  0.070  0.077    0.208 -0.383  0.141   -0.028  0.438 -0.385
 C          0.016  0.036  0.105    0.010 -0.041  0.004    0.008 -0.009 -0.059
 H         -0.146 -0.041 -0.178    0.160  0.042 -0.028    0.086  0.023  0.107
 H         -0.290 -0.166 -0.081   -0.084  0.049  0.043    0.176  0.101  0.041
 H          0.415  0.063 -0.130   -0.050  0.043 -0.016   -0.115 -0.043  0.035
 O         -0.022  0.041 -0.004   -0.019  0.022 -0.037    0.018 -0.020 -0.002
 O          0.003 -0.014  0.001    0.001 -0.000  0.000   -0.001  0.007  0.000
 O         -0.003  0.006 -0.006   -0.000  0.001 -0.000    0.001 -0.002  0.000
 H          0.003  0.013 -0.012   -0.005  0.006 -0.011    0.001 -0.011  0.014
 TransDip   0.003 -0.090 -0.107   -0.033  0.033  0.025   -0.016  0.051  0.118

 Mode:                28                     29                     30
 Frequency:      1255.93                1268.92                1308.66
 Force Cnst:      1.2639                 2.1856                 1.1723
 Red. Mass:       1.3600                 2.3039                 1.1618
 IR Active:          YES                    YES                    YES
 IR Intens:       40.952                 99.592                  9.020
 Raman Active:       YES                    YES                    YES
               X      Y      Z        X      Y      Z        X      Y      Z
 C          0.026 -0.080  0.061    0.036 -0.060  0.058   -0.026 -0.037 -0.035
 C         -0.008 -0.032  0.005    0.023 -0.002  0.012   -0.020 -0.015 -0.021
 O         -0.018  0.044 -0.010   -0.014  0.028 -0.011    0.003  0.003  0.002
 O          0.007 -0.003 -0.001   -0.008  0.000  0.004    0.001  0.003  0.004
 C          0.047 -0.080  0.047   -0.092 -0.068  0.035    0.023  0.004  0.058
 H         -0.022  0.414 -0.338    0.059 -0.049 -0.049   -0.118  0.462 -0.238
 H         -0.040  0.324 -0.237   -0.082  0.490 -0.354    0.138 -0.361  0.207
 C         -0.041 -0.018  0.043    0.216  0.118 -0.154    0.049  0.050 -0.016
 H         -0.024  0.472 -0.404   -0.135  0.003  0.182    0.096 -0.367  0.207
 H         -0.013  0.259 -0.207    0.087 -0.085  0.050   -0.170  0.437 -0.264
 C         -0.001 -0.001 -0.005   -0.014 -0.049  0.062    0.001 -0.017  0.005
 H          0.079  0.037  0.004   -0.178 -0.111 -0.126   -0.049 -0.037 -0.011
 H          0.106 -0.007  0.009   -0.533  0.014  0.010   -0.102  0.029  0.016
 H          0.052 -0.018 -0.017   -0.242  0.168  0.019   -0.100  0.052  0.009
 O         -0.015  0.024 -0.027   -0.039 -0.009  0.014   -0.004 -0.008  0.003
 O         -0.000  0.003 -0.000   -0.001 -0.002  0.001   -0.002  0.005  0.000
 O         -0.000 -0.001 -0.003    0.000  0.001  0.003    0.000 -0.002 -0.002
 H          0.015 -0.022  0.039   -0.011  0.027 -0.045    0.028 -0.035  0.061
 TransDip   0.097 -0.173  0.052    0.232  0.074 -0.207    0.053  0.078 -0.017

 Mode:                31                     32                     33
 Frequency:      1322.12                1376.75                1393.68
 Force Cnst:      1.1302                 2.0633                 1.8515
 Red. Mass:       1.0974                 1.8476                 1.6178
 IR Active:          YES                    YES                    YES
 IR Intens:      123.101                 57.108                145.477
 Raman Active:       YES                    YES                    YES
               X      Y      Z        X      Y      Z        X      Y      Z
 C          0.001  0.010 -0.002   -0.004 -0.103  0.078    0.002  0.016 -0.015
 C          0.001  0.001  0.003   -0.016 -0.074  0.065    0.014  0.037 -0.042
 O          0.000 -0.001  0.000   -0.032  0.072 -0.019    0.014 -0.031  0.008
 O          0.000 -0.001 -0.001    0.037 -0.012 -0.030   -0.023  0.007  0.019
 C         -0.004 -0.003 -0.001    0.004  0.140 -0.112   -0.028 -0.044  0.051
 H          0.009 -0.055  0.040   -0.010  0.281 -0.342    0.001 -0.066  0.084
 H         -0.015  0.012 -0.004    0.111  0.250 -0.181   -0.025 -0.056  0.038
 C          0.012 -0.011 -0.000   -0.015 -0.012 -0.005    0.086  0.043 -0.062
 H         -0.008  0.015 -0.007    0.047 -0.352  0.394   -0.017 -0.006 -0.063
 H          0.017 -0.040  0.027   -0.109 -0.320  0.244    0.080  0.097 -0.061
 C          0.005  0.003  0.001   -0.058  0.004  0.003   -0.167 -0.038  0.026
 H         -0.026 -0.014  0.001    0.191  0.130  0.026    0.462  0.289  0.102
 H         -0.030 -0.005 -0.009    0.208 -0.036  0.024    0.345  0.082  0.187
 H         -0.013 -0.003  0.013    0.228 -0.083 -0.078    0.579 -0.076 -0.308
 O         -0.010  0.010 -0.004    0.020 -0.018  0.022   -0.011 -0.002  0.005
 O         -0.016  0.046 -0.000   -0.001  0.002  0.000   -0.001  0.000  0.000
 O         -0.004 -0.021 -0.051   -0.001 -0.001 -0.003   -0.000 -0.000 -0.002
 H          0.347 -0.458  0.809    0.021 -0.028  0.049    0.014 -0.015  0.027
 TransDip   0.142 -0.129  0.299    0.032 -0.203  0.128    0.292  0.188 -0.170

 Mode:                34                     35                     36
 Frequency:      1433.96                1442.99                1444.82
 Force Cnst:      2.0365                 1.6897                 1.6255
 Red. Mass:       1.6810                 1.3773                 1.3216
 IR Active:          YES                    YES                    YES
 IR Intens:      133.845                160.954                 60.021
 Raman Active:       YES                    YES                    YES
               X      Y      Z        X      Y      Z        X      Y      Z
 C          0.040  0.021 -0.053   -0.016 -0.046  0.054    0.003  0.051 -0.043
 C         -0.050 -0.098  0.132    0.034  0.064 -0.088   -0.029 -0.060  0.082
 O         -0.034  0.076 -0.022    0.021 -0.046  0.013   -0.020  0.042 -0.012
 O          0.066 -0.019 -0.058   -0.042  0.012  0.037    0.038 -0.011 -0.033
 C         -0.060  0.021  0.039   -0.027  0.048 -0.008    0.037 -0.043  0.000
 H         -0.070  0.129  0.293    0.010  0.027 -0.154    0.025 -0.110  0.059
 H         -0.322 -0.096  0.023    0.107  0.104 -0.052    0.022 -0.076  0.048
 C          0.006 -0.002 -0.003   -0.040 -0.007  0.014   -0.003  0.002 -0.016
 H          0.121 -0.347 -0.443    0.097 -0.266 -0.237   -0.106  0.319  0.255
 H          0.575  0.072 -0.025    0.352 -0.031  0.035   -0.409 -0.006 -0.009
 C          0.001 -0.013 -0.006    0.010 -0.033  0.018   -0.015 -0.040  0.025
 H         -0.057 -0.044  0.080   -0.235 -0.135 -0.303   -0.186 -0.104 -0.245
 H         -0.007  0.144  0.089    0.306  0.187  0.194    0.289  0.224  0.230
 H          0.041  0.078 -0.082   -0.129  0.491 -0.259   -0.027  0.467 -0.304
 O         -0.002  0.001  0.001    0.019 -0.010  0.008    0.011 -0.009  0.007
 O          0.001 -0.001  0.000   -0.000  0.002 -0.001   -0.000  0.000  0.000
 O          0.000  0.000  0.001   -0.000 -0.000 -0.002    0.000 -0.000  0.000
 H         -0.007  0.008 -0.014    0.008 -0.013  0.021    0.002 -0.003  0.004
 TransDip  -0.075 -0.224  0.286    0.033  0.235 -0.330   -0.156 -0.055  0.184

 Mode:                37                     38                     39
 Frequency:      1460.09                1470.58                1583.09
 Force Cnst:      1.5262                 1.3640                14.8560
 Red. Mass:       1.2151                 1.0705                10.0610
 IR Active:          YES                    YES                    YES
 IR Intens:       48.382                  6.023               1248.166
 Raman Active:       YES                    YES                    YES
               X      Y      Z        X      Y      Z        X      Y      Z
 C         -0.064  0.062  0.005   -0.012 -0.001  0.013   -0.028  0.054 -0.010
 C         -0.005 -0.054  0.048    0.007  0.003 -0.014    0.544 -0.495 -0.213
 O         -0.018  0.036 -0.009    0.001 -0.003  0.002   -0.139  0.228 -0.026
 O          0.017 -0.003 -0.015   -0.008  0.003  0.007   -0.237  0.118  0.169
 C         -0.020 -0.024  0.036    0.007  0.008 -0.004    0.014  0.005 -0.014
 H          0.186 -0.443 -0.448    0.034 -0.042 -0.129   -0.063 -0.046  0.302
 H          0.666  0.001  0.065    0.127  0.024 -0.003   -0.234 -0.230  0.177
 C          0.011  0.010 -0.001   -0.007 -0.028 -0.003   -0.010 -0.002  0.010
 H          0.028 -0.066 -0.172   -0.002  0.030  0.010    0.020  0.002  0.011
 H          0.187  0.074 -0.046   -0.037 -0.036  0.030   -0.009 -0.019 -0.003
 C         -0.006  0.005  0.005    0.030 -0.020 -0.050    0.002  0.000  0.001
 H          0.053  0.039 -0.055   -0.184 -0.167  0.625    0.007  0.004 -0.026
 H          0.005 -0.098 -0.056   -0.286  0.533  0.245    0.015 -0.015 -0.007
 H         -0.024 -0.052  0.049    0.235 -0.007 -0.143   -0.012  0.004  0.005
 O         -0.004  0.003 -0.003   -0.007  0.008 -0.004    0.001  0.001 -0.002
 O         -0.000 -0.000 -0.000    0.000 -0.001 -0.000    0.000 -0.000  0.000
 O          0.000 -0.000  0.001   -0.000  0.000 -0.000    0.000  0.000  0.000
 H         -0.002  0.003 -0.005   -0.003  0.005 -0.006   -0.000  0.000 -0.001
 TransDip   0.153 -0.162  0.008    0.039  0.003  0.068    0.786 -0.768 -0.270

 Mode:                40                     41                     42
 Frequency:      1717.99                3042.18                3053.71
 Force Cnst:     16.5723                 5.8221                 5.7432
 Red. Mass:       9.5300                 1.0677                 1.0453
 IR Active:          YES                    YES                    YES
 IR Intens:      430.761                 20.084                  9.274
 Raman Active:       YES                    YES                    YES
               X      Y      Z        X      Y      Z        X      Y      Z
 C         -0.000  0.002 -0.010    0.001  0.004  0.005    0.005  0.001 -0.000
 C         -0.000  0.004 -0.002    0.001  0.000 -0.001    0.000 -0.000  0.000
 O          0.001 -0.004  0.002   -0.000 -0.000  0.000   -0.000  0.000  0.000
 O         -0.001 -0.002  0.002   -0.000  0.000  0.000   -0.000  0.000 -0.000
 C         -0.026  0.055 -0.055    0.021 -0.041 -0.057    0.002 -0.005 -0.008
 H         -0.002 -0.007 -0.001   -0.020 -0.006 -0.002   -0.063 -0.018 -0.014
 H          0.019 -0.026  0.011    0.003 -0.041 -0.057    0.001  0.009  0.012
 C          0.470 -0.381  0.371   -0.000 -0.001 -0.000    0.001 -0.000 -0.001
 H          0.014 -0.167  0.213   -0.265 -0.078 -0.056   -0.033 -0.010 -0.006
 H         -0.026 -0.014  0.005    0.020  0.568  0.755    0.003  0.074  0.098
 C         -0.051  0.018 -0.015    0.006  0.004  0.003   -0.045 -0.028 -0.022
 H         -0.178 -0.047 -0.126   -0.016  0.033  0.004    0.144 -0.293 -0.024
 H          0.307 -0.024  0.053   -0.006 -0.027  0.046    0.054  0.208 -0.350
 H         -0.117  0.121 -0.045   -0.044 -0.058 -0.087    0.318  0.425  0.646
 O         -0.291  0.245 -0.217    0.000  0.000  0.000    0.000 -0.000  0.000
 O          0.001 -0.010 -0.001    0.000 -0.000 -0.000    0.000 -0.000  0.000
 O          0.000 -0.000  0.000   -0.000 -0.000 -0.000    0.000 -0.000 -0.000
 H         -0.078  0.117 -0.146   -0.000  0.001  0.000   -0.000  0.001  0.000
 TransDip   0.434 -0.398  0.309    0.054 -0.120 -0.058   -0.031 -0.079 -0.048

 Mode:                43                     44                     45
 Frequency:      3066.09                3110.17                3127.33
 Force Cnst:      5.8890                 6.2472                 6.3212
 Red. Mass:       1.0632                 1.0961                 1.0970
 IR Active:          YES                    YES                    YES
 IR Intens:       28.455                 10.774                 40.338
 Raman Active:       YES                    YES                    YES
               X      Y      Z        X      Y      Z        X      Y      Z
 C         -0.067  0.008  0.021   -0.031 -0.046 -0.058   -0.021 -0.024 -0.030
 C         -0.001  0.001 -0.001    0.000 -0.001 -0.001   -0.000 -0.000  0.000
 O          0.000 -0.000  0.000   -0.000  0.000  0.000    0.000  0.000 -0.000
 O          0.000 -0.000 -0.000   -0.000  0.000  0.000    0.000 -0.000  0.000
 C          0.005  0.001  0.002    0.037  0.012  0.009   -0.067 -0.031 -0.028
 H          0.793  0.221  0.181    0.410  0.108  0.079    0.271  0.069  0.056
 H          0.002 -0.313 -0.422   -0.031  0.448  0.617   -0.016  0.218  0.296
 C         -0.000 -0.000  0.001    0.001 -0.000  0.001   -0.001  0.000 -0.002
 H         -0.050 -0.013 -0.007   -0.447 -0.118 -0.070    0.802  0.207  0.127
 H          0.001 -0.015 -0.021    0.005 -0.033 -0.051   -0.006  0.161  0.216
 C         -0.002 -0.005 -0.002    0.000 -0.003 -0.002    0.000 -0.002  0.001
 H         -0.004  0.006 -0.000   -0.014  0.023  0.001   -0.009  0.015  0.001
 H          0.005  0.012 -0.023   -0.001 -0.005  0.007    0.003  0.009 -0.015
 H          0.026  0.035  0.054    0.010  0.014  0.021    0.003  0.004  0.006
 O         -0.000  0.000 -0.000   -0.000  0.000 -0.000    0.001 -0.000  0.000
 O          0.000 -0.000 -0.000   -0.000  0.000  0.000    0.000 -0.000 -0.000
 O         -0.000  0.000  0.000   -0.000 -0.000 -0.000   -0.000  0.000 -0.000
 H          0.000 -0.000 -0.000    0.000  0.001  0.000   -0.000 -0.000  0.000
 TransDip  -0.161  0.058 -0.008    0.036 -0.087 -0.046   -0.166 -0.091 -0.075

 Mode:                46                     47                     48
 Frequency:      3138.61                3182.42                3685.58
 Force Cnst:      6.3324                 6.5849                 8.5473
 Red. Mass:       1.0910                 1.1035                 1.0680
 IR Active:          YES                    YES                    YES
 IR Intens:       18.238                 14.866                 94.693
 Raman Active:       YES                    YES                    YES
               X      Y      Z        X      Y      Z        X      Y      Z
 C          0.002  0.001  0.002    0.002  0.001  0.002   -0.000  0.000  0.000
 C         -0.000  0.000  0.000    0.000  0.000 -0.000    0.000 -0.000 -0.000
 O         -0.000  0.000 -0.000    0.000 -0.000  0.000   -0.000 -0.000  0.000
 O         -0.000  0.000  0.000   -0.000 -0.000  0.000    0.000 -0.000 -0.000
 C         -0.001 -0.001 -0.000    0.001  0.000 -0.000    0.000 -0.000  0.000
 H         -0.031 -0.009 -0.006   -0.034 -0.009 -0.007    0.000  0.000 -0.000
 H          0.001 -0.007 -0.011    0.001 -0.006 -0.009    0.000 -0.001 -0.000
 C         -0.002 -0.000 -0.001    0.001 -0.002  0.001   -0.002  0.002 -0.001
 H          0.015  0.004  0.002   -0.012 -0.003 -0.002    0.001  0.000  0.000
 H          0.000  0.004  0.006    0.000  0.000  0.000    0.000 -0.000 -0.001
 C          0.012 -0.023 -0.083    0.024 -0.084  0.033    0.000  0.000  0.000
 H         -0.220  0.412  0.010   -0.386  0.727  0.047    0.001 -0.001 -0.000
 H         -0.105 -0.383  0.599    0.083  0.283 -0.471   -0.000 -0.000  0.001
 H          0.201  0.258  0.386    0.019  0.006  0.035   -0.000 -0.001 -0.000
 O          0.000 -0.000  0.000   -0.000  0.000 -0.001    0.001 -0.001  0.001
 O         -0.000 -0.000 -0.000   -0.000 -0.000 -0.000    0.000 -0.001  0.000
 O         -0.000 -0.000 -0.000   -0.000 -0.000 -0.000    0.011 -0.053 -0.032
 H          0.000  0.000  0.000   -0.000  0.001  0.001   -0.177  0.844  0.503
 TransDip   0.035 -0.000 -0.132    0.009 -0.104  0.066   -0.016  0.231  0.209

 STANDARD THERMODYNAMIC QUANTITIES AT   298.15 K  AND     1.00 ATM

   This Molecule has  1 Imaginary Frequencies
   Zero point vibrational energy:       82.451 kcal/mol

   Atom    1 Element C  Has Mass   12.00000
   Atom    2 Element C  Has Mass   12.00000
   Atom    3 Element O  Has Mass   15.99491
   Atom    4 Element O  Has Mass   15.99491
   Atom    5 Element C  Has Mass   12.00000
   Atom    6 Element H  Has Mass    1.00783
   Atom    7 Element H  Has Mass    1.00783
   Atom    8 Element C  Has Mass   12.00000
   Atom    9 Element H  Has Mass    1.00783
   Atom   10 Element H  Has Mass    1.00783
   Atom   11 Element C  Has Mass   12.00000
   Atom   12 Element H  Has Mass    1.00783
   Atom   13 Element H  Has Mass    1.00783
   Atom   14 Element H  Has Mass    1.00783
   Atom   15 Element O  Has Mass   15.99491
   Atom   16 Element O  Has Mass   15.99491
   Atom   17 Element O  Has Mass   15.99491
   Atom   18 Element H  Has Mass    1.00783
   Molecular Mass:   148.037190 amu
   Principal axes and moments of inertia in amu*Bohr^2:
                             1           2           3
    Eigenvalues --      888.71019  2909.05519  3188.43255
          X               0.02337     0.06928     0.99732
          Y              -0.51016     0.85875    -0.04770
          Z               0.85976     0.50768    -0.05541
   Rotational Symmetry Number is   1
   The Molecule is an Asymmetric Top
   Translational Enthalpy:        0.889 kcal/mol
   Rotational Enthalpy:           0.889 kcal/mol
   Vibrational Enthalpy:         87.952 kcal/mol
   gas constant (RT):             0.592 kcal/mol
   Translational Entropy:        40.887  cal/mol.K
   Rotational Entropy:           30.489  cal/mol.K
   Vibrational Entropy:          37.912  cal/mol.K

   Total Enthalpy:               90.322 kcal/mol
   Total Entropy:               109.288  cal/mol.K
Archival summary:
1\1\c4-85\FREQ\ProcedureUnspecified\BasisUnspecified\558(2-,1)\leeping\SunMay2001:46:332018SunMay2001:46:332018\0\\#,FREQ,ProcedureUnspecified,BasisUnspecified,\\-2,1\O\C,1,1.2285\C,2,1.50638,1,120.35\H,3,1.08953,2,111.67,1,138.369,0\H,3,1.09102,2,109.975,1,15.6554,0\H,3,1.09769,2,107.945,1,-103.31,0\C,2,1.51179,1,120.106,3,-168.449,0\H,7,1.09239,2,107.54,1,-28.7727,0\H,7,1.09966,2,105.231,1,84.5239,0\C,7,1.52235,2,116.34,1,-154.027,0\H,10,1.09429,7,109.656,2,57.0109,0\H,10,1.09605,7,110.777,2,-60.1025,0\C,10,1.53789,7,115.008,2,179.266,0\O,13,1.25721,10,118.846,7,6.83446,0\O,13,1.26145,10,115.749,7,-173.851,0\H,1,1.95912,2,99.1241,3,-82.4755,0\O,16,0.970825,1,148.986,2,-16.6209,0\O,17,1.46445,16,101.139,1,-3.43437,0\\\@

 Total job time:  39629.41s(wall), 522716.26s(cpu) 
 Sun May 20 01:46:33 2018

        *************************************************************
        *                                                           *
        *  Thank you very much for using Q-Chem.  Have a nice day.  *
        *                                                           *
        *************************************************************


