
Running Job 1 of 1 qc-freq2.in
qchem qc-freq2.in_1608.0 /scratch/leeping/1862640/qc-freq2.d/ 1
/home/leeping/opt/qchem/5.0.2-openmp/exe/qcprog.exe_s qc-freq2.in_1608.0 /scratch/leeping/1862640/qc-freq2.d/
Check license passed

                  Welcome to Q-Chem
     A Quantum Leap Into The Future Of Chemistry


 Q-Chem 5.0, Q-Chem, Inc., Pleasanton, CA (2017)

 Yihan Shao,  Zhengting Gan,  E. Epifanovsky,  A. T. B. Gilbert,  M. Wormit,  
 J. Kussmann,  A. W. Lange,  A. Behn,  Jia Deng,  Xintian Feng,  D. Ghosh,  
 M. Goldey,  P. R. Horn,  L. D. Jacobson,  I. Kaliman,  T. Kus,  A. Landau,  
 Jie Liu,  E. I. Proynov,  R. M. Richard,  R. P. Steele,  E. J. Sundstrom,  
 H. L. Woodcock III,  P. M. Zimmerman,  D. Zuev,  B. Albrecht,  E. Alguire,  
 S. A. Baeppler,  D. Barton,  Z. Benda,  Y. A. Bernard,  E. J. Berquist,  
 K. B. Bravaya,  H. Burton,  D. Casanova,  Chun-Min Chang,  Yunqing Chen,  
 A. Chien,  K. D. Closser,  M. P. Coons,  S. Dasgupta,  A. L. Dempwolff,  
 M. Diedenhofen,  Hainam Do,  R. G. Edgar,  Po-Tung Fang,  S. Fatehi,  
 Qingguo Feng,  J. Fosso-Tande,  Qinghui Ge,  A. Ghysels,  G. Gidofalvi,  
 J. Gomes,  J. Gonthier,  A. Gunina,  M. W. D. Hanson-Heine,  
 P. H. P. Harbach,  A. W. Hauser,  J. E. Herr,  E. G. Hohenstein,  
 Z. C. Holden,  Kerwin Hui,  T.-C. Jagau,  Hyunjun Ji,  B. Kaduk,  
 K. Khistyaev,  Jaehoon Kim,  P. Klunzinger,  K. Koh,  D. Kosenkov,  
 L. Koulias,  T. Kowalczyk,  C. M. Krauter,  A. Kunitsa,  Ka Un Lao,  
 A. Laurent,  K. V. Lawler,  Joonho Lee,  D. Lefrancois,  S. Lehtola,  
 D. S. Levine,  Yi-Pei Li,  You-Sheng Lin,  Fenglai Liu,  E. Livshits,  
 A. Luenser,  P. Manohar,  E. Mansoor,  S. F. Manzer,  Shan-Ping Mao,  
 Yuezhi Mao,  N. Mardirossian,  A. V. Marenich,  T. Markovich,  
 L. A. Martinez-Martinez,  S. A. Maurer,  N. J. Mayhall,  S. C. McKenzie,  
 J.-M. Mewes,  A. F. Morrison,  J. W. Mullinax,  K. Nanda,  
 T. S. Nguyen-Beck,  R. Olivares-Amaya,  J. A. Parkhill,  T. M. Perrine,  
 F. Plasser,  S. Prager,  A. Prociuk,  E. Ramos,  D. R. Rehn,  F. Rob,  
 M. Schneider,  N. Sergueev,  S. M. Sharada,  S. Sharma,  D. W. Small,  
 T. Stauch,  T. Stein,  Yu-Chuan Su,  A. J. W. Thom,  A. Tkatchenko,  
 T. Tsuchimochi,  L. Vogt,  O. Vydrov,  M. A. Watson,  J. Wenzel,  
 M. de Wergifosse,  T. A. Wesolowski,  A. White,  J. Witte,  A. Yamada,  
 Jun Yang,  K. Yao,  S. Yeganeh,  S. R. Yost,  Zhi-Qiang You,  A. Zech,  
 Igor Ying Zhang,  Xing Zhang,  Yan Zhao,  Ying Zhu,  B. R. Brooks,  
 G. K. L. Chan,  C. J. Cramer,  M. S. Gordon,  W. J. Hehre,  A. Klamt,  
 M. W. Schmidt,  C. D. Sherrill,  D. G. Truhlar,  A. Aspuru-Guzik,  R. Baer,  
 A. T. Bell,  N. A. Besley,  Jeng-Da Chai,  R. A. DiStasio Jr.,  A. Dreuw,  
 B. D. Dunietz,  T. R. Furlani,  Chao-Ping Hsu,  Yousung Jung,  Jing Kong,  
 D. S. Lambrecht,  WanZhen Liang,  C. Ochsenfeld,  V. A. Rassolov,  
 L. V. Slipchenko,  J. E. Subotnik,  T. Van Voorhis,  J. M. Herbert,  
 A. I. Krylov,  P. M. W. Gill,  M. Head-Gordon

 Contributors to earlier versions of Q-Chem not listed above: 
 R. D. Adamson,  B. Austin,  J. Baker,  G. J. O. Beran,  K. Brandhorst,  
 S. T. Brown,  E. F. C. Byrd,  A. K. Chakraborty,  C.-L. Cheng,  
 Siu Hung Chien,  D. M. Chipman,  D. L. Crittenden,  H. Dachsel,  
 R. J. Doerksen,  A. D. Dutoi,  L. Fusti-Molnar,  W. A. Goddard III,  
 A. Golubeva-Zadorozhnaya,  S. R. Gwaltney,  G. Hawkins,  A. Heyden,  
 S. Hirata,  G. Kedziora,  F. J. Keil,  C. Kelley,  Jihan Kim,  R. A. King,  
 R. Z. Khaliullin,  P. P. Korambath,  W. Kurlancheek,  A. M. Lee,  M. S. Lee,  
 S. V. Levchenko,  Ching Yeh Lin,  D. Liotard,  R. C. Lochan,  I. Lotan,  
 P. E. Maslen,  N. Nair,  D. P. O'Neill,  D. Neuhauser,  E. Neuscamman,  
 C. M. Oana,  R. Olson,  B. Peters,  R. Peverati,  P. A. Pieniazek,  
 Y. M. Rhee,  J. Ritchie,  M. A. Rohrdanz,  E. Rosta,  N. J. Russ,  
 H. F. Schaefer III,  N. E. Schultz,  N. Shenvi,  A. C. Simmonett,  A. Sodt,  
 D. Stuck,  K. S. Thanthiriwatte,  V. Vanovschi,  Tao Wang,  A. Warshel,  
 C. F. Williams,  Q. Wu,  X. Xu,  W. Zhang

 Please cite Q-Chem as follows:
 Y. Shao et al., Mol. Phys. 113, 184-215 (2015)
 DOI: 10.1080/00268976.2014.952696

 Q-Chem 5.0.2 for Intel X86 EM64T Linux

 Parts of Q-Chem use Armadillo 5.200.1 (Boston Tea Smuggler).
 http://arma.sourceforge.net/

 Q-Chem begins on Fri Mar 20 11:50:56 2020  

Host: 
0

     Scratch files written to /scratch/leeping/1862640/qc-freq2.d//
 Dec517 15110_ 26548  26544 5633   
Processing $rem in /home/leeping/opt/qchem/5.0.2-openmp/config/preferences.
 MEM_STATIC 2000
 MEM_TOTAL  8000
 SYMMETRY   OFF
 SYM_IGNORE TRUE 
Symmetry turned off for PCM/SM12/SMD calculation

Checking the input file for inconsistencies... 	...done.

--------------------------------------------------------------
User input:
--------------------------------------------------------------
$molecule
-2 1
C       -0.1928844863    1.3973619412   -0.7596306468
C        0.1457635710    2.1165092271   -2.0766588226
O       -0.4360153634    3.2217499175   -2.2635545849
O        0.9550017147    1.5808109696   -2.8760813664
C        0.5468369488    0.0882546846   -0.5057672717
H       -1.2771715235    1.2369608497   -0.7666866350
H       -0.0029472380    2.1091997315    0.0511056504
C        0.2408523803   -0.6232818498    0.8195308838
H        1.6285082447    0.2589472588   -0.5285063144
H        0.3208523215   -0.6246726777   -1.3073351488
C       -1.2427061144   -0.9850170876    0.9744246225
H       -1.8988222861   -0.1150403973    0.8775378654
H       -1.3970267861   -1.4341149928    1.9599944137
H       -1.5201883496   -1.7202935753    0.2116197348
O        1.0517660748   -1.6635896798    1.0649226578
O        0.5250252117    0.4489185285    1.8603502138
O        0.8656981546   -0.2707558648    3.0511539665
H        1.1621288065   -1.1132212080    2.5696364718
$end

$rem
jobtype               freq
method                wb97x-v
basis                 def2-tzvpd
symmetry              off
sym_ignore            true
incdft                false
incfock               0
!scf_algorithm        diis_gdm
scf_convergence       8
thresh                14
!purecart             112
max_scf_cycles        1000
geom_opt_max_cycles   500
geom_opt_dmax         100
geom_opt_tol_gradient 10
solvent_method        pcm
ideriv                1
rpath_tol_displacement 1000
rpath_max_cycles      100
rpath_direction       1
!scf_guess            read
scf_guess             read
$end

$pcm
theory              cosmo
method              iswig
Radii               bondi
vdwScale            1.20
hpoints             110
heavypoints         110
$end

$solvent
dielectric 78.400000
$end

--------------------------------------------------------------
 ----------------------------------------------------------------
             Standard Nuclear Orientation (Angstroms)
    I     Atom           X                Y                Z
 ----------------------------------------------------------------
    1      C      -0.1928844863     1.3973619412    -0.7596306468
    2      C       0.1457635710     2.1165092271    -2.0766588226
    3      O      -0.4360153634     3.2217499175    -2.2635545849
    4      O       0.9550017147     1.5808109696    -2.8760813664
    5      C       0.5468369488     0.0882546846    -0.5057672717
    6      H      -1.2771715235     1.2369608497    -0.7666866350
    7      H      -0.0029472380     2.1091997315     0.0511056504
    8      C       0.2408523803    -0.6232818498     0.8195308838
    9      H       1.6285082447     0.2589472588    -0.5285063144
   10      H       0.3208523215    -0.6246726777    -1.3073351488
   11      C      -1.2427061144    -0.9850170876     0.9744246225
   12      H      -1.8988222861    -0.1150403973     0.8775378654
   13      H      -1.3970267861    -1.4341149928     1.9599944137
   14      H      -1.5201883496    -1.7202935753     0.2116197348
   15      O       1.0517660748    -1.6635896798     1.0649226578
   16      O       0.5250252117     0.4489185285     1.8603502138
   17      O       0.8656981546    -0.2707558648     3.0511539665
   18      H       1.1621288065    -1.1132212080     2.5696364718
 ----------------------------------------------------------------
 Nuclear Repulsion Energy =   546.6973096155 hartrees
 There are       40 alpha and       40 beta electrons
 Requested basis set is def2-TZVPD
 There are 175 shells and 457 basis functions

 Total QAlloc Memory Limit   8000 MB
 Mega-Array Size      1956 MB
 MEM_STATIC part      2000 MB
 Discretize the solute cavity surface with Lebedev spheres
	Using 110 Lebedev grid points for each H atom
	Using 110 Lebedev grid points for other atoms
	Atomic van der Waals radii will be scaled by 1.20
 Remove points where switching function is < 1.0e-08
 Keep 1042 surface tesserae and discard 938 interior tesserae
 Molecular Surface Area = 185.663 Angst**2
 A cutoff of  1.0D-14 yielded  14086 shell pairs
 There are     96040 function pairs (    122165 Cartesian)
 
 -------------------------------------------------------
 OpenMP Integral Computing Module                       
 Release: version 1.0, May 2013, Q-Chem Inc. Pittsburgh 
 -------------------------------------------------------
 Integral Job Info:
 Integral job number is                      11
 Integral operator is                         1
 short-range coefficients              16700000
 long-range coefficients              100000000
 Omega coefficients                         300
 if combine SR and LR in K                    1
 Integral screening is                        0
 Integral computing path is                   2
 max size of driver memory is            800000
 size of driver memory is                776718
 size of scratch memory is              4473992
 max col of scratch BK array              10000
 max len of scratch array in speh3          662
 max len of scratch index in speh4           32
 max int batch size is                      520
 min int batch size is                       52
 fixed nKL is                                52
 max L of basis functions is                  3
 order of int derivative is                   0
 number of shells is                        175
 number of basis is                         517
 number of cartesian basis is               517
 number of contracted shell pairs         14086
 number of primitive shell pairs          28664
 maxK2 (contraction) of shell pair           36
 max number of K2 of shell pair               1
 max number of CS2 of shell pair           2321
 max number of PS2 of shell pair           3258
 mem total for path MDJ                  777156
 -------------------------------------------------------
 Smallest overlap matrix eigenvalue = 2.65E-06
 Guess MOs from SCF MO coefficient file
 Reading MOs from coefficient file
 Reading MOs from coefficient file
 Long-range K will be added via erf
 Coulomb attenuation parameter = 0.3 bohr**(-1)
 A restricted hybrid HF-DFT SCF calculation will be
 performed using Pulay DIIS extrapolation
 Polarizable Continuum solvation model will be applied
 Exchange:     0.1670 Hartree-Fock + 1.0000 wB97X-V + LR-HF
 Correlation:  1.0000 wB97X-V
 Using SG-2 standard quadrature grid
 Nonlocal Correlation:  VV10 with C = 0.0100 and b = 6.00
 Grid used for NLC:  SG-1 standard quadrature
 SCF converges when DIIS error is below 1.0E-08
Using Q-Chem read-in guess as SCF_GUESS READ specified.

 using 16 threads for integral computing
 -------------------------------------------------------
 OpenMP Integral computing Module                
 Release: version 1.0, May 2013, Q-Chem Inc. Pittsburgh 
 -------------------------------------------------------
 using 16 threads for integral computing
 -------------------------------------------------------
 OpenMP Integral computing Module                
 Release: version 1.0, May 2013, Q-Chem Inc. Pittsburgh 
 -------------------------------------------------------
 -------------------------------------------------------
 OpenMP BLAS3 based DFT computing Module                
 Release: version 1.0, May 2013, Q-Chem Inc. Pittsburgh 
 -------------------------------------------------------
 -------------------------------------------------------
 OpenMP BLAS3 based DFT computing Module                
 Release: version 1.0, May 2013, Q-Chem Inc. Pittsburgh 
 -------------------------------------------------------
 -------------------------------------------------------
 OpenMP BLAS3 based DFT computing Module                
 Release: version 1.0, May 2013, Q-Chem Inc. Pittsburgh 
 -------------------------------------------------------
 ---------------------------------------
  Cycle       Energy         DIIS Error
 ---------------------------------------
    1    -571.4270731796      2.97E-04
    2    -571.7220030197      3.15E-04
    3    -571.7256927886      1.47E-04
    4    -571.7262961205      1.08E-04
    5    -571.7266779167      8.27E-05
    6    -571.7268736109      6.64E-05
    7    -571.7270108200      5.21E-05
    8    -571.7270957043      4.08E-05
    9    -571.7271601186      2.95E-05
   10    -571.7271872049      2.32E-05
   11    -571.7272071313      1.70E-05
   12    -571.7272164232      1.32E-05
   13    -571.7272224651      1.00E-05
   14    -571.7272257554      7.68E-06
   15    -571.7272273100      6.30E-06
   16    -571.7272285825      4.88E-06
   17    -571.7272304945      3.73E-09 Convergence criterion met
 ---------------------------------------

************** Final PCM Free Energy Summary **************
 G_electrostatic  =      -0.30015829 hartree =    -188.35216716 kcal/mol
 G_cavitation     =       0.00000000 hartree =       0.00000000 kcal/mol
 G_dispersion     =       0.00000000 hartree =       0.00000000 kcal/mol
 G_repulsion      =       0.00000000 hartree =       0.00000000 kcal/mol
 --------------------------------------------------
 Non-electrostatic Free Energy =       0.00000000 hartree =       0.00000000 kcal/mol
 Total                         =      -0.30015829 hartree =    -188.35216716 kcal/mol
 --------------------------------------------------
 SCF Energy (H0 + V/2)                       =    -571.72723049 
 Solute Internal Energy (H0)                 =    -571.42707221 
 Total Free Energy (H0 + V/2 + non-elec)     =    -571.72723049 hartree
                                             = -358764.25196392 kcal/mol
***********************************************************

 SCF time:  CPU 4329.75 s  wall 307.01 s
 SCF   energy in the final basis set = -571.72723049
 Total energy in the final basis set = -571.72723049
 
 --------------------------------------------------------------
 
                    Orbital Energies (a.u.)
 --------------------------------------------------------------
 
 Alpha MOs
 -- Occupied --
-19.224 -19.220 -19.139 -19.135 -19.114 -10.338 -10.328 -10.243
-10.238 -10.232  -1.216  -1.141  -1.059  -1.046  -0.967  -0.881
 -0.823  -0.756  -0.655  -0.602  -0.595  -0.561  -0.551  -0.533
 -0.517  -0.510  -0.502  -0.494  -0.463  -0.456  -0.447  -0.433
 -0.416  -0.401  -0.345  -0.344  -0.332  -0.330  -0.324  -0.297
 -- Virtual --
  0.062   0.071   0.083   0.088   0.095   0.101   0.111   0.123
  0.127   0.132   0.134   0.145   0.153   0.154   0.161   0.168
  0.181   0.186   0.188   0.191   0.194   0.203   0.219   0.223
  0.228   0.241   0.246   0.253   0.262   0.269   0.272   0.279
  0.282   0.290   0.293   0.305   0.310   0.312   0.318   0.323
  0.331   0.333   0.342   0.353   0.357   0.360   0.369   0.371
  0.379   0.379   0.389   0.393   0.397   0.405   0.406   0.413
  0.420   0.427   0.435   0.439   0.444   0.448   0.457   0.459
  0.461   0.471   0.478   0.486   0.490   0.493   0.494   0.501
  0.512   0.517   0.529   0.530   0.533   0.543   0.548   0.551
  0.559   0.566   0.574   0.581   0.584   0.593   0.596   0.601
  0.606   0.615   0.618   0.629   0.633   0.641   0.648   0.653
  0.662   0.670   0.672   0.684   0.691   0.698   0.706   0.714
  0.719   0.723   0.736   0.738   0.754   0.758   0.772   0.774
  0.783   0.787   0.792   0.800   0.806   0.811   0.817   0.823
  0.827   0.833   0.835   0.840   0.854   0.859   0.864   0.873
  0.879   0.884   0.887   0.896   0.906   0.926   0.930   0.937
  0.946   0.961   0.965   0.982   0.994   1.003   1.016   1.022
  1.044   1.053   1.065   1.076   1.085   1.095   1.111   1.124
  1.140   1.161   1.168   1.177   1.189   1.199   1.211   1.217
  1.230   1.235   1.241   1.262   1.285   1.290   1.314   1.318
  1.336   1.362   1.388   1.406   1.422   1.435   1.436   1.460
  1.474   1.479   1.495   1.514   1.525   1.554   1.586   1.593
  1.610   1.631   1.662   1.674   1.713   1.753   1.767   1.811
  1.833   1.852   1.861   1.888   1.932   1.935   1.951   1.961
  1.972   1.978   1.986   1.992   2.002   2.009   2.035   2.046
  2.052   2.060   2.079   2.114   2.119   2.138   2.179   2.188
  2.197   2.214   2.241   2.259   2.267   2.282   2.286   2.304
  2.318   2.332   2.345   2.371   2.394   2.398   2.416   2.433
  2.465   2.485   2.490   2.510   2.530   2.542   2.566   2.578
  2.621   2.634   2.655   2.670   2.684   2.708   2.724   2.732
  2.760   2.781   2.798   2.834   2.858   2.898   2.905   2.915
  2.931   2.948   2.966   2.980   3.004   3.024   3.026   3.046
  3.052   3.074   3.097   3.108   3.129   3.152   3.163   3.181
  3.218   3.260   3.266   3.282   3.308   3.328   3.353   3.366
  3.389   3.401   3.438   3.464   3.475   3.490   3.511   3.521
  3.532   3.539   3.553   3.569   3.576   3.583   3.608   3.627
  3.641   3.660   3.667   3.679   3.693   3.712   3.716   3.728
  3.748   3.767   3.774   3.784   3.797   3.815   3.835   3.839
  3.857   3.903   3.939   3.950   3.980   4.033   4.082   4.095
  4.134   4.153   4.189   4.250   4.286   4.297   4.328   4.355
  4.429   4.467   4.493   4.595   4.649   4.674   4.700   4.721
  4.792   4.824   4.827   4.846   4.853   4.918   4.952   4.989
  5.059   5.112   5.128   5.202   5.255   5.301   5.327   5.337
  5.366   5.384   5.389   5.409   5.417   5.502   5.526   5.561
  5.617   5.648   5.718   5.718   5.733   5.775   5.786   5.831
  5.998   6.015   6.046   6.104   6.224   6.240   6.246   6.317
  6.339   6.355   6.411   6.608   6.620   6.639   6.674   6.703
  6.710   6.756   6.770   6.799   6.816   6.904   6.961   6.973
  7.014   7.051   7.070   7.177   7.196   7.243   7.259   7.303
  7.366   7.399   7.405   7.413   7.533   7.617   8.334  22.745
 22.912  22.971  23.130  23.740  44.215  44.281  44.429  44.593
 44.702
 --------------------------------------------------------------
 
          Ground-State Mulliken Net Atomic Charges

     Atom                 Charge (a.u.)
  ----------------------------------------
      1 C                    -0.200482
      2 C                    -0.019231
      3 O                    -0.716822
      4 O                    -0.691968
      5 C                    -0.236233
      6 H                     0.190638
      7 H                     0.201889
      8 C                     1.060833
      9 H                     0.130082
     10 H                     0.224050
     11 C                    -1.293894
     12 H                     0.262616
     13 H                     0.235373
     14 H                     0.245643
     15 O                    -0.980464
     16 O                    -0.274064
     17 O                    -0.491006
     18 H                     0.353040
  ----------------------------------------
  Sum of atomic charges =    -2.000000

 -----------------------------------------------------------------
                    Cartesian Multipole Moments
 -----------------------------------------------------------------
    Charge (ESU x 10^10)
                -9.6064
    Dipole Moment (Debye)
         X      -6.5185      Y      -8.5658      Z       4.9677
       Tot      11.8550
    Quadrupole Moments (Debye-Ang)
        XX     -74.5615     XY       6.2635     YY    -113.4709
        XZ      -0.6855     YZ      36.2063     ZZ    -125.2475
    Octopole Moments (Debye-Ang^2)
       XXX     -50.3405    XXY     -31.2689    XYY     -12.7101
       YYY    -195.3021    XXZ       7.2664    XYZ       4.3204
       YYZ      91.1188    XZZ     -49.7790    YZZ    -126.8541
       ZZZ      68.8511
    Hexadecapole Moments (Debye-Ang^3)
      XXXX    -345.9830   XXXY      12.2002   XXYY    -255.5607
      XYYY      83.6556   YYYY   -1473.7406   XXXZ     -19.9537
      XXYZ     156.6664   XYYZ     -31.4032   YYYZ     716.5295
      XXZZ    -334.7177   XYZZ     -20.4150   YYZZ    -652.5997
      XZZZ       9.4138   YZZZ     640.1576   ZZZZ   -1909.9563
 -----------------------------------------------------------------
 Calculating analytic gradient of the SCF energy
 Gradient of SCF Energy
            1           2           3           4           5           6
    1  -0.0578876   0.0052606   0.0211321  -0.0369279   0.1783585   0.0434926
    2   0.0411739   0.0066665  -0.0469184   0.0223319  -0.0734896   0.0065680
    3   0.0758884  -0.0465337   0.0166296   0.0419205  -0.0677407   0.0060585
            7           8           9          10          11          12
    1  -0.0198657  -0.0817910  -0.0676097   0.0149854  -0.0926251   0.0372731
    2  -0.0422461   0.0649579  -0.0179262   0.0426962  -0.0134766  -0.0687648
    3  -0.0357170  -0.0153265  -0.0091054   0.0357551   0.0136850   0.0112100
           13          14          15          16          17          18
    1   0.0141651   0.0090852   0.0117279   0.0054607   0.0237094  -0.0079437
    2   0.0302865   0.0513124  -0.0041249   0.0091787  -0.0505236   0.0422981
    3  -0.0730127   0.0593885  -0.0079851  -0.0391890   0.0119687   0.0221057
 Max gradient component =       1.784E-01
 RMS gradient           =       4.746E-02
 Computing fast CPCM-ISWIG gradient
 Updating gradient with PCM contributions...
 -- total gradient after adding PCM contribution --
---------------------------------------------------
  Atom         X              Y              Z     
---------------------------------------------------
   1       0.000004      -0.000002      -0.000005
   2      -0.000007       0.000001       0.000002
   3       0.000004       0.000001       0.000002
   4       0.000002       0.000001       0.000004
   5       0.000018       0.000008      -0.000015
   6       0.000001      -0.000000       0.000001
   7      -0.000002      -0.000000       0.000003
   8       0.000017      -0.000004       0.000023
   9      -0.000000      -0.000003      -0.000002
  10      -0.000009      -0.000004       0.000003
  11      -0.000011      -0.000017      -0.000004
  12       0.000000       0.000003       0.000003
  13       0.000003      -0.000002       0.000000
  14      -0.000004       0.000004      -0.000003
  15      -0.000011       0.000018      -0.000003
  16       0.000002      -0.000005       0.000006
  17      -0.000009      -0.000017      -0.000024
  18       0.000002       0.000019       0.000010
---------------------------------------------------
 Number of fixed atoms: 0
 Gradient time:  CPU 893.48 s  wall 63.83 s
 ######################################################
 ######################################################
 # Starting finite difference calculation for IDERIV  #
 Finite diff step size:  1.88973e-03 a.u.
 ----------------------------------------------------------------
             Standard Nuclear Orientation (Angstroms)
    I     Atom           X                Y                Z
 ----------------------------------------------------------------
    1      C      -0.1918844863     1.3973619412    -0.7596306468
    2      C       0.1457635710     2.1165092271    -2.0766588226
    3      O      -0.4360153634     3.2217499175    -2.2635545849
    4      O       0.9550017147     1.5808109696    -2.8760813664
    5      C       0.5468369488     0.0882546846    -0.5057672717
    6      H      -1.2771715235     1.2369608497    -0.7666866350
    7      H      -0.0029472380     2.1091997315     0.0511056504
    8      C       0.2408523803    -0.6232818498     0.8195308838
    9      H       1.6285082447     0.2589472588    -0.5285063144
   10      H       0.3208523215    -0.6246726777    -1.3073351488
   11      C      -1.2427061144    -0.9850170876     0.9744246225
   12      H      -1.8988222861    -0.1150403973     0.8775378654
   13      H      -1.3970267861    -1.4341149928     1.9599944137
   14      H      -1.5201883496    -1.7202935753     0.2116197348
   15      O       1.0517660748    -1.6635896798     1.0649226578
   16      O       0.5250252117     0.4489185285     1.8603502138
   17      O       0.8656981546    -0.2707558648     3.0511539665
   18      H       1.1621288065    -1.1132212080     2.5696364718
 ----------------------------------------------------------------
 Nuclear Repulsion Energy =   546.7044072265 hartrees
 There are       40 alpha and       40 beta electrons
 Discretize the solute cavity surface with Lebedev spheres
	Using 110 Lebedev grid points for each H atom
	Using 110 Lebedev grid points for other atoms
	Atomic van der Waals radii will be scaled by 1.20
 Remove points where switching function is < 1.0e-08
 Keep 1042 surface tesserae and discard 938 interior tesserae
 Molecular Surface Area = 185.664 Angst**2
 Requested basis set is def2-TZVPD
 There are 175 shells and 457 basis functions
 A cutoff of  1.0D-14 yielded  14086 shell pairs
 There are     96040 function pairs (    122165 Cartesian)
 Smallest overlap matrix eigenvalue = 2.64E-06
 Guess MOs from SCF MO coefficient file
 Reading MOs from coefficient file
 Reading MOs from coefficient file
 Long-range K will be added via erf
 Coulomb attenuation parameter = 0.3 bohr**(-1)
 A restricted hybrid HF-DFT SCF calculation will be
 performed using Pulay DIIS extrapolation
 Polarizable Continuum solvation model will be applied
 Exchange:     0.1670 Hartree-Fock + 1.0000 wB97X-V + LR-HF
 Correlation:  1.0000 wB97X-V
 Using SG-2 standard quadrature grid
 Nonlocal Correlation:  VV10 with C = 0.0100 and b = 6.00
 Grid used for NLC:  SG-1 standard quadrature
 SCF converges when DIIS error is below 1.0E-08
Using Q-Chem read-in guess as SCF_GUESS READ specified.

 using 16 threads for integral computing
 -------------------------------------------------------
 OpenMP Integral computing Module                
 Release: version 1.0, May 2013, Q-Chem Inc. Pittsburgh 
 -------------------------------------------------------
 using 16 threads for integral computing
 -------------------------------------------------------
 OpenMP Integral computing Module                
 Release: version 1.0, May 2013, Q-Chem Inc. Pittsburgh 
 -------------------------------------------------------
 -------------------------------------------------------
 OpenMP BLAS3 based DFT computing Module                
 Release: version 1.0, May 2013, Q-Chem Inc. Pittsburgh 
 -------------------------------------------------------
 -------------------------------------------------------
 OpenMP BLAS3 based DFT computing Module                
 Release: version 1.0, May 2013, Q-Chem Inc. Pittsburgh 
 -------------------------------------------------------
 -------------------------------------------------------
 OpenMP BLAS3 based DFT computing Module                
 Release: version 1.0, May 2013, Q-Chem Inc. Pittsburgh 
 -------------------------------------------------------
 ---------------------------------------
  Cycle       Energy         DIIS Error
 ---------------------------------------
    1    -571.4267618657      2.97E-04
    2    -571.7219969485      3.15E-04
    3    -571.7256925517      1.47E-04
    4    -571.7262972828      1.08E-04
    5    -571.7266856865      8.20E-05
    6    -571.7268967809      6.42E-05
    7    -571.7270678128      4.47E-05
    8    -571.7271715952      2.68E-05
    9    -571.7272218169      9.78E-06
   10    -571.7272287871      3.02E-06
   11    -571.7272294845      5.41E-07
   12    -571.7272295062      1.07E-07
   13    -571.7272295070      9.31E-09 Convergence criterion met
 ---------------------------------------

************** Final PCM Free Energy Summary **************
 G_electrostatic  =      -0.30015661 hartree =    -188.35111659 kcal/mol
 G_cavitation     =       0.00000000 hartree =       0.00000000 kcal/mol
 G_dispersion     =       0.00000000 hartree =       0.00000000 kcal/mol
 G_repulsion      =       0.00000000 hartree =       0.00000000 kcal/mol
 --------------------------------------------------
 Non-electrostatic Free Energy =       0.00000000 hartree =       0.00000000 kcal/mol
 Total                         =      -0.30015661 hartree =    -188.35111659 kcal/mol
 --------------------------------------------------
 SCF Energy (H0 + V/2)                       =    -571.72722951 
 Solute Internal Energy (H0)                 =    -571.42707290 
 Total Free Energy (H0 + V/2 + non-elec)     =    -571.72722951 hartree
                                             = -358764.25134426 kcal/mol
***********************************************************

 SCF time:  CPU 3309.74 s  wall 234.50 s
 SCF   energy in the final basis set = -571.72722951
 Total energy in the final basis set = -571.72722951
 
 --------------------------------------------------------------
 
                    Orbital Energies (a.u.)
 --------------------------------------------------------------
 
 Alpha MOs
 -- Occupied --
-19.224 -19.220 -19.139 -19.135 -19.114 -10.338 -10.328 -10.243
-10.238 -10.232  -1.216  -1.141  -1.059  -1.046  -0.967  -0.881
 -0.823  -0.756  -0.655  -0.602  -0.595  -0.561  -0.551  -0.533
 -0.517  -0.510  -0.502  -0.494  -0.463  -0.456  -0.447  -0.433
 -0.416  -0.401  -0.345  -0.344  -0.332  -0.330  -0.324  -0.297
 -- Virtual --
  0.062   0.071   0.083   0.088   0.095   0.101   0.111   0.123
  0.127   0.132   0.134   0.145   0.153   0.154   0.161   0.168
  0.181   0.186   0.188   0.191   0.194   0.203   0.219   0.223
  0.228   0.241   0.246   0.253   0.262   0.269   0.272   0.279
  0.282   0.290   0.293   0.305   0.310   0.312   0.318   0.323
  0.331   0.333   0.342   0.353   0.357   0.360   0.369   0.371
  0.379   0.379   0.389   0.393   0.397   0.405   0.406   0.413
  0.420   0.427   0.435   0.439   0.444   0.448   0.457   0.459
  0.461   0.471   0.478   0.486   0.490   0.493   0.494   0.501
  0.512   0.517   0.529   0.530   0.533   0.543   0.548   0.551
  0.559   0.566   0.574   0.581   0.584   0.593   0.596   0.601
  0.606   0.615   0.618   0.629   0.633   0.641   0.648   0.653
  0.662   0.670   0.672   0.684   0.691   0.698   0.706   0.714
  0.719   0.723   0.736   0.738   0.754   0.758   0.772   0.774
  0.783   0.787   0.792   0.800   0.806   0.811   0.817   0.823
  0.827   0.833   0.835   0.840   0.854   0.859   0.864   0.873
  0.879   0.884   0.887   0.896   0.906   0.926   0.930   0.937
  0.946   0.961   0.965   0.982   0.994   1.003   1.016   1.022
  1.044   1.053   1.065   1.076   1.085   1.095   1.111   1.124
  1.140   1.161   1.168   1.177   1.189   1.199   1.211   1.217
  1.230   1.235   1.241   1.262   1.285   1.290   1.314   1.318
  1.336   1.362   1.388   1.406   1.422   1.435   1.437   1.460
  1.474   1.479   1.495   1.514   1.525   1.554   1.586   1.593
  1.610   1.631   1.662   1.674   1.713   1.753   1.767   1.811
  1.833   1.852   1.861   1.888   1.932   1.935   1.951   1.961
  1.972   1.978   1.986   1.992   2.002   2.009   2.035   2.046
  2.052   2.060   2.079   2.114   2.119   2.138   2.179   2.188
  2.197   2.214   2.241   2.259   2.267   2.283   2.286   2.304
  2.318   2.332   2.345   2.371   2.394   2.398   2.416   2.433
  2.465   2.485   2.490   2.510   2.530   2.542   2.566   2.578
  2.621   2.634   2.655   2.670   2.684   2.708   2.724   2.732
  2.760   2.781   2.798   2.834   2.858   2.898   2.905   2.915
  2.931   2.948   2.966   2.980   3.004   3.024   3.026   3.046
  3.052   3.075   3.097   3.108   3.129   3.152   3.163   3.181
  3.219   3.260   3.266   3.282   3.308   3.328   3.353   3.366
  3.389   3.401   3.438   3.464   3.475   3.490   3.511   3.521
  3.532   3.539   3.553   3.569   3.576   3.583   3.608   3.627
  3.641   3.660   3.667   3.679   3.693   3.712   3.716   3.728
  3.748   3.767   3.774   3.784   3.797   3.815   3.835   3.839
  3.857   3.903   3.939   3.950   3.980   4.033   4.082   4.095
  4.135   4.153   4.189   4.250   4.286   4.297   4.328   4.355
  4.429   4.468   4.493   4.595   4.650   4.674   4.700   4.721
  4.792   4.824   4.827   4.846   4.853   4.918   4.952   4.990
  5.059   5.113   5.128   5.202   5.255   5.301   5.327   5.337
  5.366   5.384   5.389   5.409   5.417   5.502   5.526   5.561
  5.617   5.648   5.718   5.718   5.733   5.775   5.786   5.831
  5.998   6.015   6.046   6.104   6.224   6.240   6.246   6.317
  6.339   6.355   6.411   6.608   6.620   6.639   6.674   6.703
  6.710   6.756   6.770   6.799   6.816   6.904   6.961   6.973
  7.014   7.051   7.070   7.177   7.196   7.243   7.259   7.303
  7.366   7.399   7.405   7.413   7.533   7.617   8.334  22.745
 22.911  22.971  23.130  23.740  44.215  44.281  44.429  44.593
 44.702
 --------------------------------------------------------------
 
          Ground-State Mulliken Net Atomic Charges

     Atom                 Charge (a.u.)
  ----------------------------------------
      1 C                    -0.200045
      2 C                    -0.019691
      3 O                    -0.716871
      4 O                    -0.692016
      5 C                    -0.235265
      6 H                     0.189802
      7 H                     0.202234
      8 C                     1.060700
      9 H                     0.129987
     10 H                     0.223913
     11 C                    -1.293981
     12 H                     0.262622
     13 H                     0.235395
     14 H                     0.245652
     15 O                    -0.980457
     16 O                    -0.274042
     17 O                    -0.491003
     18 H                     0.353065
  ----------------------------------------
  Sum of atomic charges =    -2.000000

 -----------------------------------------------------------------
                    Cartesian Multipole Moments
 -----------------------------------------------------------------
    Charge (ESU x 10^10)
                -9.6064
    Dipole Moment (Debye)
         X      -6.5178      Y      -8.5661      Z       4.9687
       Tot      11.8553
    Quadrupole Moments (Debye-Ang)
        XX     -74.5641     XY       6.2644     YY    -113.4686
        XZ      -0.6862     YZ      36.2066     ZZ    -125.2486
    Octopole Moments (Debye-Ang^2)
       XXX     -50.3515    XXY     -31.2719    XYY     -12.7129
       YYY    -195.2953    XXZ       7.2702    XYZ       4.3182
       YYZ      91.1171    XZZ     -49.7827    YZZ    -126.8563
       ZZZ      68.8648
    Hexadecapole Moments (Debye-Ang^3)
      XXXX    -345.9866   XXXY      12.1879   XXYY    -255.5608
      XYYY      83.6385   YYYY   -1473.6912   XXXZ     -19.9463
      XXYZ     156.6675   XYYZ     -31.4045   YYYZ     716.5086
      XXZZ    -334.7193   XYZZ     -20.4203   YYZZ    -652.5874
      XZZZ       9.4294   YZZZ     640.1647   ZZZZ   -1909.9885
 -----------------------------------------------------------------
 Calculating analytic gradient of the SCF energy
 Gradient of SCF Energy
            1           2           3           4           5           6
    1  -0.0570247   0.0051122   0.0211531  -0.0369162   0.1781451   0.0429023
    2   0.0412342   0.0066187  -0.0469066   0.0223297  -0.0733008   0.0065071
    3   0.0759083  -0.0464489   0.0166168   0.0419487  -0.0677693   0.0060760
            7           8           9          10          11          12
    1  -0.0199103  -0.0817181  -0.0675988   0.0150049  -0.0926259   0.0372693
    2  -0.0423315   0.0648624  -0.0178901   0.0426692  -0.0134422  -0.0687823
    3  -0.0357725  -0.0154148  -0.0090498   0.0357211   0.0136807   0.0112199
           13          14          15          16          17          18
    1   0.0141656   0.0090895   0.0117287   0.0054576   0.0237097  -0.0079440
    2   0.0302853   0.0513203  -0.0041249   0.0091775  -0.0505231   0.0422970
    3  -0.0730159   0.0593926  -0.0079793  -0.0391876   0.0119701   0.0221038
 Max gradient component =       1.781E-01
 RMS gradient           =       4.740E-02
 Computing fast CPCM-ISWIG gradient
 Updating gradient with PCM contributions...
 -- total gradient after adding PCM contribution --
---------------------------------------------------
  Atom         X              Y              Z     
---------------------------------------------------
   1       0.001040      -0.000008       0.000021
   2      -0.000174      -0.000032       0.000019
   3       0.000029       0.000038      -0.000018
   4       0.000004       0.000007       0.000072
   5      -0.000198       0.000107      -0.000021
   6      -0.000567      -0.000079       0.000000
   7      -0.000101      -0.000058      -0.000072
   8       0.000023      -0.000009       0.000007
   9      -0.000030       0.000053      -0.000011
  10      -0.000003      -0.000015       0.000006
  11      -0.000013      -0.000017      -0.000002
  12       0.000001       0.000001       0.000004
  13       0.000002      -0.000002      -0.000001
  14      -0.000004       0.000005      -0.000002
  15      -0.000005       0.000012       0.000005
  16       0.000002      -0.000004       0.000005
  17      -0.000009      -0.000018      -0.000022
  18       0.000002       0.000019       0.000010
---------------------------------------------------
 Number of fixed atoms: 0
 Gradient time:  CPU 894.34 s  wall 63.78 s
 ----------------------------------------------------------------
             Standard Nuclear Orientation (Angstroms)
    I     Atom           X                Y                Z
 ----------------------------------------------------------------
    1      C      -0.1938844863     1.3973619412    -0.7596306468
    2      C       0.1457635710     2.1165092271    -2.0766588226
    3      O      -0.4360153634     3.2217499175    -2.2635545849
    4      O       0.9550017147     1.5808109696    -2.8760813664
    5      C       0.5468369488     0.0882546846    -0.5057672717
    6      H      -1.2771715235     1.2369608497    -0.7666866350
    7      H      -0.0029472380     2.1091997315     0.0511056504
    8      C       0.2408523803    -0.6232818498     0.8195308838
    9      H       1.6285082447     0.2589472588    -0.5285063144
   10      H       0.3208523215    -0.6246726777    -1.3073351488
   11      C      -1.2427061144    -0.9850170876     0.9744246225
   12      H      -1.8988222861    -0.1150403973     0.8775378654
   13      H      -1.3970267861    -1.4341149928     1.9599944137
   14      H      -1.5201883496    -1.7202935753     0.2116197348
   15      O       1.0517660748    -1.6635896798     1.0649226578
   16      O       0.5250252117     0.4489185285     1.8603502138
   17      O       0.8656981546    -0.2707558648     3.0511539665
   18      H       1.1621288065    -1.1132212080     2.5696364718
 ----------------------------------------------------------------
 Nuclear Repulsion Energy =   546.6902031631 hartrees
 There are       40 alpha and       40 beta electrons
 Discretize the solute cavity surface with Lebedev spheres
	Using 110 Lebedev grid points for each H atom
	Using 110 Lebedev grid points for other atoms
	Atomic van der Waals radii will be scaled by 1.20
 Remove points where switching function is < 1.0e-08
 Keep 1042 surface tesserae and discard 938 interior tesserae
 Molecular Surface Area = 185.662 Angst**2
 Requested basis set is def2-TZVPD
 There are 175 shells and 457 basis functions
 A cutoff of  1.0D-14 yielded  14086 shell pairs
 There are     96040 function pairs (    122165 Cartesian)
 Smallest overlap matrix eigenvalue = 2.65E-06
 Guess MOs from SCF MO coefficient file
 Reading MOs from coefficient file
 Reading MOs from coefficient file
 Long-range K will be added via erf
 Coulomb attenuation parameter = 0.3 bohr**(-1)
 A restricted hybrid HF-DFT SCF calculation will be
 performed using Pulay DIIS extrapolation
 Polarizable Continuum solvation model will be applied
 Exchange:     0.1670 Hartree-Fock + 1.0000 wB97X-V + LR-HF
 Correlation:  1.0000 wB97X-V
 Using SG-2 standard quadrature grid
 Nonlocal Correlation:  VV10 with C = 0.0100 and b = 6.00
 Grid used for NLC:  SG-1 standard quadrature
 SCF converges when DIIS error is below 1.0E-08
Using Q-Chem read-in guess as SCF_GUESS READ specified.

 using 16 threads for integral computing
 -------------------------------------------------------
 OpenMP Integral computing Module                
 Release: version 1.0, May 2013, Q-Chem Inc. Pittsburgh 
 -------------------------------------------------------
 using 16 threads for integral computing
 -------------------------------------------------------
 OpenMP Integral computing Module                
 Release: version 1.0, May 2013, Q-Chem Inc. Pittsburgh 
 -------------------------------------------------------
 -------------------------------------------------------
 OpenMP BLAS3 based DFT computing Module                
 Release: version 1.0, May 2013, Q-Chem Inc. Pittsburgh 
 -------------------------------------------------------
 -------------------------------------------------------
 OpenMP BLAS3 based DFT computing Module                
 Release: version 1.0, May 2013, Q-Chem Inc. Pittsburgh 
 -------------------------------------------------------
 -------------------------------------------------------
 OpenMP BLAS3 based DFT computing Module                
 Release: version 1.0, May 2013, Q-Chem Inc. Pittsburgh 
 -------------------------------------------------------
 ---------------------------------------
  Cycle       Energy         DIIS Error
 ---------------------------------------
    1    -571.4276955877      2.98E-04
    2    -571.7220120302      3.14E-04
    3    -571.7256986292      1.47E-04
    4    -571.7263036112      1.08E-04
    5    -571.7267025982      8.06E-05
    6    -571.7269515192      5.86E-05
    7    -571.7271506524      3.12E-05
    8    -571.7272167303      1.26E-05
    9    -571.7272289681      2.62E-06
   10    -571.7272294881      6.51E-07
   11    -571.7272295173      1.15E-07
   12    -571.7272295181      3.06E-08
   13    -571.7272295182      8.94E-09 Convergence criterion met
 ---------------------------------------

************** Final PCM Free Energy Summary **************
 G_electrostatic  =      -0.30016020 hartree =    -188.35337088 kcal/mol
 G_cavitation     =       0.00000000 hartree =       0.00000000 kcal/mol
 G_dispersion     =       0.00000000 hartree =       0.00000000 kcal/mol
 G_repulsion      =       0.00000000 hartree =       0.00000000 kcal/mol
 --------------------------------------------------
 Non-electrostatic Free Energy =       0.00000000 hartree =       0.00000000 kcal/mol
 Total                         =      -0.30016020 hartree =    -188.35337088 kcal/mol
 --------------------------------------------------
 SCF Energy (H0 + V/2)                       =    -571.72722952 
 Solute Internal Energy (H0)                 =    -571.42706931 
 Total Free Energy (H0 + V/2 + non-elec)     =    -571.72722952 hartree
                                             = -358764.25135125 kcal/mol
***********************************************************

 SCF time:  CPU 3317.46 s  wall 235.09 s
 SCF   energy in the final basis set = -571.72722952
 Total energy in the final basis set = -571.72722952
 
 --------------------------------------------------------------
 
                    Orbital Energies (a.u.)
 --------------------------------------------------------------
 
 Alpha MOs
 -- Occupied --
-19.224 -19.220 -19.139 -19.135 -19.114 -10.338 -10.328 -10.243
-10.238 -10.232  -1.216  -1.141  -1.059  -1.046  -0.967  -0.881
 -0.823  -0.756  -0.655  -0.602  -0.595  -0.561  -0.551  -0.533
 -0.517  -0.510  -0.502  -0.494  -0.463  -0.456  -0.447  -0.433
 -0.416  -0.401  -0.345  -0.344  -0.332  -0.330  -0.324  -0.297
 -- Virtual --
  0.062   0.071   0.083   0.088   0.095   0.101   0.111   0.123
  0.127   0.132   0.134   0.145   0.153   0.154   0.161   0.168
  0.181   0.186   0.188   0.191   0.194   0.203   0.219   0.223
  0.228   0.240   0.246   0.253   0.262   0.269   0.272   0.279
  0.282   0.290   0.293   0.305   0.310   0.312   0.318   0.324
  0.331   0.333   0.342   0.353   0.357   0.360   0.369   0.371
  0.379   0.379   0.389   0.393   0.397   0.405   0.406   0.413
  0.420   0.427   0.435   0.439   0.444   0.448   0.457   0.459
  0.461   0.471   0.478   0.486   0.490   0.493   0.494   0.501
  0.512   0.517   0.529   0.530   0.533   0.543   0.548   0.551
  0.559   0.566   0.574   0.581   0.584   0.593   0.596   0.601
  0.607   0.615   0.618   0.629   0.633   0.641   0.648   0.653
  0.662   0.670   0.672   0.683   0.691   0.698   0.706   0.714
  0.719   0.723   0.736   0.738   0.754   0.758   0.772   0.774
  0.782   0.787   0.792   0.800   0.806   0.811   0.817   0.823
  0.827   0.833   0.835   0.840   0.854   0.859   0.864   0.873
  0.879   0.884   0.887   0.896   0.906   0.926   0.930   0.937
  0.946   0.961   0.965   0.982   0.994   1.003   1.016   1.022
  1.044   1.053   1.065   1.076   1.084   1.094   1.111   1.124
  1.140   1.161   1.168   1.177   1.189   1.199   1.211   1.217
  1.230   1.235   1.241   1.262   1.285   1.290   1.313   1.318
  1.336   1.362   1.388   1.406   1.422   1.435   1.436   1.460
  1.474   1.479   1.495   1.514   1.525   1.554   1.586   1.593
  1.610   1.630   1.662   1.674   1.713   1.753   1.767   1.811
  1.833   1.852   1.861   1.888   1.932   1.935   1.951   1.961
  1.972   1.978   1.986   1.992   2.002   2.009   2.035   2.046
  2.052   2.059   2.079   2.114   2.119   2.138   2.179   2.188
  2.197   2.214   2.241   2.259   2.267   2.282   2.286   2.304
  2.318   2.332   2.345   2.371   2.394   2.398   2.416   2.433
  2.465   2.485   2.490   2.510   2.530   2.542   2.566   2.578
  2.621   2.634   2.655   2.670   2.684   2.708   2.724   2.732
  2.760   2.781   2.799   2.834   2.858   2.898   2.905   2.914
  2.931   2.948   2.966   2.980   3.004   3.024   3.026   3.046
  3.052   3.074   3.097   3.108   3.129   3.152   3.163   3.181
  3.218   3.260   3.266   3.282   3.308   3.328   3.353   3.366
  3.389   3.401   3.438   3.464   3.475   3.490   3.511   3.520
  3.532   3.539   3.553   3.569   3.576   3.583   3.608   3.627
  3.641   3.660   3.667   3.679   3.693   3.712   3.716   3.728
  3.748   3.767   3.774   3.784   3.796   3.815   3.835   3.839
  3.857   3.903   3.939   3.950   3.980   4.034   4.082   4.095
  4.134   4.153   4.188   4.250   4.286   4.296   4.328   4.355
  4.429   4.467   4.493   4.595   4.649   4.674   4.700   4.721
  4.792   4.824   4.827   4.846   4.853   4.918   4.952   4.989
  5.059   5.112   5.128   5.202   5.255   5.300   5.327   5.337
  5.366   5.384   5.389   5.409   5.417   5.502   5.526   5.561
  5.617   5.648   5.718   5.718   5.733   5.775   5.786   5.831
  5.998   6.015   6.046   6.104   6.224   6.240   6.246   6.317
  6.339   6.355   6.411   6.608   6.620   6.639   6.674   6.703
  6.710   6.756   6.770   6.799   6.816   6.904   6.961   6.973
  7.014   7.051   7.070   7.177   7.196   7.243   7.259   7.303
  7.366   7.399   7.405   7.413   7.533   7.617   8.334  22.745
 22.912  22.971  23.130  23.740  44.215  44.281  44.428  44.593
 44.702
 --------------------------------------------------------------
 
          Ground-State Mulliken Net Atomic Charges

     Atom                 Charge (a.u.)
  ----------------------------------------
      1 C                    -0.200934
      2 C                    -0.018770
      3 O                    -0.716773
      4 O                    -0.691920
      5 C                    -0.237204
      6 H                     0.191484
      7 H                     0.201545
      8 C                     1.060966
      9 H                     0.130179
     10 H                     0.224189
     11 C                    -1.293808
     12 H                     0.262610
     13 H                     0.235352
     14 H                     0.245635
     15 O                    -0.980473
     16 O                    -0.274086
     17 O                    -0.491009
     18 H                     0.353016
  ----------------------------------------
  Sum of atomic charges =    -2.000000

 -----------------------------------------------------------------
                    Cartesian Multipole Moments
 -----------------------------------------------------------------
    Charge (ESU x 10^10)
                -9.6064
    Dipole Moment (Debye)
         X      -6.5193      Y      -8.5655      Z       4.9666
       Tot      11.8548
    Quadrupole Moments (Debye-Ang)
        XX     -74.5588     XY       6.2626     YY    -113.4733
        XZ      -0.6849     YZ      36.2060     ZZ    -125.2463
    Octopole Moments (Debye-Ang^2)
       XXX     -50.3298    XXY     -31.2660    XYY     -12.7075
       YYY    -195.3088    XXZ       7.2626    XYZ       4.3225
       YYZ      91.1205    XZZ     -49.7755    YZZ    -126.8519
       ZZZ      68.8373
    Hexadecapole Moments (Debye-Ang^3)
      XXXX    -345.9791   XXXY      12.2126   XXYY    -255.5605
      XYYY      83.6727   YYYY   -1473.7899   XXXZ     -19.9613
      XXYZ     156.6651   XYYZ     -31.4018   YYYZ     716.5502
      XXZZ    -334.7161   XYZZ     -20.4098   YYZZ    -652.6118
      XZZZ       9.3982   YZZZ     640.1501   ZZZZ   -1909.9233
 -----------------------------------------------------------------
 Calculating analytic gradient of the SCF energy
 Gradient of SCF Energy
            1           2           3           4           5           6
    1  -0.0587545   0.0054101   0.0211113  -0.0369405   0.1785740   0.0440870
    2   0.0411122   0.0067145  -0.0469313   0.0223348  -0.0736783   0.0066296
    3   0.0758691  -0.0466194   0.0166428   0.0418933  -0.0677134   0.0060411
            7           8           9          10          11          12
    1  -0.0198215  -0.0818651  -0.0676220   0.0149668  -0.0926267   0.0372778
    2  -0.0421613   0.0650543  -0.0179629   0.0427244  -0.0135113  -0.0687489
    3  -0.0356618  -0.0152387  -0.0091611   0.0357899   0.0136894   0.0112005
           13          14          15          16          17          18
    1   0.0141648   0.0090811   0.0117275   0.0054639   0.0237096  -0.0079436
    2   0.0302884   0.0513058  -0.0041250   0.0091802  -0.0505253   0.0423001
    3  -0.0730110   0.0593857  -0.0079909  -0.0391911   0.0119677   0.0221080
 Max gradient component =       1.786E-01
 RMS gradient           =       4.751E-02
 Computing fast CPCM-ISWIG gradient
 Updating gradient with PCM contributions...
 -- total gradient after adding PCM contribution --
---------------------------------------------------
  Atom         X              Y              Z     
---------------------------------------------------
   1      -0.001038       0.000004      -0.000028
   2       0.000162       0.000033      -0.000017
   3      -0.000021      -0.000038       0.000022
   4      -0.000001      -0.000005      -0.000063
   5       0.000237      -0.000093      -0.000012
   6       0.000574       0.000080       0.000001
   7       0.000097       0.000057       0.000077
   8       0.000009       0.000002       0.000039
   9       0.000028      -0.000059       0.000007
  10      -0.000015       0.000008       0.000000
  11      -0.000011      -0.000017      -0.000005
  12       0.000001       0.000004       0.000002
  13       0.000004      -0.000002      -0.000000
  14      -0.000004       0.000004      -0.000002
  15      -0.000017       0.000024      -0.000011
  16       0.000002      -0.000005       0.000006
  17      -0.000009      -0.000017      -0.000026
  18       0.000002       0.000020       0.000011
---------------------------------------------------
 Number of fixed atoms: 0
 Gradient time:  CPU 1097.64 s  wall 76.29 s
 ----------------------------------------------------------------
             Standard Nuclear Orientation (Angstroms)
    I     Atom           X                Y                Z
 ----------------------------------------------------------------
    1      C      -0.1928844863     1.3983619412    -0.7596306468
    2      C       0.1457635710     2.1165092271    -2.0766588226
    3      O      -0.4360153634     3.2217499175    -2.2635545849
    4      O       0.9550017147     1.5808109696    -2.8760813664
    5      C       0.5468369488     0.0882546846    -0.5057672717
    6      H      -1.2771715235     1.2369608497    -0.7666866350
    7      H      -0.0029472380     2.1091997315     0.0511056504
    8      C       0.2408523803    -0.6232818498     0.8195308838
    9      H       1.6285082447     0.2589472588    -0.5285063144
   10      H       0.3208523215    -0.6246726777    -1.3073351488
   11      C      -1.2427061144    -0.9850170876     0.9744246225
   12      H      -1.8988222861    -0.1150403973     0.8775378654
   13      H      -1.3970267861    -1.4341149928     1.9599944137
   14      H      -1.5201883496    -1.7202935753     0.2116197348
   15      O       1.0517660748    -1.6635896798     1.0649226578
   16      O       0.5250252117     0.4489185285     1.8603502138
   17      O       0.8656981546    -0.2707558648     3.0511539665
   18      H       1.1621288065    -1.1132212080     2.5696364718
 ----------------------------------------------------------------
 Nuclear Repulsion Energy =   546.6908276940 hartrees
 There are       40 alpha and       40 beta electrons
 Discretize the solute cavity surface with Lebedev spheres
	Using 110 Lebedev grid points for each H atom
	Using 110 Lebedev grid points for other atoms
	Atomic van der Waals radii will be scaled by 1.20
 Remove points where switching function is < 1.0e-08
 Keep 1042 surface tesserae and discard 938 interior tesserae
 Molecular Surface Area = 185.662 Angst**2
 Requested basis set is def2-TZVPD
 There are 175 shells and 457 basis functions
 A cutoff of  1.0D-14 yielded  14086 shell pairs
 There are     96040 function pairs (    122165 Cartesian)
 Smallest overlap matrix eigenvalue = 2.65E-06
 Guess MOs from SCF MO coefficient file
 Reading MOs from coefficient file
 Reading MOs from coefficient file
 Long-range K will be added via erf
 Coulomb attenuation parameter = 0.3 bohr**(-1)
 A restricted hybrid HF-DFT SCF calculation will be
 performed using Pulay DIIS extrapolation
 Polarizable Continuum solvation model will be applied
 Exchange:     0.1670 Hartree-Fock + 1.0000 wB97X-V + LR-HF
 Correlation:  1.0000 wB97X-V
 Using SG-2 standard quadrature grid
 Nonlocal Correlation:  VV10 with C = 0.0100 and b = 6.00
 Grid used for NLC:  SG-1 standard quadrature
 SCF converges when DIIS error is below 1.0E-08
Using Q-Chem read-in guess as SCF_GUESS READ specified.

 using 16 threads for integral computing
 -------------------------------------------------------
 OpenMP Integral computing Module                
 Release: version 1.0, May 2013, Q-Chem Inc. Pittsburgh 
 -------------------------------------------------------
 using 16 threads for integral computing
 -------------------------------------------------------
 OpenMP Integral computing Module                
 Release: version 1.0, May 2013, Q-Chem Inc. Pittsburgh 
 -------------------------------------------------------
 -------------------------------------------------------
 OpenMP BLAS3 based DFT computing Module                
 Release: version 1.0, May 2013, Q-Chem Inc. Pittsburgh 
 -------------------------------------------------------
 -------------------------------------------------------
 OpenMP BLAS3 based DFT computing Module                
 Release: version 1.0, May 2013, Q-Chem Inc. Pittsburgh 
 -------------------------------------------------------
 -------------------------------------------------------
 OpenMP BLAS3 based DFT computing Module                
 Release: version 1.0, May 2013, Q-Chem Inc. Pittsburgh 
 -------------------------------------------------------
 ---------------------------------------
  Cycle       Energy         DIIS Error
 ---------------------------------------
    1    -571.4269511662      2.98E-04
    2    -571.7219990784      3.15E-04
    3    -571.7256941203      1.47E-04
    4    -571.7262991473      1.08E-04
    5    -571.7266923859      8.15E-05
    6    -571.7269163795      6.22E-05
    7    -571.7271031645      3.95E-05
    8    -571.7271971075      2.00E-05
    9    -571.7272270700      5.57E-06
   10    -571.7272294048      1.41E-06
   11    -571.7272295546      2.21E-07
   12    -571.7272295580      4.16E-08
   13    -571.7272295581      9.72E-09 Convergence criterion met
 ---------------------------------------

************** Final PCM Free Energy Summary **************
 G_electrostatic  =      -0.30016018 hartree =    -188.35335793 kcal/mol
 G_cavitation     =       0.00000000 hartree =       0.00000000 kcal/mol
 G_dispersion     =       0.00000000 hartree =       0.00000000 kcal/mol
 G_repulsion      =       0.00000000 hartree =       0.00000000 kcal/mol
 --------------------------------------------------
 Non-electrostatic Free Energy =       0.00000000 hartree =       0.00000000 kcal/mol
 Total                         =      -0.30016018 hartree =    -188.35335793 kcal/mol
 --------------------------------------------------
 SCF Energy (H0 + V/2)                       =    -571.72722956 
 Solute Internal Energy (H0)                 =    -571.42706937 
 Total Free Energy (H0 + V/2 + non-elec)     =    -571.72722956 hartree
                                             = -358764.25137632 kcal/mol
***********************************************************

 SCF time:  CPU 3302.16 s  wall 234.06 s
 SCF   energy in the final basis set = -571.72722956
 Total energy in the final basis set = -571.72722956
 
 --------------------------------------------------------------
 
                    Orbital Energies (a.u.)
 --------------------------------------------------------------
 
 Alpha MOs
 -- Occupied --
-19.224 -19.220 -19.139 -19.135 -19.114 -10.338 -10.328 -10.243
-10.238 -10.232  -1.216  -1.141  -1.059  -1.046  -0.967  -0.881
 -0.823  -0.756  -0.655  -0.602  -0.595  -0.561  -0.551  -0.533
 -0.517  -0.510  -0.502  -0.494  -0.463  -0.456  -0.447  -0.433
 -0.416  -0.401  -0.345  -0.344  -0.332  -0.330  -0.324  -0.297
 -- Virtual --
  0.062   0.071   0.083   0.088   0.095   0.101   0.111   0.123
  0.127   0.132   0.134   0.145   0.153   0.154   0.161   0.168
  0.181   0.186   0.188   0.191   0.194   0.203   0.219   0.223
  0.228   0.240   0.246   0.253   0.262   0.269   0.272   0.279
  0.283   0.290   0.293   0.305   0.310   0.312   0.318   0.323
  0.331   0.333   0.342   0.353   0.357   0.360   0.369   0.371
  0.379   0.379   0.389   0.393   0.397   0.405   0.407   0.413
  0.420   0.427   0.435   0.439   0.444   0.448   0.457   0.459
  0.461   0.471   0.478   0.486   0.490   0.493   0.494   0.501
  0.512   0.517   0.529   0.530   0.533   0.543   0.548   0.551
  0.559   0.567   0.574   0.581   0.584   0.593   0.596   0.601
  0.607   0.615   0.618   0.629   0.633   0.641   0.648   0.653
  0.662   0.670   0.672   0.683   0.691   0.698   0.706   0.714
  0.719   0.723   0.736   0.738   0.754   0.758   0.772   0.774
  0.783   0.787   0.792   0.800   0.806   0.811   0.817   0.823
  0.827   0.833   0.835   0.840   0.854   0.859   0.864   0.873
  0.879   0.884   0.887   0.896   0.906   0.926   0.930   0.937
  0.946   0.961   0.965   0.982   0.994   1.002   1.016   1.022
  1.044   1.053   1.065   1.076   1.085   1.095   1.111   1.124
  1.140   1.161   1.168   1.177   1.189   1.199   1.211   1.217
  1.230   1.235   1.241   1.262   1.285   1.290   1.313   1.318
  1.336   1.362   1.388   1.406   1.422   1.435   1.436   1.460
  1.474   1.479   1.495   1.514   1.525   1.554   1.586   1.593
  1.610   1.630   1.662   1.674   1.713   1.753   1.767   1.811
  1.833   1.852   1.861   1.888   1.932   1.935   1.951   1.961
  1.971   1.978   1.986   1.992   2.002   2.009   2.035   2.046
  2.052   2.059   2.079   2.114   2.119   2.138   2.179   2.188
  2.197   2.215   2.241   2.259   2.267   2.283   2.286   2.305
  2.318   2.332   2.345   2.371   2.394   2.398   2.416   2.433
  2.465   2.485   2.490   2.510   2.530   2.542   2.566   2.578
  2.621   2.634   2.655   2.670   2.684   2.708   2.724   2.732
  2.760   2.781   2.798   2.834   2.858   2.898   2.905   2.914
  2.931   2.948   2.966   2.980   3.004   3.024   3.026   3.046
  3.052   3.074   3.097   3.109   3.129   3.152   3.163   3.181
  3.218   3.260   3.266   3.282   3.308   3.328   3.353   3.366
  3.389   3.401   3.438   3.464   3.475   3.490   3.511   3.521
  3.532   3.539   3.553   3.569   3.576   3.583   3.608   3.627
  3.641   3.660   3.666   3.679   3.693   3.712   3.715   3.728
  3.748   3.767   3.774   3.784   3.797   3.815   3.835   3.839
  3.857   3.903   3.939   3.950   3.980   4.033   4.082   4.095
  4.134   4.153   4.188   4.250   4.286   4.297   4.328   4.355
  4.429   4.467   4.493   4.595   4.649   4.674   4.700   4.721
  4.792   4.824   4.827   4.845   4.853   4.918   4.952   4.989
  5.059   5.112   5.128   5.202   5.255   5.300   5.327   5.337
  5.366   5.384   5.389   5.409   5.417   5.503   5.526   5.561
  5.617   5.648   5.718   5.718   5.733   5.775   5.786   5.831
  5.998   6.015   6.046   6.104   6.224   6.240   6.246   6.317
  6.339   6.355   6.411   6.608   6.620   6.639   6.674   6.703
  6.710   6.756   6.770   6.799   6.816   6.904   6.961   6.973
  7.014   7.051   7.070   7.177   7.196   7.243   7.259   7.303
  7.366   7.399   7.405   7.413   7.532   7.617   8.334  22.745
 22.911  22.971  23.130  23.740  44.215  44.281  44.429  44.593
 44.702
 --------------------------------------------------------------
 
          Ground-State Mulliken Net Atomic Charges

     Atom                 Charge (a.u.)
  ----------------------------------------
      1 C                    -0.200195
      2 C                    -0.019219
      3 O                    -0.716817
      4 O                    -0.691977
      5 C                    -0.237991
      6 H                     0.190553
      7 H                     0.202396
      8 C                     1.061329
      9 H                     0.130327
     10 H                     0.224367
     11 C                    -1.293834
     12 H                     0.262648
     13 H                     0.235322
     14 H                     0.245636
     15 O                    -0.980456
     16 O                    -0.274112
     17 O                    -0.491009
     18 H                     0.353033
  ----------------------------------------
  Sum of atomic charges =    -2.000000

 -----------------------------------------------------------------
                    Cartesian Multipole Moments
 -----------------------------------------------------------------
    Charge (ESU x 10^10)
                -9.6064
    Dipole Moment (Debye)
         X      -6.5186      Y      -8.5655      Z       4.9685
       Tot      11.8552
    Quadrupole Moments (Debye-Ang)
        XX     -74.5621     XY       6.2649     YY    -113.4714
        XZ      -0.6864     YZ      36.2094     ZZ    -125.2490
    Octopole Moments (Debye-Ang^2)
       XXX     -50.3409    XXY     -31.2735    XYY     -12.7049
       YYY    -195.3222    XXZ       7.2659    XYZ       4.3167
       YYZ      91.1301    XZZ     -49.7756    YZZ    -126.8654
       ZZZ      68.8558
    Hexadecapole Moments (Debye-Ang^3)
      XXXX    -345.9886   XXXY      12.2087   XXYY    -255.5752
      XYYY      83.6742   YYYY   -1473.8552   XXXZ     -19.9566
      XXYZ     156.6702   XYYZ     -31.4145   YYYZ     716.5868
      XXZZ    -334.7154   XYZZ     -20.4034   YYZZ    -652.6435
      XZZZ       9.3995   YZZZ     640.1961   ZZZZ   -1909.9787
 -----------------------------------------------------------------
 Calculating analytic gradient of the SCF energy
 Gradient of SCF Energy
            1           2           3           4           5           6
    1  -0.0575966   0.0052457   0.0211384  -0.0369273   0.1782419   0.0434073
    2   0.0417946   0.0064929  -0.0469315   0.0223568  -0.0737862   0.0066162
    3   0.0759900  -0.0464450   0.0166569   0.0419187  -0.0676734   0.0060192
            7           8           9          10          11          12
    1  -0.0199415  -0.0818116  -0.0676485   0.0150368  -0.0926187   0.0372672
    2  -0.0424828   0.0649994  -0.0179551   0.0426937  -0.0134585  -0.0687782
    3  -0.0360617  -0.0152592  -0.0090858   0.0357731   0.0136847   0.0112147
           13          14          15          16          17          18
    1   0.0141676   0.0090866   0.0117278   0.0054579   0.0237108  -0.0079439
    2   0.0302903   0.0513188  -0.0041258   0.0091837  -0.0505243   0.0422959
    3  -0.0730158   0.0593845  -0.0079825  -0.0391926   0.0119671   0.0221071
 Max gradient component =       1.782E-01
 RMS gradient           =       4.747E-02
 Computing fast CPCM-ISWIG gradient
 Updating gradient with PCM contributions...
 -- total gradient after adding PCM contribution --
---------------------------------------------------
  Atom         X              Y              Z     
---------------------------------------------------
   1      -0.000003       0.000993       0.000078
   2      -0.000037      -0.000186       0.000059
   3       0.000018      -0.000059       0.000078
   4       0.000026       0.000025      -0.000012
   5       0.000124      -0.000317       0.000004
   6      -0.000078      -0.000100       0.000004
   7      -0.000059      -0.000294      -0.000240
   8       0.000026      -0.000028       0.000033
   9      -0.000005       0.000004      -0.000003
  10       0.000015      -0.000041       0.000011
  11      -0.000014      -0.000016      -0.000004
  12       0.000001       0.000001       0.000004
  13       0.000004      -0.000001      -0.000001
  14      -0.000003       0.000004      -0.000002
  15      -0.000011       0.000019      -0.000001
  16       0.000002      -0.000004       0.000007
  17      -0.000009      -0.000019      -0.000027
  18       0.000002       0.000019       0.000011
---------------------------------------------------
 Number of fixed atoms: 0
 Gradient time:  CPU 893.57 s  wall 63.83 s
 ----------------------------------------------------------------
             Standard Nuclear Orientation (Angstroms)
    I     Atom           X                Y                Z
 ----------------------------------------------------------------
    1      C      -0.1928844863     1.3963619412    -0.7596306468
    2      C       0.1457635710     2.1165092271    -2.0766588226
    3      O      -0.4360153634     3.2217499175    -2.2635545849
    4      O       0.9550017147     1.5808109696    -2.8760813664
    5      C       0.5468369488     0.0882546846    -0.5057672717
    6      H      -1.2771715235     1.2369608497    -0.7666866350
    7      H      -0.0029472380     2.1091997315     0.0511056504
    8      C       0.2408523803    -0.6232818498     0.8195308838
    9      H       1.6285082447     0.2589472588    -0.5285063144
   10      H       0.3208523215    -0.6246726777    -1.3073351488
   11      C      -1.2427061144    -0.9850170876     0.9744246225
   12      H      -1.8988222861    -0.1150403973     0.8775378654
   13      H      -1.3970267861    -1.4341149928     1.9599944137
   14      H      -1.5201883496    -1.7202935753     0.2116197348
   15      O       1.0517660748    -1.6635896798     1.0649226578
   16      O       0.5250252117     0.4489185285     1.8603502138
   17      O       0.8656981546    -0.2707558648     3.0511539665
   18      H       1.1621288065    -1.1132212080     2.5696364718
 ----------------------------------------------------------------
 Nuclear Repulsion Energy =   546.7037957741 hartrees
 There are       40 alpha and       40 beta electrons
 Discretize the solute cavity surface with Lebedev spheres
	Using 110 Lebedev grid points for each H atom
	Using 110 Lebedev grid points for other atoms
	Atomic van der Waals radii will be scaled by 1.20
 Remove points where switching function is < 1.0e-08
 Keep 1042 surface tesserae and discard 938 interior tesserae
 Molecular Surface Area = 185.664 Angst**2
 Requested basis set is def2-TZVPD
 There are 175 shells and 457 basis functions
 A cutoff of  1.0D-14 yielded  14086 shell pairs
 There are     96040 function pairs (    122165 Cartesian)
 Smallest overlap matrix eigenvalue = 2.64E-06
 Guess MOs from SCF MO coefficient file
 Reading MOs from coefficient file
 Reading MOs from coefficient file
 Long-range K will be added via erf
 Coulomb attenuation parameter = 0.3 bohr**(-1)
 A restricted hybrid HF-DFT SCF calculation will be
 performed using Pulay DIIS extrapolation
 Polarizable Continuum solvation model will be applied
 Exchange:     0.1670 Hartree-Fock + 1.0000 wB97X-V + LR-HF
 Correlation:  1.0000 wB97X-V
 Using SG-2 standard quadrature grid
 Nonlocal Correlation:  VV10 with C = 0.0100 and b = 6.00
 Grid used for NLC:  SG-1 standard quadrature
 SCF converges when DIIS error is below 1.0E-08
Using Q-Chem read-in guess as SCF_GUESS READ specified.

 using 16 threads for integral computing
 -------------------------------------------------------
 OpenMP Integral computing Module                
 Release: version 1.0, May 2013, Q-Chem Inc. Pittsburgh 
 -------------------------------------------------------
 using 16 threads for integral computing
 -------------------------------------------------------
 OpenMP Integral computing Module                
 Release: version 1.0, May 2013, Q-Chem Inc. Pittsburgh 
 -------------------------------------------------------
 -------------------------------------------------------
 OpenMP BLAS3 based DFT computing Module                
 Release: version 1.0, May 2013, Q-Chem Inc. Pittsburgh 
 -------------------------------------------------------
 -------------------------------------------------------
 OpenMP BLAS3 based DFT computing Module                
 Release: version 1.0, May 2013, Q-Chem Inc. Pittsburgh 
 -------------------------------------------------------
 -------------------------------------------------------
 OpenMP BLAS3 based DFT computing Module                
 Release: version 1.0, May 2013, Q-Chem Inc. Pittsburgh 
 -------------------------------------------------------
 ---------------------------------------
  Cycle       Energy         DIIS Error
 ---------------------------------------
    1    -571.4266953242      2.98E-04
    2    -571.7219964380      3.15E-04
    3    -571.7256970880      1.47E-04
    4    -571.7263044088      1.08E-04
    5    -571.7267068558      8.03E-05
    6    -571.7269562917      5.81E-05
    7    -571.7271542466      3.05E-05
    8    -571.7272175783      1.22E-05
    9    -571.7272290542      2.49E-06
   10    -571.7272295249      6.12E-07
   11    -571.7272295504      1.09E-07
   12    -571.7272295511      3.07E-08
   13    -571.7272295511      9.29E-09 Convergence criterion met
 ---------------------------------------

************** Final PCM Free Energy Summary **************
 G_electrostatic  =      -0.30015661 hartree =    -188.35111544 kcal/mol
 G_cavitation     =       0.00000000 hartree =       0.00000000 kcal/mol
 G_dispersion     =       0.00000000 hartree =       0.00000000 kcal/mol
 G_repulsion      =       0.00000000 hartree =       0.00000000 kcal/mol
 --------------------------------------------------
 Non-electrostatic Free Energy =       0.00000000 hartree =       0.00000000 kcal/mol
 Total                         =      -0.30015661 hartree =    -188.35111544 kcal/mol
 --------------------------------------------------
 SCF Energy (H0 + V/2)                       =    -571.72722955 
 Solute Internal Energy (H0)                 =    -571.42707294 
 Total Free Energy (H0 + V/2 + non-elec)     =    -571.72722955 hartree
                                             = -358764.25137193 kcal/mol
***********************************************************

 SCF time:  CPU 3301.04 s  wall 234.20 s
 SCF   energy in the final basis set = -571.72722955
 Total energy in the final basis set = -571.72722955
 
 --------------------------------------------------------------
 
                    Orbital Energies (a.u.)
 --------------------------------------------------------------
 
 Alpha MOs
 -- Occupied --
-19.224 -19.220 -19.139 -19.135 -19.114 -10.338 -10.328 -10.243
-10.238 -10.232  -1.216  -1.141  -1.059  -1.046  -0.967  -0.881
 -0.823  -0.756  -0.655  -0.602  -0.595  -0.561  -0.551  -0.533
 -0.517  -0.510  -0.502  -0.494  -0.463  -0.456  -0.447  -0.433
 -0.416  -0.401  -0.345  -0.344  -0.332  -0.330  -0.324  -0.297
 -- Virtual --
  0.062   0.071   0.083   0.088   0.095   0.101   0.111   0.123
  0.127   0.132   0.134   0.145   0.153   0.154   0.161   0.168
  0.181   0.186   0.188   0.191   0.194   0.203   0.219   0.223
  0.228   0.241   0.246   0.253   0.262   0.269   0.272   0.279
  0.282   0.290   0.293   0.305   0.310   0.312   0.318   0.323
  0.330   0.333   0.342   0.353   0.357   0.360   0.369   0.371
  0.379   0.379   0.389   0.393   0.397   0.405   0.406   0.413
  0.420   0.427   0.435   0.439   0.444   0.448   0.457   0.459
  0.461   0.471   0.478   0.486   0.490   0.493   0.494   0.501
  0.512   0.517   0.529   0.530   0.533   0.543   0.548   0.551
  0.559   0.566   0.574   0.581   0.584   0.593   0.596   0.601
  0.606   0.615   0.618   0.629   0.633   0.641   0.648   0.653
  0.662   0.670   0.672   0.684   0.691   0.698   0.706   0.714
  0.719   0.723   0.736   0.738   0.754   0.758   0.772   0.774
  0.782   0.787   0.792   0.800   0.806   0.811   0.817   0.823
  0.827   0.833   0.835   0.840   0.854   0.859   0.864   0.873
  0.879   0.884   0.887   0.896   0.906   0.926   0.930   0.937
  0.946   0.961   0.965   0.982   0.994   1.003   1.016   1.022
  1.044   1.053   1.065   1.076   1.084   1.094   1.111   1.124
  1.140   1.161   1.168   1.177   1.189   1.199   1.211   1.217
  1.230   1.235   1.241   1.262   1.285   1.290   1.314   1.318
  1.336   1.362   1.388   1.406   1.422   1.435   1.437   1.460
  1.474   1.479   1.495   1.514   1.525   1.554   1.586   1.593
  1.610   1.631   1.662   1.674   1.713   1.753   1.767   1.811
  1.833   1.852   1.861   1.888   1.932   1.935   1.951   1.961
  1.972   1.978   1.986   1.992   2.002   2.009   2.034   2.046
  2.052   2.060   2.079   2.114   2.119   2.138   2.179   2.188
  2.197   2.214   2.241   2.259   2.267   2.282   2.286   2.304
  2.318   2.332   2.345   2.371   2.394   2.398   2.416   2.433
  2.465   2.485   2.490   2.510   2.530   2.542   2.566   2.578
  2.621   2.633   2.655   2.670   2.684   2.708   2.724   2.732
  2.760   2.780   2.798   2.835   2.858   2.898   2.905   2.915
  2.931   2.948   2.966   2.980   3.004   3.024   3.026   3.046
  3.052   3.074   3.097   3.108   3.129   3.152   3.163   3.181
  3.219   3.260   3.266   3.282   3.308   3.328   3.353   3.366
  3.389   3.401   3.438   3.464   3.475   3.490   3.511   3.520
  3.532   3.539   3.553   3.569   3.576   3.583   3.608   3.627
  3.641   3.660   3.667   3.679   3.693   3.712   3.716   3.728
  3.748   3.767   3.774   3.783   3.797   3.815   3.835   3.839
  3.857   3.903   3.939   3.950   3.980   4.033   4.082   4.095
  4.135   4.153   4.189   4.250   4.286   4.297   4.328   4.355
  4.429   4.467   4.494   4.595   4.650   4.674   4.700   4.722
  4.792   4.824   4.827   4.846   4.853   4.918   4.952   4.989
  5.059   5.113   5.128   5.202   5.255   5.301   5.327   5.337
  5.366   5.384   5.389   5.409   5.417   5.502   5.526   5.561
  5.617   5.648   5.718   5.718   5.733   5.775   5.786   5.831
  5.998   6.015   6.046   6.104   6.224   6.240   6.246   6.317
  6.339   6.355   6.411   6.608   6.620   6.639   6.674   6.703
  6.710   6.756   6.770   6.799   6.816   6.904   6.961   6.973
  7.014   7.051   7.070   7.177   7.196   7.243   7.259   7.303
  7.366   7.399   7.405   7.413   7.533   7.617   8.334  22.745
 22.912  22.971  23.130  23.739  44.215  44.281  44.428  44.593
 44.702
 --------------------------------------------------------------
 
          Ground-State Mulliken Net Atomic Charges

     Atom                 Charge (a.u.)
  ----------------------------------------
      1 C                    -0.200780
      2 C                    -0.019239
      3 O                    -0.716827
      4 O                    -0.691959
      5 C                    -0.234477
      6 H                     0.190726
      7 H                     0.201384
      8 C                     1.060336
      9 H                     0.129838
     10 H                     0.223735
     11 C                    -1.293953
     12 H                     0.262584
     13 H                     0.235425
     14 H                     0.245651
     15 O                    -0.980474
     16 O                    -0.274016
     17 O                    -0.491004
     18 H                     0.353048
  ----------------------------------------
  Sum of atomic charges =    -2.000000

 -----------------------------------------------------------------
                    Cartesian Multipole Moments
 -----------------------------------------------------------------
    Charge (ESU x 10^10)
                -9.6064
    Dipole Moment (Debye)
         X      -6.5185      Y      -8.5661      Z       4.9668
       Tot      11.8549
    Quadrupole Moments (Debye-Ang)
        XX     -74.5609     XY       6.2620     YY    -113.4705
        XZ      -0.6846     YZ      36.2031     ZZ    -125.2460
    Octopole Moments (Debye-Ang^2)
       XXX     -50.3403    XXY     -31.2644    XYY     -12.7155
       YYY    -195.2818    XXZ       7.2669    XYZ       4.3240
       YYZ      91.1074    XZZ     -49.7826    YZZ    -126.8428
       ZZZ      68.8463
    Hexadecapole Moments (Debye-Ang^3)
      XXXX    -345.9771   XXXY      12.1918   XXYY    -255.5461
      XYYY      83.6370   YYYY   -1473.6260   XXXZ     -19.9510
      XXYZ     156.6625   XYYZ     -31.3919   YYYZ     716.4720
      XXZZ    -334.7200   XYZZ     -20.4267   YYZZ    -652.5557
      XZZZ       9.4281   YZZZ     640.1187   ZZZZ   -1909.9332
 -----------------------------------------------------------------
 Calculating analytic gradient of the SCF energy
 Gradient of SCF Energy
            1           2           3           4           5           6
    1  -0.0581785   0.0052758   0.0211261  -0.0369293   0.1784779   0.0435784
    2   0.0405521   0.0068401  -0.0469063   0.0223076  -0.0731917   0.0065198
    3   0.0757893  -0.0466231   0.0166028   0.0419232  -0.0678102   0.0060982
            7           8           9          10          11          12
    1  -0.0197903  -0.0817718  -0.0675724   0.0149346  -0.0926338   0.0372799
    2  -0.0420104   0.0649173  -0.0178977   0.0426996  -0.0134952  -0.0687528
    3  -0.0353741  -0.0153940  -0.0091253   0.0357380   0.0136855   0.0112056
           13          14          15          16          17          18
    1   0.0141627   0.0090840   0.0117284   0.0054635   0.0237084  -0.0079437
    2   0.0302833   0.0513071  -0.0041240   0.0091740  -0.0505240   0.0423012
    3  -0.0730110   0.0593936  -0.0079878  -0.0391861   0.0119707   0.0221047
 Max gradient component =       1.785E-01
 RMS gradient           =       4.744E-02
 Computing fast CPCM-ISWIG gradient
 Updating gradient with PCM contributions...
 -- total gradient after adding PCM contribution --
---------------------------------------------------
  Atom         X              Y              Z     
---------------------------------------------------
   1       0.000010      -0.000997      -0.000085
   2       0.000024       0.000187      -0.000057
   3      -0.000010       0.000059      -0.000075
   4      -0.000023      -0.000023       0.000021
   5      -0.000086       0.000332      -0.000037
   6       0.000080       0.000100      -0.000003
   7       0.000055       0.000293       0.000244
   8       0.000007       0.000021       0.000012
   9       0.000003      -0.000011      -0.000001
[...]
 H         -0.440 -0.168  0.186    0.290 -0.083  0.049    0.410 -0.069  0.023
 O          0.022 -0.031  0.010    0.089 -0.103  0.010    0.064 -0.030  0.020
 O          0.019  0.010  0.022   -0.068  0.139 -0.209    0.035 -0.085  0.154
 O         -0.005  0.010 -0.021    0.051 -0.119  0.216   -0.030  0.082 -0.126
 H         -0.026 -0.004 -0.014    0.100  0.050 -0.119   -0.106 -0.048  0.081
 TransDip   0.036 -0.009  0.044   -0.096  0.105 -0.091   -0.080 -0.031 -0.030

 Mode:                25                     26                     27
 Frequency:      1091.54                1105.63                1173.33
 Force Cnst:      1.6714                 1.8382                 1.5060
 Red. Mass:       2.3810                 2.5523                 1.8567
 IR Active:          YES                    YES                    YES
 IR Intens:       31.698                 23.271                118.032
 Raman Active:       YES                    YES                    YES
               X      Y      Z        X      Y      Z        X      Y      Z
 C          0.169 -0.075  0.042   -0.054  0.218  0.060    0.079  0.004  0.025
 C         -0.080 -0.041 -0.054   -0.070 -0.053 -0.034   -0.065 -0.044 -0.041
 O          0.008  0.028 -0.002    0.021 -0.022  0.023    0.009  0.015  0.002
 O          0.019  0.003  0.009    0.017  0.012 -0.003    0.005  0.010  0.016
 C         -0.166  0.087 -0.053    0.069 -0.196 -0.077   -0.022 -0.001  0.075
 H          0.189 -0.246 -0.169   -0.077  0.329 -0.328    0.034  0.295 -0.404
 H         -0.040 -0.369  0.340   -0.286  0.164  0.158   -0.045 -0.192  0.220
 C          0.019  0.122  0.071    0.041  0.095  0.076    0.139 -0.097 -0.083
 H         -0.202  0.364  0.110    0.065 -0.087  0.164   -0.097  0.434 -0.329
 H          0.104  0.094 -0.122    0.337 -0.411  0.047    0.046 -0.276  0.299
 C         -0.007 -0.066 -0.073   -0.008 -0.066 -0.048   -0.035  0.023  0.058
 H          0.166  0.096  0.117    0.163  0.085  0.082   -0.145 -0.076 -0.093
 H          0.113  0.172  0.059    0.043  0.121  0.051   -0.156 -0.151 -0.041
 H         -0.413 -0.063  0.084   -0.341 -0.046  0.061    0.142  0.030 -0.029
 O          0.023 -0.071  0.005   -0.018  0.001 -0.027   -0.060  0.073  0.004
 O          0.008  0.006  0.016    0.006 -0.010  0.019   -0.020  0.004 -0.031
 O         -0.004  0.010 -0.002   -0.004  0.011 -0.011    0.006 -0.021  0.003
 H         -0.009  0.001 -0.042    0.002 -0.004 -0.005    0.038 -0.005  0.089
 TransDip  -0.042  0.160  0.073   -0.001  0.107  0.112    0.246 -0.238 -0.060

 Mode:                28                     29                     30
 Frequency:      1232.95                1250.71                1299.27
 Force Cnst:      1.4792                 1.8616                 2.3522
 Red. Mass:       1.6515                 2.0199                 2.3649
 IR Active:          YES                    YES                    YES
 IR Intens:      146.965                 47.076                117.812
 Raman Active:       YES                    YES                    YES
               X      Y      Z        X      Y      Z        X      Y      Z
 C          0.025 -0.069  0.032   -0.004  0.022 -0.016    0.010 -0.118  0.082
 C          0.032  0.001  0.024    0.026  0.026  0.003   -0.006 -0.042  0.013
 O         -0.019  0.030 -0.012    0.003 -0.016  0.000   -0.022  0.056 -0.015
 O         -0.006 -0.004  0.001   -0.010  0.002  0.003    0.008 -0.002 -0.004
 C         -0.038 -0.102  0.024   -0.096  0.008  0.005    0.036 -0.031  0.051
 H          0.013  0.011 -0.054    0.051 -0.336  0.267   -0.085  0.542 -0.479
 H         -0.073  0.488 -0.433   -0.033  0.105 -0.084    0.030  0.248 -0.249
 C          0.141 -0.009  0.079    0.193  0.099 -0.164   -0.086  0.173 -0.172
 H         -0.083  0.211 -0.060   -0.022 -0.368  0.529    0.014  0.035 -0.046
 H          0.049  0.429 -0.467    0.081 -0.191  0.140   -0.117  0.148 -0.053
 C         -0.021 -0.004 -0.028   -0.013 -0.027  0.049    0.000 -0.046  0.061
 H         -0.078 -0.030  0.077   -0.117 -0.100 -0.077    0.137  0.039 -0.173
 H          0.010  0.023 -0.001   -0.387 -0.045 -0.017   -0.139 -0.001  0.045
 H         -0.123 -0.057  0.058   -0.169  0.086 -0.023    0.009  0.160 -0.141
 O         -0.052  0.052 -0.021   -0.026 -0.012  0.025    0.049 -0.076  0.021
 O         -0.014  0.007 -0.012   -0.013 -0.021  0.010    0.014 -0.038  0.029
 O          0.002 -0.013 -0.008   -0.000  0.003  0.006   -0.005  0.030  0.028
 H          0.020 -0.039  0.117    0.066  0.025  0.023    0.004  0.089 -0.247
 TransDip   0.314 -0.165  0.158    0.147  0.124 -0.107   -0.102  0.141 -0.301

 Mode:                31                     32                     33
 Frequency:      1315.11                1379.07                1384.60
 Force Cnst:      1.1872                 2.2892                 1.5830
 Red. Mass:       1.1651                 2.0429                 1.4015
 IR Active:          YES                    YES                    YES
 IR Intens:       19.532                187.654                 70.957
 Raman Active:       YES                    YES                    YES
               X      Y      Z        X      Y      Z        X      Y      Z
 C          0.041  0.017  0.039   -0.003  0.081 -0.084    0.004  0.022 -0.021
 C          0.024  0.011  0.018    0.007  0.075 -0.082   -0.001  0.015 -0.017
 O         -0.006  0.005 -0.004    0.034 -0.076  0.022    0.007 -0.016  0.005
 O         -0.001 -0.003 -0.004   -0.033  0.017  0.036   -0.006  0.004  0.007
 C         -0.032 -0.022 -0.037    0.003 -0.132  0.136    0.018 -0.044  0.036
 H          0.103 -0.384  0.184    0.032 -0.200  0.349    0.009 -0.026  0.074
 H         -0.137  0.426 -0.277   -0.099 -0.242  0.231   -0.042 -0.053  0.058
 C         -0.071 -0.003 -0.025    0.005  0.075 -0.072   -0.069  0.009 -0.009
 H         -0.111  0.420 -0.220   -0.068  0.276 -0.341   -0.027  0.187 -0.174
 H          0.146 -0.413  0.258    0.038  0.339 -0.295   -0.028  0.087 -0.066
 C          0.002 -0.001  0.009   -0.058 -0.043  0.030    0.150  0.044 -0.013
 H          0.065  0.037 -0.034    0.174  0.117 -0.103   -0.376 -0.332  0.052
 H          0.035  0.010  0.014    0.149  0.111  0.120   -0.500 -0.112 -0.174
 H          0.083  0.026 -0.043    0.182  0.129 -0.214   -0.494 -0.015  0.262
 O          0.018 -0.013  0.004    0.006 -0.013 -0.002    0.011 -0.008 -0.002
 O          0.007 -0.004  0.007    0.004 -0.020  0.007    0.006 -0.007  0.004
 O         -0.001  0.007  0.004   -0.002  0.013  0.017   -0.002  0.007  0.009
 H         -0.015  0.019 -0.064   -0.007  0.050 -0.152   -0.013  0.033 -0.107
 TransDip  -0.101  0.013 -0.098   -0.017  0.318 -0.302   -0.248  0.029 -0.102

 Mode:                34                     35                     36
 Frequency:      1434.38                1452.29                1465.04
 Force Cnst:      3.7095                 1.7215                 1.3636
 Red. Mass:       3.0601                 1.3853                 1.0783
 IR Active:          YES                    YES                    YES
 IR Intens:      297.161                 51.215                  2.945
 Raman Active:       YES                    YES                    YES
               X      Y      Z        X      Y      Z        X      Y      Z
 C          0.052  0.047 -0.132   -0.052  0.090 -0.017   -0.015  0.003  0.022
 C         -0.057 -0.155  0.262   -0.009 -0.067  0.086    0.006 -0.005 -0.008
 O         -0.060  0.133 -0.040   -0.023  0.050 -0.013   -0.001  0.003 -0.000
 O          0.097 -0.048 -0.114    0.026 -0.012 -0.031   -0.004  0.003  0.004
 C         -0.017 -0.016  0.044    0.025 -0.056  0.020   -0.030  0.030  0.022
 H          0.011  0.232  0.556    0.055 -0.504 -0.367    0.005 -0.094 -0.157
 H         -0.552 -0.143  0.189    0.615 -0.119 -0.011    0.176  0.010 -0.035
 C          0.004  0.009 -0.021    0.007  0.006 -0.012   -0.015 -0.013  0.015
 H         -0.017 -0.043 -0.174   -0.029  0.257  0.150    0.020 -0.273 -0.299
 H          0.152  0.060 -0.071   -0.284  0.085 -0.010    0.395 -0.034 -0.054
 C          0.001 -0.015  0.007   -0.002 -0.005  0.005    0.030 -0.033  0.010
 H         -0.043 -0.042  0.001   -0.010 -0.012 -0.018   -0.251 -0.233 -0.055
 H         -0.005  0.116  0.061    0.006  0.029  0.020    0.063  0.380  0.195
 H          0.008  0.102 -0.104    0.001  0.038 -0.038   -0.115  0.381 -0.332
 O          0.002 -0.005  0.004   -0.001  0.001 -0.001    0.004  0.002  0.002
 O         -0.000 -0.002  0.001    0.000 -0.003  0.001   -0.003  0.010 -0.004
 O          0.000  0.001  0.002   -0.001  0.002  0.003    0.003 -0.008 -0.011
 H         -0.001  0.003 -0.008   -0.002  0.010 -0.029    0.021 -0.053  0.158
 TransDip  -0.120 -0.261  0.472    0.043 -0.188  0.123    0.047  0.029  0.001

 Mode:                37                     38                     39
 Frequency:      1468.08                1476.04                1503.79
 Force Cnst:      1.3977                 1.3499                 1.6490
 Red. Mass:       1.1007                 1.0516                 1.2376
 IR Active:          YES                    YES                    YES
 IR Intens:       66.191                  3.045                260.069
 Raman Active:       YES                    YES                    YES
               X      Y      Z        X      Y      Z        X      Y      Z
 C         -0.016  0.015  0.009    0.005 -0.005  0.001   -0.003  0.008 -0.002
 C          0.003 -0.019  0.016    0.001  0.004 -0.010   -0.001 -0.002  0.003
 O         -0.007  0.015 -0.004    0.002 -0.004  0.001   -0.001  0.001 -0.000
 O          0.004 -0.001 -0.005   -0.003  0.002  0.004    0.001 -0.000 -0.001
 C         -0.041  0.020  0.044    0.012 -0.006 -0.005    0.001 -0.017  0.028
 H          0.013 -0.139 -0.130   -0.006  0.056 -0.001    0.004 -0.034 -0.012
 H          0.190 -0.014 -0.021   -0.038  0.005  0.003    0.032 -0.012  0.008
 C          0.009  0.010 -0.013   -0.002 -0.009 -0.023   -0.053  0.067 -0.050
 H          0.015 -0.319 -0.365   -0.005  0.091  0.084   -0.006  0.003 -0.107
 H          0.478 -0.001 -0.097   -0.127 -0.009  0.039    0.065  0.022 -0.025
 C         -0.015  0.022 -0.021    0.008 -0.026 -0.046    0.002  0.003 -0.004
 H          0.161  0.169  0.214   -0.076  0.002  0.675    0.128  0.105  0.082
 H         -0.151 -0.186 -0.128   -0.358  0.467  0.131   -0.115 -0.112 -0.073
 H          0.152 -0.320  0.250    0.342 -0.083 -0.090    0.057 -0.158  0.133
 O         -0.003 -0.002 -0.004    0.000  0.001  0.002    0.021 -0.017  0.024
 O          0.005 -0.017  0.004    0.001 -0.003  0.001   -0.014  0.040 -0.009
 O         -0.004  0.014  0.018   -0.001  0.002  0.002    0.012 -0.040 -0.049
 H         -0.043  0.088 -0.272    0.001  0.014 -0.028    0.176 -0.273  0.864
 TransDip   0.086 -0.142 -0.201   -0.031  0.033  0.033   -0.049  0.216  0.467

 Mode:                40                     41                     42
 Frequency:      1579.20                2949.60                3047.37
 Force Cnst:     14.6366                 5.4594                 5.6814
 Red. Mass:       9.9613                 1.0650                 1.0384
 IR Active:          YES                    YES                    YES
 IR Intens:     1236.187                700.185                 33.126
 Raman Active:       YES                    YES                    YES
               X      Y      Z        X      Y      Z        X      Y      Z
 C          0.029 -0.055  0.009   -0.000 -0.001 -0.000   -0.011  0.004  0.007
 C         -0.485  0.526  0.262    0.000 -0.000 -0.000   -0.000  0.000 -0.000
 O          0.126 -0.222  0.022   -0.000 -0.000  0.000    0.000 -0.000  0.000
 O          0.208 -0.146 -0.196   -0.000  0.000  0.000   -0.000  0.000  0.000
 C         -0.013  0.003  0.017    0.001 -0.003 -0.001    0.012 -0.009 -0.013
 H          0.009  0.040 -0.337   -0.003 -0.001 -0.000    0.154  0.024  0.004
 H          0.207  0.179 -0.228    0.002  0.006  0.007   -0.022 -0.071 -0.080
 C          0.007 -0.000 -0.009   -0.003  0.008  0.001   -0.002 -0.001  0.001
 H         -0.019 -0.021 -0.028   -0.006 -0.001 -0.001   -0.192 -0.033 -0.001
 H          0.038  0.020 -0.001    0.005  0.012  0.006    0.049  0.143  0.161
 C         -0.000 -0.001 -0.001    0.001 -0.002 -0.001    0.044  0.016 -0.000
 H         -0.011 -0.005  0.021   -0.002  0.009 -0.002   -0.298  0.416 -0.047
 H         -0.014  0.013  0.003    0.001 -0.000  0.001   -0.060 -0.206  0.460
 H          0.008  0.000 -0.004    0.001  0.007  0.009   -0.140 -0.399 -0.417
 O         -0.000 -0.001  0.002    0.003 -0.002  0.006    0.000 -0.000  0.000
 O         -0.000 -0.001 -0.000    0.001 -0.006 -0.000    0.000  0.000  0.000
 O         -0.000  0.000  0.001    0.020 -0.052 -0.024   -0.000  0.000  0.000
 H         -0.002  0.006 -0.012   -0.360  0.887  0.280    0.000 -0.002 -0.001
 TransDip  -0.705  0.814  0.330   -0.143  0.617  0.564    0.179  0.037 -0.020

 Mode:                43                     44                     45
 Frequency:      3056.11                3062.15                3091.38
 Force Cnst:      5.8245                 5.8619                 6.1936
 Red. Mass:       1.0585                 1.0610                 1.1000
 IR Active:          YES                    YES                    YES
 IR Intens:       39.050                 50.966                  8.393
 Raman Active:       YES                    YES                    YES
               X      Y      Z        X      Y      Z        X      Y      Z
 C          0.003 -0.004 -0.004   -0.054  0.022  0.036    0.040  0.034  0.034
 C         -0.001  0.000  0.001   -0.001  0.002 -0.001    0.000  0.001  0.000
 O          0.000  0.000 -0.000    0.000 -0.000 -0.000   -0.000 -0.000 -0.000
 O          0.000 -0.000 -0.000    0.000 -0.000  0.000    0.000  0.000  0.000
 C         -0.034  0.032  0.046   -0.002  0.005  0.008   -0.054 -0.030 -0.024
 H         -0.040 -0.006 -0.002    0.760  0.124  0.013   -0.388 -0.057  0.007
 H          0.013  0.047  0.053   -0.119 -0.386 -0.437   -0.095 -0.363 -0.420
 C         -0.002  0.002 -0.001    0.000  0.000  0.001   -0.002 -0.000 -0.001
 H          0.567  0.100 -0.001    0.054  0.010  0.001    0.575  0.092 -0.016
 H         -0.165 -0.483 -0.542   -0.026 -0.079 -0.091    0.080  0.269  0.310
 C          0.016  0.004 -0.000   -0.006 -0.008 -0.001   -0.000  0.007  0.003
 H         -0.110  0.153 -0.018    0.023 -0.034  0.004    0.028 -0.036  0.004
 H         -0.022 -0.072  0.156    0.013  0.039 -0.090   -0.002 -0.002  0.010
 H         -0.045 -0.128 -0.134    0.032  0.090  0.095   -0.016 -0.044 -0.047
 O          0.001 -0.000  0.000   -0.000  0.000 -0.000    0.000  0.000  0.000
 O          0.000 -0.000 -0.000   -0.000 -0.000  0.000    0.000  0.000  0.000
 O          0.000 -0.001 -0.000    0.000 -0.000 -0.000    0.000 -0.000 -0.000
 H         -0.005  0.012  0.004   -0.003  0.007  0.003   -0.001  0.002  0.001
 TransDip  -0.062  0.134  0.134   -0.187  0.109  0.075   -0.091  0.016  0.010

 Mode:                46                     47                     48
 Frequency:      3110.84                3121.07                3129.26
 Force Cnst:      6.2896                 6.3251                 6.3616
 Red. Mass:       1.1031                 1.1021                 1.1026
 IR Active:          YES                    YES                    YES
 IR Intens:       93.967                 61.839                 63.553
 Raman Active:       YES                    YES                    YES
               X      Y      Z        X      Y      Z        X      Y      Z
 C         -0.044 -0.035 -0.034    0.006  0.003  0.002   -0.009 -0.005 -0.004
 C         -0.000 -0.000 -0.000    0.000  0.000 -0.000   -0.000 -0.000  0.000
 O          0.000  0.000  0.000   -0.000 -0.000  0.000    0.000  0.000 -0.000
 O          0.000  0.000  0.000   -0.000  0.000  0.000    0.000 -0.000 -0.000
 C         -0.051 -0.030 -0.026   -0.001 -0.002 -0.002   -0.005 -0.002 -0.001
 H          0.442  0.063 -0.003   -0.076 -0.012  0.001    0.104  0.016 -0.001
 H          0.092  0.358  0.409   -0.005 -0.021 -0.025    0.010  0.043  0.050
 C         -0.001 -0.001 -0.001    0.000 -0.001 -0.002   -0.000  0.002 -0.001
 H          0.524  0.081 -0.013    0.009  0.002 -0.001    0.051  0.008 -0.001
 H          0.085  0.283  0.320    0.006  0.019  0.023    0.004  0.016  0.018
 C          0.004 -0.011  0.005    0.012 -0.056 -0.072   -0.026  0.067 -0.058
 H         -0.060  0.079 -0.008   -0.273  0.364 -0.056    0.408 -0.551  0.055
 H          0.011  0.029 -0.069   -0.058 -0.195  0.393   -0.101 -0.282  0.640
 H          0.008  0.018  0.021    0.192  0.511  0.528   -0.000  0.023  0.001
 O          0.000  0.000  0.000    0.000  0.000  0.000   -0.000 -0.000  0.000
 O          0.000  0.000 -0.000   -0.000  0.000  0.000    0.000 -0.000 -0.000
 O         -0.000  0.001  0.000   -0.000  0.001  0.000    0.000 -0.000 -0.000
 H          0.002 -0.007 -0.003    0.005 -0.012 -0.005   -0.001  0.005  0.003
 TransDip  -0.218 -0.188 -0.116    0.056 -0.153 -0.192   -0.109  0.173 -0.152

 STANDARD THERMODYNAMIC QUANTITIES AT   298.15 K  AND     1.00 ATM

   This Molecule has  0 Imaginary Frequencies
   Zero point vibrational energy:       83.854 kcal/mol

   Atom    1 Element C  Has Mass   12.00000
   Atom    2 Element C  Has Mass   12.00000
   Atom    3 Element O  Has Mass   15.99491
   Atom    4 Element O  Has Mass   15.99491
   Atom    5 Element C  Has Mass   12.00000
   Atom    6 Element H  Has Mass    1.00783
   Atom    7 Element H  Has Mass    1.00783
   Atom    8 Element C  Has Mass   12.00000
   Atom    9 Element H  Has Mass    1.00783
   Atom   10 Element H  Has Mass    1.00783
   Atom   11 Element C  Has Mass   12.00000
   Atom   12 Element H  Has Mass    1.00783
   Atom   13 Element H  Has Mass    1.00783
   Atom   14 Element H  Has Mass    1.00783
   Atom   15 Element O  Has Mass   15.99491
   Atom   16 Element O  Has Mass   15.99491
   Atom   17 Element O  Has Mass   15.99491
   Atom   18 Element H  Has Mass    1.00783
   Molecular Mass:   148.037190 amu
   Principal axes and moments of inertia in amu*Bohr^2:
                             1           2           3
    Eigenvalues --      642.13334  2957.14853  3066.21167
          X               0.06024    -0.25074     0.96618
          Y              -0.58125     0.77809     0.23817
          Z               0.81149     0.57594     0.09887
   Rotational Symmetry Number is   1
   The Molecule is an Asymmetric Top
   Translational Enthalpy:        0.889 kcal/mol
   Rotational Enthalpy:           0.889 kcal/mol
   Vibrational Enthalpy:         88.656 kcal/mol
   gas constant (RT):             0.592 kcal/mol
   Translational Entropy:        40.887  cal/mol.K
   Rotational Entropy:           30.144  cal/mol.K
   Vibrational Entropy:          30.983  cal/mol.K

   Total Enthalpy:               91.025 kcal/mol
   Total Entropy:               102.014  cal/mol.K
Archival summary:
1\1\c5-83\FREQ\ProcedureUnspecified\BasisUnspecified\558(2-,1)\leeping\FriMar2021:37:072020FriMar2021:37:072020\0\\#,FREQ,ProcedureUnspecified,BasisUnspecified,\\-2,1\O\O,1,1.43248\H,2,1.01463,1,95.2857\C,1,1.52108,2,105.017,3,23.8949,0\O,4,1.34166,1,107.969,2,-33.5955,0\C,4,1.53486,1,106.12,2,87.2592,0\H,6,1.09395,4,112.542,1,56.1402,0\H,6,1.09401,4,108.905,1,-64.541,0\H,6,1.09522,4,109.44,1,177.085,0\C,4,1.53503,1,103.108,2,-153.853,0\H,10,1.09529,4,106.679,1,68.2816,0\H,10,1.09629,4,106.782,1,-177.747,0\C,10,1.52492,4,116.421,1,-54.9015,0\H,13,1.09548,10,110.519,4,56.8077,0\H,13,1.09611,10,110.812,4,-60.0793,0\C,13,1.53832,10,115.917,4,178.686,0\O,16,1.25734,13,119.134,10,2.47654,0\O,16,1.26291,13,115.748,10,-177.788,0\\\@

 Total job time:  35171.00s(wall), 495439.20s(cpu) 
 Fri Mar 20 21:37:07 2020

        *************************************************************
        *                                                           *
        *  Thank you very much for using Q-Chem.  Have a nice day.  *
        *                                                           *
        *************************************************************


