18   
From 3-product-freq.out: Frame 1 / 109, Energy=    -571.7272304945
C       -0.1928844863    1.3973619412   -0.7596306468
C        0.1457635710    2.1165092271   -2.0766588226
O       -0.4360153634    3.2217499175   -2.2635545849
O        0.9550017147    1.5808109696   -2.8760813664
C        0.5468369488    0.0882546846   -0.5057672717
H       -1.2771715235    1.2369608497   -0.7666866350
H       -0.0029472380    2.1091997315    0.0511056504
C        0.2408523803   -0.6232818498    0.8195308838
H        1.6285082447    0.2589472588   -0.5285063144
H        0.3208523215   -0.6246726777   -1.3073351488
C       -1.2427061144   -0.9850170876    0.9744246225
H       -1.8988222861   -0.1150403973    0.8775378654
H       -1.3970267861   -1.4341149928    1.9599944137
H       -1.5201883496   -1.7202935753    0.2116197348
O        1.0517660748   -1.6635896798    1.0649226578
O        0.5250252117    0.4489185285    1.8603502138
O        0.8656981546   -0.2707558648    3.0511539665
H        1.1621288065   -1.1132212080    2.5696364718
