18   
From 2-transition-freq.out: Frame 1 / 109, Energy=    -571.6389181959
C        1.5848386864    1.6205053443   -0.2837823599
C        1.1707880111    0.1859076976   -0.0582512461
H        1.9386555496    2.0622234057    0.6521187771
H        2.3940285293    1.6665672809   -1.0209824455
H        0.7412844520    2.2066031267   -0.6560299954
C       -0.2741441362    0.1491696871    1.1993299894
C       -1.3691484359   -0.5632399626    0.6569445585
H        0.2115298580   -0.2710530258    2.0767650686
H       -0.3743990849    1.2326028605    1.2619532896
H       -0.2513308488   -0.7374588429   -0.8872539032
H       -1.5113402904   -1.6069855323    0.9304796296
O        0.6336691360   -0.3983727911   -1.1992839682
O        1.9883372803   -0.5734246896    0.6218698408
O        3.5000563134   -0.8201862295   -0.2074238785
H        3.1856379981   -1.5419705929   -0.7669903956
C       -2.4281465826    0.0629222637   -0.1411488887
O       -3.4261193203   -0.6611717276   -0.4890090324
O       -2.3337541153    1.2960587279   -0.4625410400
