
Running Job 1 of 1 qc-3-tshess.in
qchem qc-3-tshess.in_159276.0 ./qc-3-tshess.d/ 1
/home/leeping/opt/qchem/5.0.2-openmp/exe/qcprog.exe_s qc-3-tshess.in_159276.0 ./qc-3-tshess.d/
Check license passed

                  Welcome to Q-Chem
     A Quantum Leap Into The Future Of Chemistry


 Q-Chem 5.0, Q-Chem, Inc., Pleasanton, CA (2017)

 Yihan Shao,  Zhengting Gan,  E. Epifanovsky,  A. T. B. Gilbert,  M. Wormit,  
 J. Kussmann,  A. W. Lange,  A. Behn,  Jia Deng,  Xintian Feng,  D. Ghosh,  
 M. Goldey,  P. R. Horn,  L. D. Jacobson,  I. Kaliman,  T. Kus,  A. Landau,  
 Jie Liu,  E. I. Proynov,  R. M. Richard,  R. P. Steele,  E. J. Sundstrom,  
 H. L. Woodcock III,  P. M. Zimmerman,  D. Zuev,  B. Albrecht,  E. Alguire,  
 S. A. Baeppler,  D. Barton,  Z. Benda,  Y. A. Bernard,  E. J. Berquist,  
 K. B. Bravaya,  H. Burton,  D. Casanova,  Chun-Min Chang,  Yunqing Chen,  
 A. Chien,  K. D. Closser,  M. P. Coons,  S. Dasgupta,  A. L. Dempwolff,  
 M. Diedenhofen,  Hainam Do,  R. G. Edgar,  Po-Tung Fang,  S. Fatehi,  
 Qingguo Feng,  J. Fosso-Tande,  Qinghui Ge,  A. Ghysels,  G. Gidofalvi,  
 J. Gomes,  J. Gonthier,  A. Gunina,  M. W. D. Hanson-Heine,  
 P. H. P. Harbach,  A. W. Hauser,  J. E. Herr,  E. G. Hohenstein,  
 Z. C. Holden,  Kerwin Hui,  T.-C. Jagau,  Hyunjun Ji,  B. Kaduk,  
 K. Khistyaev,  Jaehoon Kim,  P. Klunzinger,  K. Koh,  D. Kosenkov,  
 L. Koulias,  T. Kowalczyk,  C. M. Krauter,  A. Kunitsa,  Ka Un Lao,  
 A. Laurent,  K. V. Lawler,  Joonho Lee,  D. Lefrancois,  S. Lehtola,  
 D. S. Levine,  Yi-Pei Li,  You-Sheng Lin,  Fenglai Liu,  E. Livshits,  
 A. Luenser,  P. Manohar,  E. Mansoor,  S. F. Manzer,  Shan-Ping Mao,  
 Yuezhi Mao,  N. Mardirossian,  A. V. Marenich,  T. Markovich,  
 L. A. Martinez-Martinez,  S. A. Maurer,  N. J. Mayhall,  S. C. McKenzie,  
 J.-M. Mewes,  A. F. Morrison,  J. W. Mullinax,  K. Nanda,  
 T. S. Nguyen-Beck,  R. Olivares-Amaya,  J. A. Parkhill,  T. M. Perrine,  
 F. Plasser,  S. Prager,  A. Prociuk,  E. Ramos,  D. R. Rehn,  F. Rob,  
 M. Schneider,  N. Sergueev,  S. M. Sharada,  S. Sharma,  D. W. Small,  
 T. Stauch,  T. Stein,  Yu-Chuan Su,  A. J. W. Thom,  A. Tkatchenko,  
 T. Tsuchimochi,  L. Vogt,  O. Vydrov,  M. A. Watson,  J. Wenzel,  
 M. de Wergifosse,  T. A. Wesolowski,  A. White,  J. Witte,  A. Yamada,  
 Jun Yang,  K. Yao,  S. Yeganeh,  S. R. Yost,  Zhi-Qiang You,  A. Zech,  
 Igor Ying Zhang,  Xing Zhang,  Yan Zhao,  Ying Zhu,  B. R. Brooks,  
 G. K. L. Chan,  C. J. Cramer,  M. S. Gordon,  W. J. Hehre,  A. Klamt,  
 M. W. Schmidt,  C. D. Sherrill,  D. G. Truhlar,  A. Aspuru-Guzik,  R. Baer,  
 A. T. Bell,  N. A. Besley,  Jeng-Da Chai,  R. A. DiStasio Jr.,  A. Dreuw,  
 B. D. Dunietz,  T. R. Furlani,  Chao-Ping Hsu,  Yousung Jung,  Jing Kong,  
 D. S. Lambrecht,  WanZhen Liang,  C. Ochsenfeld,  V. A. Rassolov,  
 L. V. Slipchenko,  J. E. Subotnik,  T. Van Voorhis,  J. M. Herbert,  
 A. I. Krylov,  P. M. W. Gill,  M. Head-Gordon

 Contributors to earlier versions of Q-Chem not listed above: 
 R. D. Adamson,  B. Austin,  J. Baker,  G. J. O. Beran,  K. Brandhorst,  
 S. T. Brown,  E. F. C. Byrd,  A. K. Chakraborty,  C.-L. Cheng,  
 Siu Hung Chien,  D. M. Chipman,  D. L. Crittenden,  H. Dachsel,  
 R. J. Doerksen,  A. D. Dutoi,  L. Fusti-Molnar,  W. A. Goddard III,  
 A. Golubeva-Zadorozhnaya,  S. R. Gwaltney,  G. Hawkins,  A. Heyden,  
 S. Hirata,  G. Kedziora,  F. J. Keil,  C. Kelley,  Jihan Kim,  R. A. King,  
 R. Z. Khaliullin,  P. P. Korambath,  W. Kurlancheek,  A. M. Lee,  M. S. Lee,  
 S. V. Levchenko,  Ching Yeh Lin,  D. Liotard,  R. C. Lochan,  I. Lotan,  
 P. E. Maslen,  N. Nair,  D. P. O'Neill,  D. Neuhauser,  E. Neuscamman,  
 C. M. Oana,  R. Olson,  B. Peters,  R. Peverati,  P. A. Pieniazek,  
 Y. M. Rhee,  J. Ritchie,  M. A. Rohrdanz,  E. Rosta,  N. J. Russ,  
 H. F. Schaefer III,  N. E. Schultz,  N. Shenvi,  A. C. Simmonett,  A. Sodt,  
 D. Stuck,  K. S. Thanthiriwatte,  V. Vanovschi,  Tao Wang,  A. Warshel,  
 C. F. Williams,  Q. Wu,  X. Xu,  W. Zhang

 Please cite Q-Chem as follows:
 Y. Shao et al., Mol. Phys. 113, 184-215 (2015)
 DOI: 10.1080/00268976.2014.952696

 Q-Chem 5.0.2 for Intel X86 EM64T Linux

 Parts of Q-Chem use Armadillo 5.200.1 (Boston Tea Smuggler).
 http://arma.sourceforge.net/

 Q-Chem begins on Sat May 19 11:00:34 2018  

Host: 
0

     Scratch files written to ./qc-3-tshess.d//
 Dec517 15110_ 26548  26544 5633   
Processing $rem in /home/leeping/opt/qchem/5.0.2-openmp/config/preferences.
 MEM_STATIC 2000
 MEM_TOTAL  8000
 SYMMETRY   OFF
 SYM_IGNORE TRUE 
Symmetry turned off for PCM/SM12/SMD calculation

Checking the input file for inconsistencies... 	...done.

--------------------------------------------------------------
User input:
--------------------------------------------------------------
$molecule
-2 1
C        2.1217562363    1.7281259927    0.0674809121
O        2.9777767620    2.4671820194   -0.5620882945
O        1.8721532446    1.9407231616    1.3192592226
C        1.4111441030    0.6954570177   -0.6401376098
H       -0.1630680801    1.7630606841    0.2100272316
H        1.8497010636    0.4282357734   -1.6032882540
C        0.7194299893   -0.4342668646    0.0970169778
H        1.0779601520   -1.4145501996   -0.2514959519
H        0.9165467481   -0.3836679861    1.1742962461
C       -0.8127960817   -0.4720052473   -0.0928916135
O       -1.1189349232   -0.1873275399   -1.4271501771
H       -0.4143780851    0.4497132263   -1.6844262868
O       -1.4711151228    0.4826933368    0.7780643986
O       -1.1291494981    1.8231173939    0.4103226941
C       -1.4449215127   -1.7883778155    0.3121302124
H       -2.5287418966   -1.7515550339    0.1725323550
H       -1.0328619376   -2.5887187056   -0.3061529433
H       -1.2261658738   -2.0072268839    1.3605982011
$end

$rem
jobtype               freq
method                wb97x-v
basis                 def2-tzvpd
symmetry              off
sym_ignore            true
incdft                false
incfock               0
!scf_algorithm        diis_gdm
scf_convergence       8
thresh                14
!purecart             112
max_scf_cycles        1000
geom_opt_max_cycles   500
geom_opt_dmax         100
geom_opt_tol_gradient 10
solvent_method        pcm
ideriv                1
rpath_tol_displacement 1000
rpath_max_cycles      100
rpath_direction       1
!scf_guess            read
scf_guess             read
$end

$pcm
theory              cosmo
method              iswig
Radii               bondi
vdwScale            1.20
hpoints             110
heavypoints         110
$end

$solvent
dielectric 78.400000
$end

--------------------------------------------------------------
 ----------------------------------------------------------------
             Standard Nuclear Orientation (Angstroms)
    I     Atom           X                Y                Z
 ----------------------------------------------------------------
    1      C       2.1217562363     1.7281259927     0.0674809121
    2      O       2.9777767620     2.4671820194    -0.5620882945
    3      O       1.8721532446     1.9407231616     1.3192592226
    4      C       1.4111441030     0.6954570177    -0.6401376098
    5      H      -0.1630680801     1.7630606841     0.2100272316
    6      H       1.8497010636     0.4282357734    -1.6032882540
    7      C       0.7194299893    -0.4342668646     0.0970169778
    8      H       1.0779601520    -1.4145501996    -0.2514959519
    9      H       0.9165467481    -0.3836679861     1.1742962461
   10      C      -0.8127960817    -0.4720052473    -0.0928916135
   11      O      -1.1189349232    -0.1873275399    -1.4271501771
   12      H      -0.4143780851     0.4497132263    -1.6844262868
   13      O      -1.4711151228     0.4826933368     0.7780643986
   14      O      -1.1291494981     1.8231173939     0.4103226941
   15      C      -1.4449215127    -1.7883778155     0.3121302124
   16      H      -2.5287418966    -1.7515550339     0.1725323550
   17      H      -1.0328619376    -2.5887187056    -0.3061529433
   18      H      -1.2261658738    -2.0072268839     1.3605982011
 ----------------------------------------------------------------
 Nuclear Repulsion Energy =   567.8328416606 hartrees
 There are       40 alpha and       40 beta electrons
 Requested basis set is def2-TZVPD
 There are 175 shells and 457 basis functions

 Total QAlloc Memory Limit   8000 MB
 Mega-Array Size      1956 MB
 MEM_STATIC part      2000 MB
 Discretize the solute cavity surface with Lebedev spheres
	Using 110 Lebedev grid points for each H atom
	Using 110 Lebedev grid points for other atoms
	Atomic van der Waals radii will be scaled by 1.20
 Remove points where switching function is < 1.0e-08
 Keep 1015 surface tesserae and discard 965 interior tesserae
 Molecular Surface Area = 179.155 Angst**2
 A cutoff of  1.0D-14 yielded  14329 shell pairs
 There are     98565 function pairs (    125743 Cartesian)
 
 -------------------------------------------------------
 OpenMP Integral Computing Module                       
 Release: version 1.0, May 2013, Q-Chem Inc. Pittsburgh 
 -------------------------------------------------------
 Integral Job Info:
 Integral job number is                      11
 Integral operator is                         1
 short-range coefficients              16700000
 long-range coefficients              100000000
 Omega coefficients                         300
 if combine SR and LR in K                    1
 Integral screening is                        0
 Integral computing path is                   2
 max size of driver memory is            800000
 size of driver memory is                776718
 size of scratch memory is              4473992
 max col of scratch BK array              10000
 max len of scratch array in speh3          662
 max len of scratch index in speh4           32
 max int batch size is                      520
 min int batch size is                       52
 fixed nKL is                                52
 max L of basis functions is                  3
 order of int derivative is                   0
 number of shells is                        175
 number of basis is                         517
 number of cartesian basis is               517
 number of contracted shell pairs         14329
 number of primitive shell pairs          29231
 maxK2 (contraction) of shell pair           36
 max number of K2 of shell pair               1
 max number of CS2 of shell pair           2325
 max number of PS2 of shell pair           3360
 mem total for path MDJ                  794768
 -------------------------------------------------------
 Smallest overlap matrix eigenvalue = 2.92E-06
 Guess MOs from SCF MO coefficient file
 Reading MOs from coefficient file
 Reading MOs from coefficient file
 Long-range K will be added via erf
 Coulomb attenuation parameter = 0.3 bohr**(-1)
 A restricted hybrid HF-DFT SCF calculation will be
 performed using Pulay DIIS extrapolation
 Polarizable Continuum solvation model will be applied
 Exchange:     0.1670 Hartree-Fock + 1.0000 wB97X-V + LR-HF
 Correlation:  1.0000 wB97X-V
 Using SG-2 standard quadrature grid
 Nonlocal Correlation:  VV10 with C = 0.0100 and b = 6.00
 Grid used for NLC:  SG-1 standard quadrature
 SCF converges when DIIS error is below 1.0E-08
Using Q-Chem read-in guess as SCF_GUESS READ specified.

 using 16 threads for integral computing
 -------------------------------------------------------
 OpenMP Integral computing Module                
 Release: version 1.0, May 2013, Q-Chem Inc. Pittsburgh 
 -------------------------------------------------------
 using 16 threads for integral computing
 -------------------------------------------------------
 OpenMP Integral computing Module                
 Release: version 1.0, May 2013, Q-Chem Inc. Pittsburgh 
 -------------------------------------------------------
 -------------------------------------------------------
 OpenMP BLAS3 based DFT computing Module                
 Release: version 1.0, May 2013, Q-Chem Inc. Pittsburgh 
 -------------------------------------------------------
 -------------------------------------------------------
 OpenMP BLAS3 based DFT computing Module                
 Release: version 1.0, May 2013, Q-Chem Inc. Pittsburgh 
 -------------------------------------------------------
 -------------------------------------------------------
 OpenMP BLAS3 based DFT computing Module                
 Release: version 1.0, May 2013, Q-Chem Inc. Pittsburgh 
 -------------------------------------------------------
 ---------------------------------------
  Cycle       Energy         DIIS Error
 ---------------------------------------
    1    -571.3344513911      4.52E-04
    2    -571.6605767732      4.74E-04
    3    -571.6699519508      2.17E-04
    4    -571.6714946135      1.59E-04
    5    -571.6724620445      1.20E-04
    6    -571.6729821289      9.39E-05
    7    -571.6733478557      7.03E-05
    8    -571.6735066255      5.74E-05
    9    -571.6736370923      4.40E-05
   10    -571.6737191477      3.29E-05
   11    -571.6737662195      2.44E-05
   12    -571.6737904791      1.84E-05
   13    -571.6738028836      1.45E-05
   14    -571.6738103851      1.15E-05
   15    -571.6738144771      9.43E-06
   16    -571.6738172539      7.74E-06
   17    -571.6738229670      1.42E-08
   18    -571.6738229670      5.07E-09 Convergence criterion met
 ---------------------------------------

************** Final PCM Free Energy Summary **************
 G_electrostatic  =      -0.33937158 hartree =    -212.95888172 kcal/mol
 G_cavitation     =       0.00000000 hartree =       0.00000000 kcal/mol
 G_dispersion     =       0.00000000 hartree =       0.00000000 kcal/mol
 G_repulsion      =       0.00000000 hartree =       0.00000000 kcal/mol
 --------------------------------------------------
 Non-electrostatic Free Energy =       0.00000000 hartree =       0.00000000 kcal/mol
 Total                         =      -0.33937158 hartree =    -212.95888172 kcal/mol
 --------------------------------------------------
 SCF Energy (H0 + V/2)                       =    -571.67382297 
 Solute Internal Energy (H0)                 =    -571.33445139 
 Total Free Energy (H0 + V/2 + non-elec)     =    -571.67382297 hartree
                                             = -358730.73823459 kcal/mol
***********************************************************

 SCF time:  CPU 4747.21 s  wall 333.18 s
 SCF   energy in the final basis set = -571.67382297
 Total energy in the final basis set = -571.67382297
 
 --------------------------------------------------------------
 
                    Orbital Energies (a.u.)
 --------------------------------------------------------------
 
 Alpha MOs
 -- Occupied --
-19.251 -19.242 -19.202 -19.106 -19.104 -10.353 -10.305 -10.250
-10.239 -10.181  -1.242  -1.148  -1.097  -1.010  -1.000  -0.879
 -0.836  -0.736  -0.695  -0.649  -0.583  -0.574  -0.560  -0.547
 -0.517  -0.508  -0.490  -0.483  -0.475  -0.468  -0.458  -0.433
 -0.423  -0.407  -0.391  -0.350  -0.318  -0.318  -0.295  -0.232
 -- Virtual --
  0.062   0.076   0.080   0.084   0.101   0.106   0.108   0.118
  0.121   0.132   0.143   0.146   0.151   0.158   0.168   0.173
  0.176   0.183   0.189   0.191   0.208   0.211   0.221   0.232
  0.234   0.239   0.243   0.251   0.256   0.266   0.277   0.282
  0.285   0.286   0.294   0.296   0.305   0.315   0.319   0.328
  0.332   0.336   0.340   0.341   0.349   0.360   0.370   0.373
  0.380   0.381   0.388   0.390   0.400   0.409   0.410   0.413
  0.422   0.428   0.432   0.439   0.443   0.446   0.452   0.458
  0.467   0.470   0.480   0.485   0.490   0.492   0.496   0.502
  0.505   0.515   0.523   0.531   0.539   0.543   0.545   0.552
  0.559   0.562   0.568   0.580   0.585   0.592   0.598   0.604
  0.618   0.625   0.630   0.632   0.646   0.656   0.658   0.667
  0.670   0.677   0.683   0.693   0.697   0.709   0.720   0.722
  0.727   0.740   0.747   0.753   0.755   0.765   0.769   0.774
  0.781   0.784   0.788   0.800   0.807   0.814   0.820   0.823
  0.827   0.840   0.844   0.853   0.858   0.866   0.876   0.882
  0.891   0.901   0.903   0.913   0.919   0.936   0.943   0.953
  0.960   0.972   0.985   0.989   0.994   1.024   1.032   1.036
  1.048   1.059   1.066   1.084   1.107   1.110   1.128   1.136
  1.153   1.160   1.164   1.184   1.196   1.210   1.221   1.233
  1.240   1.254   1.283   1.291   1.301   1.328   1.347   1.369
  1.377   1.391   1.397   1.406   1.418   1.432   1.440   1.467
  1.478   1.480   1.510   1.521   1.551   1.561   1.571   1.574
  1.604   1.628   1.639   1.681   1.731   1.752   1.767   1.783
  1.813   1.820   1.885   1.912   1.930   1.934   1.943   1.973
  1.987   1.989   2.001   2.009   2.014   2.031   2.042   2.054
  2.061   2.085   2.103   2.113   2.142   2.152   2.166   2.189
  2.217   2.222   2.246   2.257   2.289   2.311   2.318   2.342
  2.353   2.363   2.386   2.405   2.413   2.430   2.431   2.459
  2.466   2.474   2.489   2.499   2.526   2.535   2.588   2.595
  2.625   2.644   2.649   2.670   2.692   2.708   2.719   2.761
  2.770   2.793   2.826   2.847   2.856   2.872   2.909   2.924
  2.931   2.944   2.964   2.990   2.995   3.028   3.035   3.040
  3.060   3.078   3.111   3.140   3.156   3.167   3.208   3.211
  3.233   3.254   3.269   3.273   3.299   3.302   3.349   3.364
  3.379   3.388   3.397   3.404   3.438   3.449   3.466   3.499
  3.515   3.520   3.549   3.552   3.582   3.589   3.596   3.604
  3.642   3.661   3.669   3.679   3.699   3.712   3.726   3.746
  3.750   3.769   3.784   3.814   3.823   3.834   3.846   3.858
  3.893   3.918   3.941   3.996   4.040   4.109   4.120   4.138
  4.161   4.213   4.227   4.250   4.305   4.322   4.364   4.397
  4.426   4.472   4.490   4.545   4.596   4.658   4.694   4.715
  4.760   4.847   4.879   4.914   4.957   4.964   4.995   5.015
  5.074   5.093   5.149   5.183   5.251   5.280   5.326   5.359
  5.386   5.397   5.417   5.455   5.487   5.499   5.551   5.609
  5.615   5.657   5.695   5.724   5.751   5.787   5.815   5.930
  5.990   6.027   6.124   6.169   6.184   6.236   6.277   6.301
  6.328   6.405   6.476   6.547   6.624   6.669   6.679   6.724
  6.755   6.760   6.788   6.824   6.857   6.912   6.954   7.010
  7.033   7.067   7.112   7.117   7.180   7.251   7.304   7.349
  7.358   7.394   7.413   7.502   7.524   7.600   8.325  22.726
 22.876  22.998  23.069  23.640  44.287  44.388  44.475  44.562
 44.754
 --------------------------------------------------------------
 
          Ground-State Mulliken Net Atomic Charges

     Atom                 Charge (a.u.)
  ----------------------------------------
      1 C                     0.057428
      2 O                    -0.824867
      3 O                    -0.788898
      4 C                    -1.083969
      5 H                     0.367744
      6 H                     0.275930
      7 C                     0.215118
      8 H                     0.255871
      9 H                     0.152989
     10 C                     0.658996
     11 O                    -0.522672
     12 H                     0.489355
     13 O                    -0.226107
     14 O                    -0.502691
     15 C                    -1.367122
     16 H                     0.281264
     17 H                     0.301759
     18 H                     0.259874
  ----------------------------------------
  Sum of atomic charges =    -2.000000

 -----------------------------------------------------------------
                    Cartesian Multipole Moments
 -----------------------------------------------------------------
    Charge (ESU x 10^10)
                -9.6064
    Dipole Moment (Debye)
         X     -13.2370      Y     -18.5261      Z      -1.3468
       Tot      22.8090
    Quadrupole Moments (Debye-Ang)
        XX    -120.8147     XY     -36.0029     YY    -105.3168
        XZ      -1.8811     YZ      -6.2549     ZZ     -80.4839
    Octopole Moments (Debye-Ang^2)
       XXX    -196.4494    XXY    -160.5358    XYY    -118.1206
       YYY    -218.9688    XXZ       6.3330    XYZ       3.6662
       YYZ      -8.6801    XZZ     -38.2723    YZZ     -61.0947
       ZZZ      -9.2659
    Hexadecapole Moments (Debye-Ang^3)
      XXXX   -1568.2128   XXXY    -643.0966   XXYY    -645.8051
      XYYY    -566.2798   YYYY   -1184.6921   XXXZ      44.1793
      XXYZ       4.7240   XYYZ      10.3287   YYYZ     -33.9834
      XXZZ    -310.6019   XYZZ    -157.0465   YYZZ    -261.2254
      XZZZ     -11.8739   YZZZ     -51.4890   ZZZZ    -348.9884
 -----------------------------------------------------------------
 Calculating analytic gradient of the SCF energy
 Gradient of SCF Energy
            1           2           3           4           5           6
    1  -0.0270259  -0.0361002   0.0145103   0.0361919  -0.0854317  -0.0758835
    2   0.0637526  -0.0310359  -0.0111180   0.0861785  -0.0074100   0.0581140
    3  -0.0385940   0.0183730  -0.0278165  -0.1128823   0.0122249   0.0476456
            7           8           9          10          11          12
    1   0.1493674  -0.0116492  -0.0212592   0.0499207   0.0211381  -0.0580296
    2  -0.3300144   0.0596027  -0.0013441   0.1893617   0.0135834  -0.0750336
    3   0.2584217   0.0220935  -0.0804302  -0.0987714  -0.0080305   0.0206218
           13          14          15          16          17          18
    1   0.0001828   0.0598503  -0.0361238   0.0694490  -0.0285459  -0.0205614
    2  -0.0422435   0.0372870  -0.0583930  -0.0102519   0.0501545   0.0088101
    3   0.0103937  -0.0273599   0.0213097   0.0133881   0.0400274  -0.0706145
 Max gradient component =       3.300E-01
 RMS gradient           =       8.005E-02
 Computing fast CPCM-ISWIG gradient
 Updating gradient with PCM contributions...
 -- total gradient after adding PCM contribution --
---------------------------------------------------
  Atom         X              Y              Z     
---------------------------------------------------
   1       0.000012      -0.000014      -0.000002
   2       0.000012      -0.000015      -0.000003
   3       0.000024      -0.000023       0.000001
   4       0.000000      -0.000005      -0.000005
   5       0.000013      -0.000000       0.000016
   6      -0.000010       0.000001      -0.000011
   7      -0.000003      -0.000005      -0.000008
   8      -0.000012      -0.000005      -0.000021
   9       0.000007      -0.000017      -0.000010
  10      -0.000004       0.000007       0.000003
  11      -0.000012       0.000018       0.000008
  12      -0.000009       0.000018       0.000007
  13       0.000009       0.000007       0.000014
  14       0.000015       0.000002       0.000026
  15      -0.000009       0.000008      -0.000003
  16      -0.000010       0.000016       0.000006
  17      -0.000020       0.000010      -0.000013
  18      -0.000003      -0.000003      -0.000006
---------------------------------------------------
 Number of fixed atoms: 0
 Gradient time:  CPU 936.02 s  wall 66.88 s
 ######################################################
 ######################################################
 # Starting finite difference calculation for IDERIV  #
 Finite diff step size:  1.88973e-03 a.u.
 ----------------------------------------------------------------
             Standard Nuclear Orientation (Angstroms)
    I     Atom           X                Y                Z
 ----------------------------------------------------------------
    1      C       2.1227562363     1.7281259927     0.0674809121
    2      O       2.9777767620     2.4671820194    -0.5620882945
    3      O       1.8721532446     1.9407231616     1.3192592226
    4      C       1.4111441030     0.6954570177    -0.6401376098
    5      H      -0.1630680801     1.7630606841     0.2100272316
    6      H       1.8497010636     0.4282357734    -1.6032882540
    7      C       0.7194299893    -0.4342668646     0.0970169778
    8      H       1.0779601520    -1.4145501996    -0.2514959519
    9      H       0.9165467481    -0.3836679861     1.1742962461
   10      C      -0.8127960817    -0.4720052473    -0.0928916135
   11      O      -1.1189349232    -0.1873275399    -1.4271501771
   12      H      -0.4143780851     0.4497132263    -1.6844262868
   13      O      -1.4711151228     0.4826933368     0.7780643986
   14      O      -1.1291494981     1.8231173939     0.4103226941
   15      C      -1.4449215127    -1.7883778155     0.3121302124
   16      H      -2.5287418966    -1.7515550339     0.1725323550
   17      H      -1.0328619376    -2.5887187056    -0.3061529433
   18      H      -1.2261658738    -2.0072268839     1.3605982011
 ----------------------------------------------------------------
 Nuclear Repulsion Energy =   567.8255787731 hartrees
 There are       40 alpha and       40 beta electrons
 Discretize the solute cavity surface with Lebedev spheres
	Using 110 Lebedev grid points for each H atom
	Using 110 Lebedev grid points for other atoms
	Atomic van der Waals radii will be scaled by 1.20
 Remove points where switching function is < 1.0e-08
 Keep 1015 surface tesserae and discard 965 interior tesserae
 Molecular Surface Area = 179.156 Angst**2
 Requested basis set is def2-TZVPD
 There are 175 shells and 457 basis functions
 A cutoff of  1.0D-14 yielded  14329 shell pairs
 There are     98565 function pairs (    125743 Cartesian)
 Smallest overlap matrix eigenvalue = 2.92E-06
 Guess MOs from SCF MO coefficient file
 Reading MOs from coefficient file
 Reading MOs from coefficient file
 Long-range K will be added via erf
 Coulomb attenuation parameter = 0.3 bohr**(-1)
 A restricted hybrid HF-DFT SCF calculation will be
 performed using Pulay DIIS extrapolation
 Polarizable Continuum solvation model will be applied
 Exchange:     0.1670 Hartree-Fock + 1.0000 wB97X-V + LR-HF
 Correlation:  1.0000 wB97X-V
 Using SG-2 standard quadrature grid
 Nonlocal Correlation:  VV10 with C = 0.0100 and b = 6.00
 Grid used for NLC:  SG-1 standard quadrature
 SCF converges when DIIS error is below 1.0E-08
Using Q-Chem read-in guess as SCF_GUESS READ specified.

 using 16 threads for integral computing
 -------------------------------------------------------
 OpenMP Integral computing Module                
 Release: version 1.0, May 2013, Q-Chem Inc. Pittsburgh 
 -------------------------------------------------------
 using 16 threads for integral computing
 -------------------------------------------------------
 OpenMP Integral computing Module                
 Release: version 1.0, May 2013, Q-Chem Inc. Pittsburgh 
 -------------------------------------------------------
 -------------------------------------------------------
 OpenMP BLAS3 based DFT computing Module                
 Release: version 1.0, May 2013, Q-Chem Inc. Pittsburgh 
 -------------------------------------------------------
 -------------------------------------------------------
 OpenMP BLAS3 based DFT computing Module                
 Release: version 1.0, May 2013, Q-Chem Inc. Pittsburgh 
 -------------------------------------------------------
 -------------------------------------------------------
 OpenMP BLAS3 based DFT computing Module                
 Release: version 1.0, May 2013, Q-Chem Inc. Pittsburgh 
 -------------------------------------------------------
 ---------------------------------------
  Cycle       Energy         DIIS Error
 ---------------------------------------
    1    -571.3349893001      4.52E-04
    2    -571.6605717951      4.74E-04
    3    -571.6699555410      2.17E-04
    4    -571.6715002294      1.58E-04
    5    -571.6724716394      1.20E-04
    6    -571.6730042601      9.26E-05
    7    -571.6733936030      6.68E-05
    8    -571.6735755131      5.06E-05
    9    -571.6737250517      3.18E-05
   10    -571.6737992960      1.55E-05
   11    -571.6738190578      5.76E-06
   12    -571.6738219416      1.68E-06
   13    -571.6738221852      4.56E-07
   14    -571.6738222032      1.08E-07
   15    -571.6738222042      2.72E-08
   16    -571.6738222043      8.82E-09 Convergence criterion met
 ---------------------------------------

************** Final PCM Free Energy Summary **************
 G_electrostatic  =      -0.33931809 hartree =    -212.92531556 kcal/mol
 G_cavitation     =       0.00000000 hartree =       0.00000000 kcal/mol
 G_dispersion     =       0.00000000 hartree =       0.00000000 kcal/mol
 G_repulsion      =       0.00000000 hartree =       0.00000000 kcal/mol
 --------------------------------------------------
 Non-electrostatic Free Energy =       0.00000000 hartree =       0.00000000 kcal/mol
 Total                         =      -0.33931809 hartree =    -212.92531556 kcal/mol
 --------------------------------------------------
 SCF Energy (H0 + V/2)                       =    -571.67382220 
 Solute Internal Energy (H0)                 =    -571.33450411 
 Total Free Energy (H0 + V/2 + non-elec)     =    -571.67382220 hartree
                                             = -358730.73775594 kcal/mol
***********************************************************

 SCF time:  CPU 4210.85 s  wall 295.74 s
 SCF   energy in the final basis set = -571.67382220
 Total energy in the final basis set = -571.67382220
 
 --------------------------------------------------------------
 
                    Orbital Energies (a.u.)
 --------------------------------------------------------------
 
 Alpha MOs
 -- Occupied --
-19.251 -19.242 -19.202 -19.106 -19.104 -10.353 -10.305 -10.250
-10.239 -10.181  -1.242  -1.148  -1.097  -1.010  -1.000  -0.879
 -0.836  -0.736  -0.695  -0.649  -0.583  -0.574  -0.560  -0.547
 -0.517  -0.508  -0.490  -0.483  -0.475  -0.468  -0.458  -0.433
 -0.423  -0.407  -0.391  -0.350  -0.318  -0.318  -0.295  -0.232
 -- Virtual --
  0.062   0.076   0.080   0.084   0.101   0.106   0.108   0.118
  0.121   0.132   0.143   0.146   0.151   0.158   0.168   0.173
  0.176   0.183   0.189   0.191   0.208   0.211   0.221   0.232
  0.234   0.239   0.243   0.251   0.256   0.266   0.277   0.282
  0.285   0.286   0.294   0.296   0.305   0.315   0.319   0.328
  0.332   0.336   0.340   0.341   0.349   0.360   0.370   0.373
  0.380   0.381   0.388   0.390   0.400   0.409   0.410   0.413
  0.422   0.428   0.432   0.439   0.443   0.446   0.452   0.458
  0.467   0.470   0.480   0.485   0.490   0.492   0.496   0.502
  0.505   0.515   0.523   0.531   0.539   0.543   0.545   0.552
  0.559   0.562   0.568   0.580   0.585   0.592   0.598   0.604
  0.618   0.624   0.630   0.632   0.646   0.656   0.658   0.667
  0.670   0.677   0.683   0.693   0.697   0.709   0.720   0.722
  0.727   0.740   0.747   0.753   0.755   0.765   0.769   0.774
  0.781   0.784   0.788   0.800   0.807   0.814   0.820   0.823
  0.827   0.840   0.844   0.853   0.858   0.866   0.876   0.882
  0.891   0.901   0.903   0.913   0.919   0.936   0.943   0.952
  0.960   0.972   0.985   0.989   0.994   1.024   1.032   1.036
  1.048   1.059   1.066   1.084   1.106   1.110   1.128   1.136
  1.153   1.160   1.164   1.184   1.196   1.210   1.221   1.233
  1.240   1.254   1.283   1.291   1.301   1.328   1.348   1.369
  1.377   1.391   1.397   1.406   1.418   1.432   1.440   1.467
  1.478   1.480   1.510   1.521   1.551   1.561   1.571   1.574
  1.604   1.628   1.639   1.681   1.731   1.752   1.767   1.783
  1.813   1.820   1.885   1.912   1.930   1.934   1.943   1.973
  1.987   1.989   2.001   2.009   2.014   2.031   2.042   2.054
  2.061   2.085   2.103   2.113   2.142   2.152   2.166   2.189
  2.217   2.222   2.246   2.257   2.289   2.311   2.318   2.342
  2.353   2.363   2.386   2.405   2.413   2.430   2.431   2.459
  2.466   2.474   2.489   2.499   2.526   2.535   2.587   2.595
  2.625   2.644   2.649   2.670   2.692   2.708   2.719   2.761
  2.770   2.793   2.826   2.847   2.856   2.872   2.909   2.924
  2.931   2.944   2.964   2.990   2.995   3.028   3.035   3.040
  3.060   3.078   3.111   3.140   3.156   3.167   3.208   3.211
  3.233   3.254   3.269   3.273   3.299   3.302   3.349   3.364
  3.379   3.388   3.397   3.404   3.438   3.449   3.466   3.499
  3.515   3.520   3.549   3.552   3.582   3.589   3.596   3.604
  3.642   3.661   3.669   3.679   3.699   3.711   3.726   3.746
  3.750   3.769   3.784   3.814   3.823   3.834   3.846   3.858
  3.893   3.918   3.941   3.996   4.040   4.109   4.120   4.138
  4.161   4.212   4.227   4.250   4.305   4.322   4.364   4.397
  4.426   4.472   4.490   4.545   4.596   4.657   4.694   4.715
  4.760   4.847   4.879   4.914   4.957   4.964   4.995   5.014
  5.074   5.093   5.149   5.183   5.251   5.280   5.326   5.359
  5.386   5.397   5.417   5.455   5.487   5.499   5.551   5.609
  5.615   5.657   5.696   5.724   5.751   5.788   5.815   5.930
  5.990   6.027   6.124   6.169   6.184   6.236   6.277   6.301
  6.328   6.405   6.476   6.548   6.624   6.669   6.679   6.724
  6.754   6.760   6.788   6.824   6.857   6.912   6.954   7.010
  7.033   7.067   7.112   7.117   7.180   7.251   7.304   7.349
  7.358   7.394   7.413   7.502   7.524   7.600   8.325  22.726
 22.876  22.998  23.070  23.641  44.287  44.388  44.475  44.562
 44.754
 --------------------------------------------------------------
 
          Ground-State Mulliken Net Atomic Charges

     Atom                 Charge (a.u.)
  ----------------------------------------
      1 C                     0.057517
      2 O                    -0.824228
      3 O                    -0.789117
      4 C                    -1.084264
      5 H                     0.367601
      6 H                     0.275824
      7 C                     0.215446
      8 H                     0.255835
      9 H                     0.153016
     10 C                     0.658864
     11 O                    -0.522646
     12 H                     0.489252
     13 O                    -0.226126
     14 O                    -0.502729
     15 C                    -1.367122
     16 H                     0.281265
     17 H                     0.301743
     18 H                     0.259869
  ----------------------------------------
  Sum of atomic charges =    -2.000000

 -----------------------------------------------------------------
                    Cartesian Multipole Moments
 -----------------------------------------------------------------
    Charge (ESU x 10^10)
                -9.6064
    Dipole Moment (Debye)
         X     -13.2282      Y     -18.5195      Z      -1.3485
       Tot      22.7986
    Quadrupole Moments (Debye-Ang)
        XX    -120.7819     XY     -35.9748     YY    -105.2991
        XZ      -1.8899     YZ      -6.2639     ZZ     -80.4896
    Octopole Moments (Debye-Ang^2)
       XXX    -196.3290    XXY    -160.4378    XYY    -118.0471
       YYY    -218.8919    XXZ       6.3045    XYZ       3.6379
       YYZ      -8.7084    XZZ     -38.2791    YZZ     -61.0929
       ZZZ      -9.2736
    Hexadecapole Moments (Debye-Ang^3)
      XXXX   -1567.8501   XXXY    -642.7761   XXYY    -645.5699
      XYYY    -566.0517   YYYY   -1184.4322   XXXZ      44.0827
      XXYZ       4.6398   XYYZ      10.2474   YYYZ     -34.0788
      XXZZ    -310.6220   XYZZ    -157.0394   YYZZ    -261.2170
      XZZZ     -11.9171   YZZZ     -51.5272   ZZZZ    -349.0277
 -----------------------------------------------------------------
 Calculating analytic gradient of the SCF energy
 Gradient of SCF Energy
            1           2           3           4           5           6
    1  -0.0264556  -0.0364537   0.0144248   0.0361218  -0.0854696  -0.0759604
    2   0.0643044  -0.0313623  -0.0111367   0.0859324  -0.0073910   0.0581837
    3  -0.0389626   0.0186046  -0.0276516  -0.1129332   0.0122513   0.0476016
            7           8           9          10          11          12
    1   0.1493949  -0.0116324  -0.0212651   0.0499379   0.0211392  -0.0580414
    2  -0.3301064   0.0596230  -0.0013674   0.1894339   0.0135798  -0.0750435
    3   0.2584594   0.0220986  -0.0804183  -0.0987756  -0.0080309   0.0206212
           13          14          15          16          17          18
    1   0.0001858   0.0598611  -0.0361281   0.0694597  -0.0285527  -0.0205662
    2  -0.0422530   0.0372855  -0.0584063  -0.0102525   0.0501636   0.0088129
    3   0.0103871  -0.0273584   0.0213069   0.0133908   0.0400341  -0.0706252
 Max gradient component =       3.301E-01
 RMS gradient           =       8.007E-02
 Computing fast CPCM-ISWIG gradient
 Updating gradient with PCM contributions...
 -- total gradient after adding PCM contribution --
---------------------------------------------------
  Atom         X              Y              Z     
---------------------------------------------------
   1       0.000796       0.000299      -0.000172
   2      -0.000368      -0.000220       0.000135
   3      -0.000158      -0.000026       0.000078
   4      -0.000166      -0.000153      -0.000061
   5      -0.000017       0.000007       0.000025
   6      -0.000016       0.000037       0.000007
   7      -0.000036      -0.000003      -0.000013
   8      -0.000006       0.000007      -0.000025
   9       0.000008      -0.000016      -0.000009
  10      -0.000008      -0.000000       0.000007
  11      -0.000003       0.000026       0.000007
  12      -0.000021       0.000008       0.000003
  13       0.000010       0.000006       0.000014
  14       0.000028      -0.000002       0.000020
  15      -0.000010       0.000007      -0.000002
  16      -0.000010       0.000016       0.000006
  17      -0.000019       0.000010      -0.000013
  18      -0.000003      -0.000002      -0.000007
---------------------------------------------------
 Number of fixed atoms: 0
 Gradient time:  CPU 938.99 s  wall 66.95 s
 ----------------------------------------------------------------
             Standard Nuclear Orientation (Angstroms)
    I     Atom           X                Y                Z
 ----------------------------------------------------------------
    1      C       2.1207562363     1.7281259927     0.0674809121
    2      O       2.9777767620     2.4671820194    -0.5620882945
    3      O       1.8721532446     1.9407231616     1.3192592226
    4      C       1.4111441030     0.6954570177    -0.6401376098
    5      H      -0.1630680801     1.7630606841     0.2100272316
    6      H       1.8497010636     0.4282357734    -1.6032882540
    7      C       0.7194299893    -0.4342668646     0.0970169778
    8      H       1.0779601520    -1.4145501996    -0.2514959519
    9      H       0.9165467481    -0.3836679861     1.1742962461
   10      C      -0.8127960817    -0.4720052473    -0.0928916135
   11      O      -1.1189349232    -0.1873275399    -1.4271501771
   12      H      -0.4143780851     0.4497132263    -1.6844262868
   13      O      -1.4711151228     0.4826933368     0.7780643986
   14      O      -1.1291494981     1.8231173939     0.4103226941
   15      C      -1.4449215127    -1.7883778155     0.3121302124
   16      H      -2.5287418966    -1.7515550339     0.1725323550
   17      H      -1.0328619376    -2.5887187056    -0.3061529433
   18      H      -1.2261658738    -2.0072268839     1.3605982011
 ----------------------------------------------------------------
 Nuclear Repulsion Energy =   567.8400990285 hartrees
 There are       40 alpha and       40 beta electrons
 Discretize the solute cavity surface with Lebedev spheres
	Using 110 Lebedev grid points for each H atom
	Using 110 Lebedev grid points for other atoms
	Atomic van der Waals radii will be scaled by 1.20
 Remove points where switching function is < 1.0e-08
 Keep 1015 surface tesserae and discard 965 interior tesserae
 Molecular Surface Area = 179.155 Angst**2
 Requested basis set is def2-TZVPD
 There are 175 shells and 457 basis functions
 A cutoff of  1.0D-14 yielded  14329 shell pairs
 There are     98565 function pairs (    125743 Cartesian)
 Smallest overlap matrix eigenvalue = 2.92E-06
 Guess MOs from SCF MO coefficient file
 Reading MOs from coefficient file
 Reading MOs from coefficient file
 Long-range K will be added via erf
 Coulomb attenuation parameter = 0.3 bohr**(-1)
 A restricted hybrid HF-DFT SCF calculation will be
 performed using Pulay DIIS extrapolation
 Polarizable Continuum solvation model will be applied
 Exchange:     0.1670 Hartree-Fock + 1.0000 wB97X-V + LR-HF
 Correlation:  1.0000 wB97X-V
 Using SG-2 standard quadrature grid
 Nonlocal Correlation:  VV10 with C = 0.0100 and b = 6.00
 Grid used for NLC:  SG-1 standard quadrature
 SCF converges when DIIS error is below 1.0E-08
Using Q-Chem read-in guess as SCF_GUESS READ specified.

 using 16 threads for integral computing
 -------------------------------------------------------
 OpenMP Integral computing Module                
 Release: version 1.0, May 2013, Q-Chem Inc. Pittsburgh 
 -------------------------------------------------------
 using 16 threads for integral computing
 -------------------------------------------------------
 OpenMP Integral computing Module                
 Release: version 1.0, May 2013, Q-Chem Inc. Pittsburgh 
 -------------------------------------------------------
 -------------------------------------------------------
 OpenMP BLAS3 based DFT computing Module                
 Release: version 1.0, May 2013, Q-Chem Inc. Pittsburgh 
 -------------------------------------------------------
 -------------------------------------------------------
 OpenMP BLAS3 based DFT computing Module                
 Release: version 1.0, May 2013, Q-Chem Inc. Pittsburgh 
 -------------------------------------------------------
 -------------------------------------------------------
 OpenMP BLAS3 based DFT computing Module                
 Release: version 1.0, May 2013, Q-Chem Inc. Pittsburgh 
 -------------------------------------------------------
 ---------------------------------------
  Cycle       Energy         DIIS Error
 ---------------------------------------
    1    -571.3334311417      4.52E-04
    2    -571.6605957047      4.73E-04
    3    -571.6699557473      2.17E-04
    4    -571.6714977264      1.58E-04
    5    -571.6724858180      1.19E-04
    6    -571.6730399921      9.04E-05
    7    -571.6734804612      5.94E-05
    8    -571.6736794777      3.83E-05
    9    -571.6737959919      1.64E-05
   10    -571.6738203035      4.49E-06
   11    -571.6738221671      9.27E-07
   12    -571.6738222471      1.59E-07
   13    -571.6738222492      4.10E-08
   14    -571.6738222494      2.13E-08
   15    -571.6738222494      8.46E-09 Convergence criterion met
 ---------------------------------------

************** Final PCM Free Energy Summary **************
 G_electrostatic  =      -0.33942527 hartree =    -212.99256878 kcal/mol
 G_cavitation     =       0.00000000 hartree =       0.00000000 kcal/mol
 G_dispersion     =       0.00000000 hartree =       0.00000000 kcal/mol
 G_repulsion      =       0.00000000 hartree =       0.00000000 kcal/mol
 --------------------------------------------------
 Non-electrostatic Free Energy =       0.00000000 hartree =       0.00000000 kcal/mol
 Total                         =      -0.33942527 hartree =    -212.99256878 kcal/mol
 --------------------------------------------------
 SCF Energy (H0 + V/2)                       =    -571.67382225 
 Solute Internal Energy (H0)                 =    -571.33439698 
 Total Free Energy (H0 + V/2 + non-elec)     =    -571.67382225 hartree
                                             = -358730.73778428 kcal/mol
***********************************************************

 SCF time:  CPU 3928.10 s  wall 275.98 s
 SCF   energy in the final basis set = -571.67382225
 Total energy in the final basis set = -571.67382225
 
 --------------------------------------------------------------
 
                    Orbital Energies (a.u.)
 --------------------------------------------------------------
 
 Alpha MOs
 -- Occupied --
-19.251 -19.242 -19.202 -19.106 -19.104 -10.353 -10.305 -10.250
-10.239 -10.181  -1.242  -1.148  -1.097  -1.010  -1.000  -0.879
 -0.836  -0.736  -0.695  -0.649  -0.583  -0.574  -0.561  -0.547
 -0.517  -0.508  -0.490  -0.483  -0.475  -0.468  -0.458  -0.433
 -0.423  -0.407  -0.391  -0.350  -0.318  -0.318  -0.295  -0.233
 -- Virtual --
  0.062   0.076   0.080   0.084   0.101   0.106   0.108   0.118
  0.121   0.132   0.143   0.146   0.151   0.158   0.168   0.173
  0.176   0.183   0.189   0.191   0.208   0.211   0.221   0.232
  0.234   0.239   0.243   0.251   0.256   0.266   0.277   0.282
  0.285   0.286   0.294   0.296   0.305   0.315   0.319   0.328
  0.332   0.336   0.340   0.341   0.349   0.360   0.370   0.373
  0.380   0.381   0.388   0.390   0.400   0.409   0.410   0.413
  0.422   0.428   0.432   0.439   0.443   0.446   0.452   0.458
  0.467   0.470   0.480   0.485   0.490   0.492   0.496   0.502
  0.505   0.515   0.523   0.531   0.539   0.543   0.545   0.552
  0.559   0.562   0.568   0.580   0.585   0.592   0.598   0.604
  0.618   0.625   0.630   0.632   0.646   0.656   0.658   0.667
  0.670   0.677   0.683   0.693   0.697   0.709   0.720   0.722
  0.727   0.740   0.747   0.753   0.755   0.765   0.769   0.774
  0.781   0.784   0.788   0.800   0.807   0.814   0.820   0.823
  0.827   0.840   0.844   0.853   0.858   0.866   0.876   0.882
  0.891   0.901   0.903   0.913   0.919   0.936   0.943   0.953
  0.960   0.972   0.985   0.989   0.994   1.024   1.032   1.036
  1.048   1.059   1.066   1.084   1.107   1.110   1.128   1.136
  1.153   1.160   1.164   1.184   1.196   1.210   1.221   1.233
  1.240   1.254   1.283   1.291   1.301   1.328   1.347   1.369
  1.377   1.391   1.397   1.406   1.418   1.432   1.440   1.467
  1.478   1.480   1.510   1.521   1.551   1.561   1.571   1.574
  1.604   1.628   1.639   1.681   1.731   1.752   1.767   1.783
  1.813   1.820   1.885   1.912   1.930   1.934   1.943   1.973
  1.987   1.989   2.001   2.009   2.014   2.031   2.042   2.054
  2.061   2.085   2.103   2.113   2.142   2.152   2.166   2.189
  2.217   2.222   2.246   2.257   2.289   2.311   2.318   2.342
  2.353   2.363   2.386   2.405   2.413   2.430   2.431   2.458
  2.466   2.474   2.489   2.499   2.526   2.535   2.588   2.595
  2.625   2.644   2.649   2.670   2.692   2.708   2.719   2.761
  2.770   2.793   2.826   2.847   2.856   2.872   2.909   2.924
  2.931   2.944   2.964   2.990   2.995   3.027   3.035   3.040
  3.060   3.078   3.111   3.140   3.156   3.167   3.208   3.211
  3.233   3.254   3.269   3.273   3.299   3.302   3.349   3.364
  3.379   3.388   3.397   3.404   3.438   3.449   3.466   3.499
  3.515   3.520   3.549   3.552   3.582   3.589   3.596   3.604
  3.642   3.661   3.669   3.679   3.698   3.712   3.726   3.747
  3.750   3.769   3.784   3.814   3.823   3.834   3.846   3.858
  3.893   3.918   3.941   3.996   4.040   4.109   4.121   4.138
  4.160   4.213   4.227   4.251   4.305   4.322   4.364   4.397
  4.426   4.472   4.490   4.545   4.596   4.658   4.694   4.715
  4.760   4.847   4.879   4.914   4.957   4.964   4.995   5.015
  5.074   5.093   5.149   5.183   5.251   5.280   5.326   5.359
  5.386   5.397   5.417   5.455   5.487   5.499   5.551   5.609
  5.615   5.657   5.695   5.724   5.751   5.787   5.815   5.930
  5.990   6.027   6.124   6.168   6.184   6.236   6.277   6.301
  6.328   6.405   6.476   6.547   6.624   6.669   6.679   6.724
  6.755   6.760   6.788   6.824   6.857   6.912   6.954   7.010
  7.033   7.067   7.112   7.117   7.180   7.251   7.304   7.349
  7.358   7.394   7.412   7.502   7.524   7.600   8.325  22.726
 22.876  22.998  23.069  23.639  44.287  44.389  44.476  44.562
 44.754
 --------------------------------------------------------------
 
          Ground-State Mulliken Net Atomic Charges

     Atom                 Charge (a.u.)
  ----------------------------------------
      1 C                     0.057331
      2 O                    -0.825503
      3 O                    -0.788678
      4 C                    -1.083669
      5 H                     0.367885
      6 H                     0.276037
      7 C                     0.214785
      8 H                     0.255907
      9 H                     0.152963
     10 C                     0.659129
     11 O                    -0.522697
     12 H                     0.489457
     13 O                    -0.226088
     14 O                    -0.502652
     15 C                    -1.367125
     16 H                     0.281263
     17 H                     0.301775
     18 H                     0.259881
  ----------------------------------------
  Sum of atomic charges =    -2.000000

 -----------------------------------------------------------------
                    Cartesian Multipole Moments
 -----------------------------------------------------------------
    Charge (ESU x 10^10)
                -9.6064
    Dipole Moment (Debye)
         X     -13.2458      Y     -18.5328      Z      -1.3451
       Tot      22.8194
    Quadrupole Moments (Debye-Ang)
        XX    -120.8475     XY     -36.0311     YY    -105.3345
        XZ      -1.8724     YZ      -6.2459     ZZ     -80.4782
    Octopole Moments (Debye-Ang^2)
       XXX    -196.5699    XXY    -160.6338    XYY    -118.1941
       YYY    -219.0458    XXZ       6.3615    XYZ       3.6945
       YYZ      -8.6518    XZZ     -38.2655    YZZ     -61.0965
       ZZZ      -9.2582
    Hexadecapole Moments (Debye-Ang^3)
      XXXX   -1568.5755   XXXY    -643.4169   XXYY    -646.0403
      XYYY    -566.5080   YYYY   -1184.9521   XXXZ      44.2758
      XXYZ       4.8081   XYYZ      10.4098   YYYZ     -33.8881
      XXZZ    -310.5818   XYZZ    -157.0537   YYZZ    -261.2339
      XZZZ     -11.8307   YZZZ     -51.4507   ZZZZ    -348.9491
 -----------------------------------------------------------------
 Calculating analytic gradient of the SCF energy
 Gradient of SCF Energy
            1           2           3           4           5           6
    1  -0.0275953  -0.0357480   0.0145956   0.0362634  -0.0853940  -0.0758078
    2   0.0632015  -0.0307110  -0.0110991   0.0864249  -0.0074288   0.0580451
    3  -0.0382262   0.0181425  -0.0279814  -0.1128318   0.0121986   0.0476893
            7           8           9          10          11          12
    1   0.1493403  -0.0116659  -0.0212533   0.0499034   0.0211371  -0.0580179
    2  -0.3299229   0.0595827  -0.0013210   0.1892896   0.0135870  -0.0750239
    3   0.2583845   0.0220883  -0.0804422  -0.0987675  -0.0080302   0.0206224
           13          14          15          16          17          18
    1   0.0001798   0.0598397  -0.0361197   0.0694384  -0.0285391  -0.0205568
    2  -0.0422341   0.0372885  -0.0583800  -0.0102515   0.0501456   0.0088073
    3   0.0104002  -0.0273613   0.0213127   0.0133855   0.0400207  -0.0706041
 Max gradient component =       3.299E-01
 RMS gradient           =       8.002E-02
 Computing fast CPCM-ISWIG gradient
 Updating gradient with PCM contributions...
 -- total gradient after adding PCM contribution --
---------------------------------------------------
  Atom         X              Y              Z     
---------------------------------------------------
   1      -0.000771      -0.000325       0.000167
   2       0.000390       0.000188      -0.000139
   3       0.000205      -0.000019      -0.000077
   4       0.000167       0.000144       0.000052
   5       0.000043      -0.000008       0.000008
   6      -0.000004      -0.000034      -0.000029
   7       0.000031      -0.000007      -0.000004
   8      -0.000017      -0.000016      -0.000016
   9       0.000006      -0.000017      -0.000011
  10      -0.000000       0.000014      -0.000001
  11      -0.000021       0.000010       0.000008
  12       0.000003       0.000027       0.000012
  13       0.000008       0.000007       0.000014
  14       0.000003       0.000005       0.000031
  15      -0.000009       0.000008      -0.000003
  16      -0.000010       0.000016       0.000006
  17      -0.000020       0.000010      -0.000012
  18      -0.000003      -0.000003      -0.000006
---------------------------------------------------
 Number of fixed atoms: 0
 Gradient time:  CPU 946.87 s  wall 67.44 s
 ----------------------------------------------------------------
             Standard Nuclear Orientation (Angstroms)
    I     Atom           X                Y                Z
 ----------------------------------------------------------------
    1      C       2.1217562363     1.7291259927     0.0674809121
    2      O       2.9777767620     2.4671820194    -0.5620882945
    3      O       1.8721532446     1.9407231616     1.3192592226
    4      C       1.4111441030     0.6954570177    -0.6401376098
    5      H      -0.1630680801     1.7630606841     0.2100272316
    6      H       1.8497010636     0.4282357734    -1.6032882540
    7      C       0.7194299893    -0.4342668646     0.0970169778
    8      H       1.0779601520    -1.4145501996    -0.2514959519
    9      H       0.9165467481    -0.3836679861     1.1742962461
   10      C      -0.8127960817    -0.4720052473    -0.0928916135
   11      O      -1.1189349232    -0.1873275399    -1.4271501771
   12      H      -0.4143780851     0.4497132263    -1.6844262868
   13      O      -1.4711151228     0.4826933368     0.7780643986
   14      O      -1.1291494981     1.8231173939     0.4103226941
   15      C      -1.4449215127    -1.7883778155     0.3121302124
   16      H      -2.5287418966    -1.7515550339     0.1725323550
   17      H      -1.0328619376    -2.5887187056    -0.3061529433
   18      H      -1.2261658738    -2.0072268839     1.3605982011
 ----------------------------------------------------------------
 Nuclear Repulsion Energy =   567.8310200675 hartrees
 There are       40 alpha and       40 beta electrons
 Discretize the solute cavity surface with Lebedev spheres
	Using 110 Lebedev grid points for each H atom
	Using 110 Lebedev grid points for other atoms
	Atomic van der Waals radii will be scaled by 1.20
 Remove points where switching function is < 1.0e-08
 Keep 1015 surface tesserae and discard 965 interior tesserae
 Molecular Surface Area = 179.154 Angst**2
 Requested basis set is def2-TZVPD
 There are 175 shells and 457 basis functions
 A cutoff of  1.0D-14 yielded  14329 shell pairs
 There are     98565 function pairs (    125743 Cartesian)
 Smallest overlap matrix eigenvalue = 2.92E-06
 Guess MOs from SCF MO coefficient file
 Reading MOs from coefficient file
 Reading MOs from coefficient file
 Long-range K will be added via erf
 Coulomb attenuation parameter = 0.3 bohr**(-1)
 A restricted hybrid HF-DFT SCF calculation will be
 performed using Pulay DIIS extrapolation
 Polarizable Continuum solvation model will be applied
 Exchange:     0.1670 Hartree-Fock + 1.0000 wB97X-V + LR-HF
 Correlation:  1.0000 wB97X-V
 Using SG-2 standard quadrature grid
 Nonlocal Correlation:  VV10 with C = 0.0100 and b = 6.00
 Grid used for NLC:  SG-1 standard quadrature
 SCF converges when DIIS error is below 1.0E-08
Using Q-Chem read-in guess as SCF_GUESS READ specified.

 using 16 threads for integral computing
 -------------------------------------------------------
 OpenMP Integral computing Module                
 Release: version 1.0, May 2013, Q-Chem Inc. Pittsburgh 
 -------------------------------------------------------
 using 16 threads for integral computing
 -------------------------------------------------------
 OpenMP Integral computing Module                
 Release: version 1.0, May 2013, Q-Chem Inc. Pittsburgh 
 -------------------------------------------------------
 -------------------------------------------------------
 OpenMP BLAS3 based DFT computing Module                
 Release: version 1.0, May 2013, Q-Chem Inc. Pittsburgh 
 -------------------------------------------------------
 -------------------------------------------------------
 OpenMP BLAS3 based DFT computing Module                
 Release: version 1.0, May 2013, Q-Chem Inc. Pittsburgh 
 -------------------------------------------------------
 -------------------------------------------------------
 OpenMP BLAS3 based DFT computing Module                
 Release: version 1.0, May 2013, Q-Chem Inc. Pittsburgh 
 -------------------------------------------------------
 ---------------------------------------
  Cycle       Energy         DIIS Error
 ---------------------------------------
    1    -571.3354746582      4.54E-04
    2    -571.6605358487      4.75E-04
    3    -571.6699567866      2.18E-04
    4    -571.6715078058      1.58E-04
    5    -571.6724876526      1.19E-04
    6    -571.6730390244      9.06E-05
    7    -571.6734594162      6.14E-05
    8    -571.6736509729      4.21E-05
    9    -571.6737793288      2.10E-05
   10    -571.6738171894      7.20E-06
   11    -571.6738218173      1.91E-06
   12    -571.6738221461      4.24E-07
   13    -571.6738221618      9.58E-08
   14    -571.6738221626      2.19E-08
   15    -571.6738221627      8.53E-09 Convergence criterion met
 ---------------------------------------

************** Final PCM Free Energy Summary **************
 G_electrostatic  =      -0.33929735 hartree =    -212.91230053 kcal/mol
 G_cavitation     =       0.00000000 hartree =       0.00000000 kcal/mol
 G_dispersion     =       0.00000000 hartree =       0.00000000 kcal/mol
 G_repulsion      =       0.00000000 hartree =       0.00000000 kcal/mol
 --------------------------------------------------
 Non-electrostatic Free Energy =       0.00000000 hartree =       0.00000000 kcal/mol
 Total                         =      -0.33929735 hartree =    -212.91230053 kcal/mol
 --------------------------------------------------
 SCF Energy (H0 + V/2)                       =    -571.67382216 
 Solute Internal Energy (H0)                 =    -571.33452481 
 Total Free Energy (H0 + V/2 + non-elec)     =    -571.67382216 hartree
                                             = -358730.73772984 kcal/mol
***********************************************************

 SCF time:  CPU 3940.84 s  wall 276.82 s
 SCF   energy in the final basis set = -571.67382216
 Total energy in the final basis set = -571.67382216
 
 --------------------------------------------------------------
 
                    Orbital Energies (a.u.)
 --------------------------------------------------------------
 
 Alpha MOs
 -- Occupied --
-19.251 -19.242 -19.202 -19.106 -19.104 -10.353 -10.305 -10.250
-10.239 -10.181  -1.242  -1.148  -1.097  -1.010  -1.000  -0.879
 -0.836  -0.736  -0.695  -0.649  -0.583  -0.574  -0.560  -0.547
 -0.517  -0.508  -0.490  -0.483  -0.475  -0.468  -0.458  -0.433
 -0.423  -0.407  -0.391  -0.350  -0.318  -0.318  -0.295  -0.232
 -- Virtual --
  0.062   0.076   0.080   0.084   0.101   0.106   0.108   0.118
  0.121   0.132   0.143   0.146   0.151   0.158   0.168   0.173
  0.176   0.183   0.189   0.191   0.208   0.211   0.221   0.232
  0.234   0.239   0.243   0.251   0.256   0.266   0.277   0.282
  0.285   0.286   0.294   0.296   0.305   0.315   0.319   0.328
  0.332   0.336   0.340   0.341   0.349   0.360   0.370   0.373
  0.380   0.381   0.388   0.390   0.400   0.409   0.410   0.413
  0.422   0.428   0.432   0.439   0.443   0.446   0.452   0.458
  0.467   0.470   0.480   0.485   0.490   0.492   0.496   0.502
  0.505   0.515   0.523   0.531   0.539   0.543   0.545   0.552
  0.559   0.562   0.568   0.580   0.585   0.592   0.598   0.604
  0.618   0.624   0.630   0.632   0.646   0.656   0.658   0.667
  0.670   0.677   0.683   0.693   0.697   0.709   0.720   0.722
  0.727   0.740   0.747   0.753   0.755   0.765   0.769   0.774
  0.781   0.784   0.788   0.800   0.807   0.814   0.820   0.823
  0.827   0.840   0.844   0.853   0.858   0.866   0.876   0.882
  0.891   0.901   0.903   0.913   0.919   0.936   0.943   0.953
  0.960   0.972   0.985   0.989   0.994   1.024   1.032   1.036
  1.048   1.059   1.066   1.084   1.107   1.110   1.128   1.136
  1.153   1.160   1.164   1.184   1.196   1.210   1.221   1.233
  1.240   1.254   1.283   1.291   1.301   1.328   1.348   1.369
  1.377   1.391   1.397   1.406   1.418   1.432   1.440   1.467
  1.478   1.480   1.510   1.521   1.551   1.561   1.571   1.574
  1.604   1.628   1.639   1.681   1.731   1.752   1.767   1.783
  1.813   1.820   1.885   1.912   1.930   1.934   1.943   1.973
  1.987   1.989   2.000   2.009   2.014   2.031   2.042   2.054
  2.061   2.085   2.103   2.113   2.142   2.152   2.166   2.189
  2.217   2.222   2.246   2.257   2.289   2.311   2.318   2.342
  2.353   2.363   2.386   2.405   2.413   2.430   2.431   2.458
  2.466   2.474   2.489   2.499   2.526   2.535   2.588   2.595
  2.625   2.644   2.649   2.670   2.692   2.708   2.719   2.761
  2.770   2.793   2.826   2.847   2.856   2.872   2.909   2.924
  2.931   2.944   2.964   2.990   2.995   3.028   3.035   3.040
  3.060   3.078   3.111   3.140   3.156   3.167   3.208   3.211
  3.233   3.254   3.269   3.273   3.300   3.302   3.349   3.364
  3.379   3.388   3.397   3.404   3.438   3.449   3.466   3.499
  3.515   3.520   3.549   3.552   3.582   3.589   3.596   3.604
  3.642   3.661   3.669   3.679   3.699   3.712   3.726   3.746
  3.750   3.769   3.784   3.814   3.823   3.834   3.846   3.858
  3.893   3.918   3.941   3.996   4.040   4.108   4.120   4.137
  4.161   4.212   4.227   4.250   4.305   4.322   4.364   4.397
  4.426   4.472   4.489   4.545   4.595   4.657   4.694   4.715
  4.760   4.846   4.879   4.914   4.957   4.964   4.995   5.014
  5.074   5.093   5.149   5.183   5.251   5.280   5.326   5.358
  5.386   5.397   5.417   5.455   5.487   5.499   5.551   5.609
  5.615   5.657   5.696   5.724   5.751   5.788   5.815   5.930
  5.990   6.027   6.124   6.170   6.184   6.236   6.277   6.301
  6.328   6.405   6.476   6.548   6.624   6.669   6.679   6.724
  6.754   6.760   6.788   6.824   6.857   6.912   6.955   7.010
  7.033   7.067   7.112   7.117   7.180   7.251   7.304   7.349
  7.359   7.395   7.413   7.502   7.524   7.600   8.325  22.726
 22.876  22.998  23.070  23.641  44.287  44.388  44.476  44.562
 44.754
 --------------------------------------------------------------
 
          Ground-State Mulliken Net Atomic Charges

     Atom                 Charge (a.u.)
  ----------------------------------------
      1 C                     0.058248
      2 O                    -0.824367
      3 O                    -0.788667
      4 C                    -1.084851
      5 H                     0.367413
      6 H                     0.276134
      7 C                     0.215084
      8 H                     0.255849
      9 H                     0.152888
     10 C                     0.658887
     11 O                    -0.522636
     12 H                     0.489209
     13 O                    -0.226149
     14 O                    -0.502772
     15 C                    -1.367124
     16 H                     0.281250
     17 H                     0.301741
     18 H                     0.259863
  ----------------------------------------
  Sum of atomic charges =    -2.000000

 -----------------------------------------------------------------
                    Cartesian Multipole Moments
 -----------------------------------------------------------------
    Charge (ESU x 10^10)
                -9.6064
    Dipole Moment (Debye)
         X     -13.2279      Y     -18.5172      Z      -1.3438
       Tot      22.7963
    Quadrupole Moments (Debye-Ang)
        XX    -120.7867     XY     -35.9736     YY    -105.2944
        XZ      -1.8826     YZ      -6.2554     ZZ     -80.4876
    Octopole Moments (Debye-Ang^2)
       XXX    -196.3214    XXY    -160.4466    XYY    -118.0384
       YYY    -218.9038    XXZ       6.3219    XYZ       3.6543
       YYZ      -8.6880    XZZ     -38.2589    YZZ     -61.0940
       ZZZ      -9.2491
    Hexadecapole Moments (Debye-Ang^3)
      XXXX   -1567.7262   XXXY    -642.8019   XXYY    -645.5872
      XYYY    -566.0822   YYYY   -1184.5788   XXXZ      44.1203
      XXYZ       4.6777   XYYZ      10.2918   YYYZ     -34.0181
      XXZZ    -310.5603   XYZZ    -157.0248   YYZZ    -261.2353
      XZZZ     -11.8751   YZZZ     -51.4915   ZZZZ    -349.0101
 -----------------------------------------------------------------
 Calculating analytic gradient of the SCF energy
 Gradient of SCF Energy
            1           2           3           4           5           6
    1  -0.0262301  -0.0364259   0.0144924   0.0355249  -0.0854106  -0.0758957
    2   0.0644149  -0.0313364  -0.0112006   0.0859352  -0.0073941   0.0580766
    3  -0.0382917   0.0185515  -0.0279616  -0.1132933   0.0121987   0.0476023
            7           8           9          10          11          12
    1   0.1495601  -0.0116326  -0.0212570   0.0499539   0.0211428  -0.0580821
    2  -0.3300339   0.0596277  -0.0013726   0.1893983   0.0135895  -0.0750557
    3   0.2586012   0.0221027  -0.0804390  -0.0988138  -0.0080314   0.0206230
           13          14          15          16          17          18
    1   0.0001864   0.0598613  -0.0361315   0.0694622  -0.0285510  -0.0205676
    2  -0.0422462   0.0372868  -0.0584157  -0.0102524   0.0501661   0.0088123
    3   0.0103890  -0.0273580   0.0213241   0.0133893   0.0400361  -0.0706291
 Max gradient component =       3.300E-01
 RMS gradient           =       8.008E-02
 Computing fast CPCM-ISWIG gradient
 Updating gradient with PCM contributions...
 -- total gradient after adding PCM contribution --
---------------------------------------------------
  Atom         X              Y              Z     
---------------------------------------------------
   1       0.000324       0.000865       0.000086
   2      -0.000194      -0.000362       0.000119
   3       0.000025      -0.000220      -0.000103
   4      -0.000063      -0.000318      -0.000088
   5       0.000006       0.000009       0.000030
   6      -0.000032       0.000004      -0.000016
   7      -0.000037      -0.000047      -0.000010
   8      -0.000012      -0.000001      -0.000019
   9       0.000009      -0.000013      -0.000018
  10       0.000002       0.000009       0.000014
  11       0.000015       0.000041      -0.000003
  12      -0.000043       0.000001      -0.000001
  13       0.000011       0.000005       0.000011
  14       0.000029      -0.000002       0.000015
  15      -0.000009       0.000006      -0.000002
  16      -0.000009       0.000017       0.000005
  17      -0.000020       0.000010      -0.000013
  18      -0.000003      -0.000002      -0.000007
---------------------------------------------------
 Number of fixed atoms: 0
 Gradient time:  CPU 993.44 s  wall 70.56 s
 ----------------------------------------------------------------
             Standard Nuclear Orientation (Angstroms)
    I     Atom           X                Y                Z
 ----------------------------------------------------------------
    1      C       2.1217562363     1.7271259927     0.0674809121
    2      O       2.9777767620     2.4671820194    -0.5620882945
    3      O       1.8721532446     1.9407231616     1.3192592226
    4      C       1.4111441030     0.6954570177    -0.6401376098
    5      H      -0.1630680801     1.7630606841     0.2100272316
    6      H       1.8497010636     0.4282357734    -1.6032882540
    7      C       0.7194299893    -0.4342668646     0.0970169778
    8      H       1.0779601520    -1.4145501996    -0.2514959519
    9      H       0.9165467481    -0.3836679861     1.1742962461
   10      C      -0.8127960817    -0.4720052473    -0.0928916135
   11      O      -1.1189349232    -0.1873275399    -1.4271501771
   12      H      -0.4143780851     0.4497132263    -1.6844262868
   13      O      -1.4711151228     0.4826933368     0.7780643986
   14      O      -1.1291494981     1.8231173939     0.4103226941
   15      C      -1.4449215127    -1.7883778155     0.3121302124
   16      H      -2.5287418966    -1.7515550339     0.1725323550
   17      H      -1.0328619376    -2.5887187056    -0.3061529433
   18      H      -1.2261658738    -2.0072268839     1.3605982011
 ----------------------------------------------------------------
 Nuclear Repulsion Energy =   567.8346559318 hartrees
 There are       40 alpha and       40 beta electrons
 Discretize the solute cavity surface with Lebedev spheres
	Using 110 Lebedev grid points for each H atom
	Using 110 Lebedev grid points for other atoms
	Atomic van der Waals radii will be scaled by 1.20
 Remove points where switching function is < 1.0e-08
 Keep 1015 surface tesserae and discard 965 interior tesserae
 Molecular Surface Area = 179.156 Angst**2
 Requested basis set is def2-TZVPD
 There are 175 shells and 457 basis functions
 A cutoff of  1.0D-14 yielded  14329 shell pairs
 There are     98565 function pairs (    125743 Cartesian)
 Smallest overlap matrix eigenvalue = 2.92E-06
 Guess MOs from SCF MO coefficient file
 Reading MOs from coefficient file
 Reading MOs from coefficient file
 Long-range K will be added via erf
 Coulomb attenuation parameter = 0.3 bohr**(-1)
 A restricted hybrid HF-DFT SCF calculation will be
 performed using Pulay DIIS extrapolation
 Polarizable Continuum solvation model will be applied
 Exchange:     0.1670 Hartree-Fock + 1.0000 wB97X-V + LR-HF
 Correlation:  1.0000 wB97X-V
 Using SG-2 standard quadrature grid
 Nonlocal Correlation:  VV10 with C = 0.0100 and b = 6.00
 Grid used for NLC:  SG-1 standard quadrature
 SCF converges when DIIS error is below 1.0E-08
Using Q-Chem read-in guess as SCF_GUESS READ specified.

 using 16 threads for integral computing
 -------------------------------------------------------
 OpenMP Integral computing Module                
 Release: version 1.0, May 2013, Q-Chem Inc. Pittsburgh 
 -------------------------------------------------------
 using 16 threads for integral computing
 -------------------------------------------------------
 OpenMP Integral computing Module                
 Release: version 1.0, May 2013, Q-Chem Inc. Pittsburgh 
 -------------------------------------------------------
 -------------------------------------------------------
 OpenMP BLAS3 based DFT computing Module                
 Release: version 1.0, May 2013, Q-Chem Inc. Pittsburgh 
 -------------------------------------------------------
 -------------------------------------------------------
 OpenMP BLAS3 based DFT computing Module                
 Release: version 1.0, May 2013, Q-Chem Inc. Pittsburgh 
 -------------------------------------------------------
 -------------------------------------------------------
 OpenMP BLAS3 based DFT computing Module                
 Release: version 1.0, May 2013, Q-Chem Inc. Pittsburgh 
 -------------------------------------------------------
 ---------------------------------------
  Cycle       Energy         DIIS Error
 ---------------------------------------
    1    -571.3334587588      4.51E-04
    2    -571.6606401102      4.71E-04
    3    -571.6699592351      2.17E-04
    4    -571.6714954277      1.58E-04
    5    -571.6724829747      1.19E-04
    6    -571.6730370807      9.05E-05
    7    -571.6734749820      5.98E-05
    8    -571.6736770562      3.86E-05
    9    -571.6737959371      1.64E-05
   10    -571.6738201632      4.49E-06
   11    -571.6738220324      9.03E-07
   12    -571.6738221084      1.60E-07
   13    -571.6738221105      4.04E-08
   14    -571.6738221106      2.08E-08
   15    -571.6738221107      8.82E-09 Convergence criterion met
 ---------------------------------------

************** Final PCM Free Energy Summary **************
 G_electrostatic  =      -0.33944606 hartree =    -213.00561477 kcal/mol
 G_cavitation     =       0.00000000 hartree =       0.00000000 kcal/mol
 G_dispersion     =       0.00000000 hartree =       0.00000000 kcal/mol
 G_repulsion      =       0.00000000 hartree =       0.00000000 kcal/mol
 --------------------------------------------------
 Non-electrostatic Free Energy =       0.00000000 hartree =       0.00000000 kcal/mol
 Total                         =      -0.33944606 hartree =    -213.00561477 kcal/mol
 --------------------------------------------------
 SCF Energy (H0 + V/2)                       =    -571.67382211 
 Solute Internal Energy (H0)                 =    -571.33437606 
 Total Free Energy (H0 + V/2 + non-elec)     =    -571.67382211 hartree
                                             = -358730.73769722 kcal/mol
***********************************************************

 SCF time:  CPU 3970.27 s  wall 2051.87 s
 SCF   energy in the final basis set = -571.67382211
 Total energy in the final basis set = -571.67382211
 
 --------------------------------------------------------------
 
                    Orbital Energies (a.u.)
 --------------------------------------------------------------
 
 Alpha MOs
 -- Occupied --
-19.251 -19.242 -19.202 -19.106 -19.104 -10.353 -10.305 -10.250
-10.239 -10.181  -1.242  -1.148  -1.097  -1.010  -0.999  -0.879
 -0.836  -0.736  -0.695  -0.649  -0.583  -0.574  -0.561  -0.547
 -0.517  -0.508  -0.490  -0.483  -0.475  -0.468  -0.458  -0.433
 -0.423  -0.407  -0.391  -0.350  -0.318  -0.318  -0.295  -0.233
 -- Virtual --
  0.062   0.076   0.080   0.084   0.101   0.106   0.108   0.118
  0.121   0.132   0.143   0.146   0.151   0.158   0.168   0.173
  0.176   0.183   0.189   0.191   0.208   0.211   0.221   0.232
  0.234   0.239   0.243   0.251   0.256   0.266   0.277   0.282
  0.285   0.286   0.294   0.296   0.305   0.315   0.319   0.328
  0.332   0.336   0.340   0.341   0.349   0.360   0.370   0.373
  0.380   0.381   0.388   0.390   0.400   0.409   0.410   0.413
  0.422   0.428   0.432   0.439   0.443   0.446   0.452   0.458
  0.467   0.470   0.480   0.485   0.490   0.492   0.496   0.502
  0.505   0.515   0.523   0.531   0.539   0.543   0.545   0.552
  0.559   0.562   0.568   0.580   0.585   0.592   0.598   0.604
  0.618   0.625   0.630   0.632   0.646   0.656   0.658   0.667
  0.670   0.677   0.683   0.693   0.697   0.709   0.720   0.722
  0.727   0.740   0.747   0.753   0.755   0.765   0.769   0.774
  0.781   0.784   0.788   0.800   0.807   0.814   0.820   0.823
  0.827   0.840   0.844   0.853   0.858   0.866   0.876   0.882
  0.891   0.901   0.903   0.913   0.919   0.936   0.943   0.953
  0.960   0.972   0.985   0.989   0.994   1.024   1.032   1.036
  1.048   1.059   1.066   1.084   1.107   1.110   1.128   1.136
  1.153   1.160   1.164   1.184   1.196   1.210   1.221   1.233
  1.240   1.254   1.283   1.291   1.301   1.328   1.347   1.369
  1.377   1.391   1.397   1.406   1.418   1.432   1.440   1.467
  1.478   1.480   1.510   1.521   1.551   1.561   1.571   1.574
  1.604   1.628   1.639   1.681   1.731   1.752   1.767   1.783
  1.813   1.820   1.885   1.912   1.930   1.934   1.943   1.973
  1.987   1.989   2.001   2.009   2.014   2.031   2.042   2.054
  2.061   2.085   2.103   2.113   2.142   2.151   2.166   2.189
  2.217   2.222   2.246   2.257   2.289   2.311   2.318   2.342
  2.353   2.363   2.386   2.404   2.413   2.430   2.431   2.459
  2.466   2.474   2.489   2.498   2.526   2.535   2.587   2.595
  2.625   2.644   2.649   2.670   2.692   2.708   2.719   2.761
  2.770   2.793   2.826   2.847   2.856   2.872   2.909   2.924
  2.931   2.944   2.964   2.990   2.995   3.028   3.035   3.040
  3.060   3.078   3.111   3.139   3.156   3.167   3.208   3.211
  3.233   3.254   3.269   3.273   3.299   3.302   3.349   3.364
  3.379   3.388   3.397   3.404   3.438   3.449   3.466   3.499
  3.515   3.520   3.549   3.552   3.582   3.589   3.596   3.604
  3.642   3.661   3.669   3.679   3.699   3.712   3.726   3.746
  3.750   3.769   3.784   3.814   3.823   3.834   3.846   3.858
  3.893   3.918   3.941   3.996   4.040   4.109   4.120   4.138
  4.161   4.213   4.227   4.251   4.305   4.322   4.364   4.397
  4.426   4.472   4.490   4.545   4.596   4.658   4.694   4.715
  4.760   4.847   4.879   4.914   4.957   4.964   4.995   5.015
  5.074   5.093   5.149   5.183   5.251   5.280   5.326   5.359
  5.386   5.397   5.417   5.455   5.487   5.499   5.551   5.609
  5.615   5.657   5.695   5.723   5.751   5.787   5.815   5.930
  5.990   6.027   6.124   6.168   6.184   6.236   6.276   6.301
  6.328   6.406   6.476   6.546   6.624   6.669   6.679   6.724
  6.755   6.760   6.788   6.824   6.857   6.912   6.953   7.010
  7.033   7.067   7.112   7.117   7.180   7.251   7.303   7.349
  7.358   7.394   7.412   7.502   7.524   7.600   8.325  22.726
 22.876  22.998  23.069  23.638  44.287  44.389  44.475  44.562
 44.754
 --------------------------------------------------------------
 
          Ground-State Mulliken Net Atomic Charges

     Atom                 Charge (a.u.)
  ----------------------------------------
      1 C                     0.056601
      2 O                    -0.825363
      3 O                    -0.789128
      4 C                    -1.083083
      5 H                     0.368073
      6 H                     0.275728
      7 C                     0.215147
      8 H                     0.255895
      9 H                     0.153091
     10 C                     0.659104
     11 O                    -0.522707
     12 H                     0.489498
     13 O                    -0.226065
     14 O                    -0.502610
     15 C                    -1.367123
     16 H                     0.281279
     17 H                     0.301777
     18 H                     0.259887
  ----------------------------------------
  Sum of atomic charges =    -2.000000

 -----------------------------------------------------------------
                    Cartesian Multipole Moments
 -----------------------------------------------------------------
    Charge (ESU x 10^10)
                -9.6064
    Dipole Moment (Debye)
         X     -13.2461      Y     -18.5351      Z      -1.3498
       Tot      22.8217
    Quadrupole Moments (Debye-Ang)
        XX    -120.8428     XY     -36.0323     YY    -105.3392
        XZ      -1.8796     YZ      -6.2544     ZZ     -80.4803
    Octopole Moments (Debye-Ang^2)
       XXX    -196.5776    XXY    -160.6251    XYY    -118.2028
       YYY    -219.0338    XXZ       6.3441    XYZ       3.6781
       YYZ      -8.6721    XZZ     -38.2857    YZZ     -61.0954
       ZZZ      -9.2826
    Hexadecapole Moments (Debye-Ang^3)
      XXXX   -1568.7002   XXXY    -643.3914   XXYY    -646.0229
      XYYY    -566.4771   YYYY   -1184.8047   XXXZ      44.2381
      XXYZ       4.7702   XYYZ      10.3654   YYYZ     -33.9487
      XXZZ    -310.6434   XYZZ    -157.0684   YYZZ    -261.2156
      XZZZ     -11.8727   YZZZ     -51.4864   ZZZZ    -348.9668
 -----------------------------------------------------------------
 Calculating analytic gradient of the SCF energy
 Gradient of SCF Energy
            1           2           3           4           5           6
    1  -0.0278212  -0.0357761   0.0145281   0.0368609  -0.0854533  -0.0758728
    2   0.0630883  -0.0307358  -0.0110352   0.0864230  -0.0074257   0.0581525
    3  -0.0388983   0.0181952  -0.0276713  -0.1124707   0.0122512   0.0476888
            7           8           9          10          11          12
    1   0.1491753  -0.0116656  -0.0212613   0.0498877   0.0211335  -0.0579772
    2  -0.3299957   0.0595781  -0.0013157   0.1893256   0.0135773  -0.0750119
    3   0.2582432   0.0220843  -0.0804216  -0.0987294  -0.0080296   0.0206207
           13          14          15          16          17          18
    1   0.0001791   0.0598396  -0.0361163   0.0694360  -0.0285409  -0.0205554
    2  -0.0422410   0.0372873  -0.0583706  -0.0102515   0.0501431   0.0088079
    3   0.0103983  -0.0273617   0.0212956   0.0133869   0.0400189  -0.0706003
 Max gradient component =       3.300E-01
 RMS gradient           =       8.002E-02
 Computing fast CPCM-ISWIG gradient
 Updating gradient with PCM contributions...
 -- total gradient after adding PCM contribution --
---------------------------------------------------
  Atom         X              Y              Z     
---------------------------------------------------
   1      -0.000300      -0.000893      -0.000092
   2       0.000217       0.000331      -0.000123
[...]
 O          0.026  0.071 -0.018    0.007  0.017 -0.012   -0.004 -0.025  0.004
 C          0.088 -0.025 -0.073    0.096 -0.050  0.105   -0.011  0.038  0.079
 H          0.094  0.507  0.004    0.159  0.508 -0.283    0.017 -0.054 -0.153
 H         -0.352 -0.442  0.183   -0.206 -0.022 -0.133    0.133  0.306 -0.182
 H         -0.055  0.296  0.024   -0.410 -0.493  0.110   -0.091 -0.324  0.013
 TransDip  -0.016 -0.218 -0.302    0.033 -0.037  0.193   -0.009 -0.007  0.109

 Mode:                25                     26                     27
 Frequency:      1037.34                1102.34                1112.23
 Force Cnst:      5.6082                 1.2565                 1.6690
 Red. Mass:       8.8456                 1.7549                 2.2899
 IR Active:          YES                    YES                    YES
 IR Intens:        6.027                 90.406                 18.813
 Raman Active:       YES                    YES                    YES
               X      Y      Z        X      Y      Z        X      Y      Z
 C         -0.000 -0.001  0.003    0.001  0.000  0.018   -0.026 -0.006 -0.014
 O          0.008  0.006 -0.006   -0.030 -0.026  0.019    0.062  0.055 -0.028
 O         -0.002  0.001  0.007    0.012 -0.015 -0.079   -0.007  0.002  0.039
 C         -0.013 -0.006 -0.005    0.036  0.098  0.009   -0.127 -0.137  0.127
 H         -0.155 -0.066 -0.103    0.021  0.030  0.033    0.012  0.016  0.014
 H         -0.009 -0.021  0.000    0.351  0.513  0.035   -0.070 -0.364  0.218
 C         -0.004 -0.016 -0.007   -0.037 -0.084  0.036    0.044  0.042 -0.140
 H         -0.063 -0.058  0.045   -0.354 -0.258  0.199    0.002 -0.019 -0.002
 H         -0.067 -0.026  0.004    0.060  0.045  0.017    0.402  0.505 -0.226
 C          0.060  0.023 -0.049   -0.010  0.117  0.089    0.019  0.114  0.078
 O          0.007 -0.000  0.033    0.004 -0.006 -0.009    0.018 -0.003 -0.000
 H         -0.098  0.033 -0.143   -0.069  0.000 -0.136   -0.101  0.013 -0.210
 O          0.075  0.531 -0.103    0.016 -0.039 -0.014   -0.000 -0.029 -0.006
 O         -0.106 -0.414  0.140    0.001  0.019 -0.008    0.006  0.009 -0.008
 C          0.048 -0.134 -0.040    0.022 -0.069 -0.071   -0.026 -0.058 -0.058
 H          0.040  0.185  0.041   -0.005  0.102  0.158   -0.059 -0.078  0.179
 H         -0.300 -0.463  0.154   -0.177 -0.356  0.180   -0.088 -0.257  0.163
 H         -0.131  0.024  0.036   -0.013  0.242  0.011    0.042  0.190 -0.010
 TransDip  -0.006  0.001 -0.078   -0.119  0.131  0.248   -0.085  0.094  0.057

 Mode:                28                     29                     30
 Frequency:      1153.42                1230.39                1242.20
 Force Cnst:      1.4454                 2.1177                 2.1905
 Red. Mass:       1.8441                 2.3742                 2.4094
 IR Active:          YES                    YES                    YES
 IR Intens:      187.198                227.940                181.834
 Raman Active:       YES                    YES                    YES
               X      Y      Z        X      Y      Z        X      Y      Z
 C         -0.014 -0.014 -0.016    0.048  0.071  0.000    0.047  0.079 -0.005
 O          0.004  0.002 -0.002   -0.038 -0.039  0.022   -0.054 -0.052  0.031
 O         -0.000  0.005  0.017   -0.002 -0.006  0.001    0.004 -0.008 -0.014
 C         -0.005  0.031 -0.033   -0.000  0.013 -0.018    0.064  0.069 -0.016
 H          0.007 -0.076  0.018    0.010 -0.032  0.012    0.004  0.022  0.013
 H         -0.005 -0.083 -0.001   -0.304 -0.392 -0.049   -0.315 -0.510 -0.031
 C         -0.018 -0.020 -0.011    0.149 -0.006 -0.039   -0.043 -0.023 -0.080
 H         -0.073 -0.071  0.076    0.160 -0.051  0.091    0.297  0.042  0.104
 H         -0.421 -0.177  0.070   -0.527 -0.212  0.102   -0.440 -0.120  0.007
 C          0.179  0.112 -0.071   -0.167  0.199 -0.069    0.089 -0.063  0.247
 O          0.041  0.009  0.053    0.018 -0.040  0.052   -0.021  0.016 -0.081
 H         -0.294  0.045 -0.588    0.065  0.009  0.195    0.055 -0.026  0.067
 O         -0.038 -0.014  0.031    0.020 -0.038 -0.007   -0.008  0.015 -0.014
 O          0.006 -0.001 -0.011    0.000  0.009 -0.005   -0.005 -0.002  0.002
 C         -0.098 -0.032  0.043    0.063 -0.054  0.007   -0.035  0.011 -0.081
 H         -0.110 -0.417  0.059    0.051  0.124  0.013   -0.061 -0.020  0.193
 H          0.099  0.061  0.032   -0.261 -0.209 -0.004    0.156 -0.048  0.136
 H          0.047 -0.210 -0.019   -0.275 -0.079  0.073    0.183  0.277 -0.060
 TransDip  -0.128 -0.147 -0.393    0.170  0.451 -0.039    0.276  0.169  0.286

 Mode:                31                     32                     33
 Frequency:      1270.35                1322.17                1387.48
 Force Cnst:      1.6630                 1.7923                 1.6039
 Red. Mass:       1.7490                 1.7402                 1.4140
 IR Active:          YES                    YES                    YES
 IR Intens:      666.233                156.674                264.546
 Raman Active:       YES                    YES                    YES
               X      Y      Z        X      Y      Z        X      Y      Z
 C         -0.089 -0.155 -0.059    0.045  0.045 -0.051   -0.006 -0.035 -0.083
 O          0.061  0.062 -0.033   -0.047 -0.043  0.029   -0.002 -0.000  0.008
 O         -0.003  0.023  0.060   -0.001 -0.001  0.005   -0.005  0.009  0.039
 C          0.006 -0.003 -0.020    0.071  0.086  0.000    0.004  0.050  0.023
 H         -0.006  0.057 -0.047    0.006 -0.039  0.013   -0.005  0.000 -0.012
 H          0.224  0.290  0.003   -0.134 -0.299  0.004   -0.011 -0.120  0.065
 C         -0.019 -0.029  0.008   -0.121 -0.120  0.043    0.057  0.021 -0.023
 H          0.707  0.304 -0.118    0.459  0.172 -0.140   -0.274 -0.180  0.165
 H         -0.340 -0.131  0.074    0.520  0.320 -0.103   -0.044 -0.084  0.004
 C         -0.063  0.035  0.077   -0.044  0.030 -0.051   -0.059 -0.043  0.006
 O          0.020  0.005 -0.003    0.030  0.009  0.032    0.028  0.015  0.012
 H         -0.068  0.011 -0.120   -0.173  0.028 -0.358   -0.131  0.019 -0.279
 O         -0.001 -0.006 -0.007    0.002 -0.004  0.002    0.008  0.003 -0.003
 O          0.002 -0.000  0.001   -0.003  0.004 -0.000   -0.001  0.002  0.002
 C          0.021 -0.018 -0.020    0.024 -0.016  0.026   -0.030 -0.099  0.038
 H          0.013  0.120  0.061    0.035  0.083 -0.065    0.021  0.429 -0.180
 H         -0.018 -0.049  0.006   -0.056  0.017 -0.069    0.217  0.315 -0.318
 H         -0.048  0.097  0.020   -0.054 -0.020  0.035    0.194  0.442  0.095
 TransDip  -0.630 -0.506 -0.174   -0.030  0.016 -0.399   -0.200 -0.100 -0.470

 Mode:                34                     35                     36
 Frequency:      1402.57                1426.60                1439.54
 Force Cnst:      4.4358                 2.2540                 1.7063
 Red. Mass:       3.8271                 1.8798                 1.3976
 IR Active:          YES                    YES                    YES
 IR Intens:      795.691                664.605                225.305
 Raman Active:       YES                    YES                    YES
               X      Y      Z        X      Y      Z        X      Y      Z
 C         -0.105  0.043  0.399   -0.117 -0.112  0.032   -0.081 -0.068  0.056
 O          0.055  0.038 -0.062    0.042  0.037 -0.026    0.029  0.025 -0.022
 O          0.033 -0.034 -0.181    0.010  0.006 -0.009    0.011  0.004 -0.021
 C         -0.007 -0.068 -0.076    0.059  0.125  0.017    0.047  0.078 -0.003
 H          0.012 -0.097  0.120   -0.006  0.079 -0.021   -0.004  0.016  0.001
 H         -0.169 -0.115 -0.132   -0.163 -0.389  0.074   -0.134 -0.237  0.012
 C         -0.038  0.018  0.003    0.010  0.019 -0.039    0.048 -0.072  0.041
 H          0.378  0.116  0.139   -0.138 -0.231  0.466   -0.327  0.023 -0.565
 H          0.162 -0.244 -0.009    0.238 -0.289 -0.060   -0.323  0.586  0.071
 C         -0.007  0.041 -0.008   -0.074 -0.080  0.017    0.001 -0.007  0.002
 O          0.015  0.004  0.011    0.021  0.015  0.008   -0.005 -0.001 -0.003
 H         -0.099  0.027 -0.225   -0.094  0.000 -0.200    0.034 -0.014  0.078
 O          0.006 -0.002 -0.001    0.007 -0.001 -0.005   -0.001  0.001  0.000
 O         -0.005  0.004 -0.004    0.003  0.003  0.002    0.001 -0.001  0.000
 C         -0.029 -0.095  0.028    0.057  0.092 -0.014   -0.002 -0.001  0.002
 H          0.000  0.316 -0.077    0.034 -0.285  0.026    0.004  0.022 -0.037
 H          0.172  0.215 -0.229   -0.255 -0.151  0.090    0.004 -0.004  0.007
 H          0.101  0.320  0.083   -0.165 -0.206 -0.033    0.045  0.004 -0.008
 TransDip  -0.213  0.112  0.871   -0.621 -0.544  0.026   -0.390 -0.237  0.152

 Mode:                37                     38                     39
 Frequency:      1468.62                1474.01                1477.86
 Force Cnst:      1.5536                 1.3474                 1.9884
 Red. Mass:       1.2226                 1.0525                 1.5452
 IR Active:          YES                    YES                    YES
 IR Intens:       24.049                  4.438                 15.383
 Raman Active:       YES                    YES                    YES
               X      Y      Z        X      Y      Z        X      Y      Z
 C         -0.033 -0.043 -0.014   -0.003 -0.003 -0.000   -0.044 -0.061 -0.028
 O          0.011  0.011 -0.006    0.001  0.001 -0.000    0.015  0.015 -0.007
 O          0.001  0.005  0.009    0.000  0.000 -0.000    0.001  0.008  0.016
 C          0.024  0.044  0.012    0.002  0.007  0.002    0.037  0.059  0.020
 H         -0.004  0.023 -0.027   -0.003 -0.052  0.012   -0.005  0.094 -0.060
 H         -0.053 -0.097  0.020   -0.006 -0.020  0.006   -0.066 -0.110  0.027
 C         -0.020 -0.010 -0.006    0.006  0.002  0.004   -0.050 -0.019 -0.005
 H          0.062 -0.038  0.154   -0.059 -0.023 -0.003    0.059 -0.030  0.149
 H          0.142 -0.093 -0.034    0.026  0.015 -0.002    0.189 -0.063 -0.052
 C          0.017  0.071 -0.042   -0.013 -0.021 -0.027    0.114  0.090 -0.053
 O         -0.019 -0.017 -0.001    0.006  0.003  0.006   -0.047 -0.028 -0.014
 H          0.131 -0.028  0.285   -0.028  0.008 -0.059    0.256 -0.052  0.559
 O         -0.005 -0.003  0.005    0.002  0.002  0.001   -0.020 -0.002  0.013
 O          0.003 -0.005 -0.001   -0.002  0.003  0.000    0.008 -0.012 -0.002
 C         -0.064 -0.022  0.003    0.005 -0.007 -0.049   -0.006 -0.062  0.009
 H         -0.012  0.382 -0.193   -0.072  0.273  0.638   -0.041 -0.179  0.179
 H          0.318 -0.146  0.405    0.493  0.126  0.122   -0.067  0.202 -0.369
 H          0.460 -0.319 -0.161   -0.432 -0.189  0.016   -0.272  0.361  0.151
 TransDip   0.029 -0.154  0.008   -0.051 -0.031  0.031    0.010 -0.122  0.030

 Mode:                40                     41                     42
 Frequency:      1530.72                3000.44                3064.57
 Force Cnst:      1.5406                 5.6625                 5.7326
 Red. Mass:       1.1160                 1.0676                 1.0360
 IR Active:          YES                    YES                    YES
 IR Intens:       92.698                135.703                 26.238
 Raman Active:       YES                    YES                    YES
               X      Y      Z        X      Y      Z        X      Y      Z
 C          0.013  0.021  0.016    0.000  0.001  0.001    0.000  0.000  0.000
 O         -0.006 -0.006  0.002   -0.000 -0.000  0.000   -0.000 -0.000  0.000
 O         -0.000 -0.004 -0.009    0.000 -0.000 -0.001   -0.000 -0.000 -0.000
 C         -0.008 -0.011 -0.003   -0.003  0.001  0.006   -0.001  0.000  0.001
 H          0.051  0.967 -0.204    0.004  0.002 -0.000   -0.002  0.001  0.000
 H         -0.020  0.012 -0.019    0.026 -0.018 -0.066    0.007 -0.005 -0.018
 C          0.008 -0.006  0.003    0.032 -0.066  0.001    0.001 -0.004 -0.004
 H          0.004 -0.003 -0.019   -0.315  0.824  0.311   -0.016  0.041  0.015
 H         -0.011  0.007  0.006   -0.057 -0.028 -0.329    0.006  0.002  0.036
 C         -0.007 -0.002 -0.008   -0.001 -0.002 -0.001    0.001  0.002 -0.001
 O          0.006  0.002  0.002   -0.000 -0.000  0.000    0.000  0.000  0.000
 H         -0.032  0.003 -0.084    0.002  0.004 -0.005   -0.001 -0.002  0.002
 O         -0.044 -0.012  0.019    0.000  0.000  0.000   -0.000  0.000  0.000
 O          0.040 -0.045 -0.002   -0.000  0.000  0.000    0.000 -0.000 -0.000
 C         -0.000 -0.000  0.001   -0.000  0.002  0.001   -0.026 -0.040  0.016
 H         -0.002  0.038  0.017   -0.015  0.003 -0.002    0.618 -0.029  0.084
 H          0.039  0.013  0.011    0.013 -0.024 -0.020   -0.198  0.369  0.294
 H         -0.008 -0.021 -0.001    0.003 -0.002  0.013   -0.121  0.112 -0.561
 TransDip   0.002  0.308  0.017    0.023 -0.367  0.063   -0.096 -0.129  0.034

 Mode:                43                     44                     45
 Frequency:      3076.69                3106.15                3142.55
 Force Cnst:      6.1014                 6.1739                 6.4211
 Red. Mass:       1.0940                 1.0861                 1.1036
 IR Active:          YES                    YES                    YES
 IR Intens:       26.549                104.760                 30.833
 Raman Active:       YES                    YES                    YES
               X      Y      Z        X      Y      Z        X      Y      Z
 C         -0.000 -0.001 -0.001    0.004  0.002 -0.001    0.000 -0.000 -0.000
 O          0.000  0.000  0.000   -0.001 -0.000  0.000   -0.000  0.000 -0.000
 O         -0.000 -0.000  0.001   -0.001 -0.000  0.000   -0.000 -0.000  0.000
 C         -0.005  0.004  0.013    0.031 -0.021 -0.074    0.000 -0.000 -0.001
 H         -0.006  0.001 -0.001    0.007  0.002 -0.002   -0.000  0.001 -0.000
 H          0.062 -0.040 -0.152   -0.392  0.240  0.865   -0.004  0.002  0.008
 C         -0.006 -0.025 -0.083    0.001 -0.011 -0.014    0.000 -0.000 -0.001
 H         -0.102  0.266  0.094   -0.039  0.110  0.040    0.001  0.002  0.000
 H          0.173  0.047  0.915    0.025  0.006  0.132    0.002  0.000  0.008
 C          0.001 -0.001 -0.002   -0.000 -0.000 -0.000   -0.002  0.000 -0.001
 O          0.000  0.000  0.000   -0.000 -0.000  0.000   -0.000 -0.000  0.000
 H          0.000 -0.002  0.002    0.007  0.005 -0.006    0.004  0.005 -0.002
 O          0.000  0.000  0.000    0.000 -0.000  0.000    0.000 -0.000 -0.000
 O          0.000  0.000 -0.000   -0.001  0.000  0.000    0.000 -0.000  0.000
 C          0.000  0.004  0.002    0.000 -0.000  0.001   -0.071  0.019 -0.057
 H         -0.030  0.001 -0.003    0.001  0.001  0.000    0.709 -0.025  0.085
 H          0.021 -0.039 -0.031    0.001 -0.001 -0.000    0.023 -0.064 -0.063
 H          0.003 -0.003  0.014   -0.003  0.003 -0.015    0.128 -0.135  0.662
 TransDip  -0.029  0.008 -0.162    0.170 -0.057 -0.274   -0.141  0.030 -0.104

 Mode:                46                     47                     48
 Frequency:      3152.36                3388.54                3459.67
 Force Cnst:      6.4587                 7.2335                 7.5122
 Red. Mass:       1.1031                 1.0692                 1.0652
 IR Active:          YES                    YES                    YES
 IR Intens:       26.082                608.385                972.542
 Raman Active:       YES                    YES                    YES
               X      Y      Z        X      Y      Z        X      Y      Z
 C         -0.000 -0.000 -0.000   -0.003 -0.000 -0.000   -0.002 -0.004 -0.002
 O          0.000  0.000 -0.000    0.001  0.000 -0.000    0.001  0.001 -0.000
 O         -0.000  0.000  0.000    0.000 -0.000  0.000   -0.000  0.001  0.001
 C          0.000  0.000  0.000    0.001 -0.001 -0.002    0.004  0.002  0.003
 H         -0.005 -0.000  0.001    0.957 -0.042 -0.166    0.222 -0.011 -0.039
 H         -0.001  0.000  0.001    0.012 -0.010 -0.000   -0.004 -0.001 -0.012
 C          0.000 -0.002 -0.003    0.000  0.001 -0.001   -0.001  0.001 -0.001
 H         -0.010  0.026  0.009   -0.002 -0.001 -0.001    0.001 -0.006 -0.001
 H          0.005  0.001  0.024    0.001 -0.000  0.005   -0.003  0.001  0.003
 C          0.001 -0.001 -0.002    0.001 -0.001 -0.003   -0.000 -0.003  0.005
 O         -0.000 -0.000  0.000    0.010  0.009 -0.004   -0.042 -0.039  0.017
 H          0.004  0.005 -0.002   -0.149 -0.151  0.080    0.662  0.634 -0.325
 O         -0.000  0.000  0.000   -0.000  0.002  0.000    0.000  0.000 -0.001
 O          0.000  0.000 -0.000   -0.061  0.002  0.012   -0.014  0.000  0.003
 C          0.043 -0.045 -0.069   -0.000 -0.000  0.000   -0.000  0.000  0.000
 H         -0.294  0.005 -0.050   -0.000 -0.001  0.000   -0.001 -0.000 -0.000
 H         -0.321  0.624  0.480   -0.001  0.006  0.002    0.001 -0.001 -0.001
 H          0.093 -0.092  0.401    0.000 -0.001  0.003   -0.001  0.003 -0.008
 TransDip   0.092 -0.064 -0.119    0.721 -0.139 -0.291    0.907  0.418  0.029

 STANDARD THERMODYNAMIC QUANTITIES AT   298.15 K  AND     1.00 ATM

   This Molecule has  1 Imaginary Frequencies
   Zero point vibrational energy:       83.312 kcal/mol

   Atom    1 Element C  Has Mass   12.00000
   Atom    2 Element O  Has Mass   15.99491
   Atom    3 Element O  Has Mass   15.99491
   Atom    4 Element C  Has Mass   12.00000
   Atom    5 Element H  Has Mass    1.00783
   Atom    6 Element H  Has Mass    1.00783
   Atom    7 Element C  Has Mass   12.00000
   Atom    8 Element H  Has Mass    1.00783
   Atom    9 Element H  Has Mass    1.00783
   Atom   10 Element C  Has Mass   12.00000
   Atom   11 Element O  Has Mass   15.99491
   Atom   12 Element H  Has Mass    1.00783
   Atom   13 Element O  Has Mass   15.99491
   Atom   14 Element O  Has Mass   15.99491
   Atom   15 Element C  Has Mass   12.00000
   Atom   16 Element H  Has Mass    1.00783
   Atom   17 Element H  Has Mass    1.00783
   Atom   18 Element H  Has Mass    1.00783
   Molecular Mass:   148.037190 amu
   Principal axes and moments of inertia in amu*Bohr^2:
                             1           2           3
    Eigenvalues --      726.02242  2209.90889  2381.84179
          X               0.81007    -0.49532     0.31377
          Y               0.58588     0.66270    -0.46645
          Z               0.02311     0.56169     0.82703
   Rotational Symmetry Number is   1
   The Molecule is an Asymmetric Top
   Translational Enthalpy:        0.889 kcal/mol
   Rotational Enthalpy:           0.889 kcal/mol
   Vibrational Enthalpy:         87.698 kcal/mol
   gas constant (RT):             0.592 kcal/mol
   Translational Entropy:        40.887  cal/mol.K
   Rotational Entropy:           29.725  cal/mol.K
   Vibrational Entropy:          25.664  cal/mol.K

   Total Enthalpy:               90.068 kcal/mol
   Total Entropy:                96.276  cal/mol.K
Archival summary:
1\1\c6-90\FREQ\ProcedureUnspecified\BasisUnspecified\558(2-,1)\leeping\SunMay2000:26:252018SunMay2000:26:252018\0\\#,FREQ,ProcedureUnspecified,BasisUnspecified,\\-2,1\O\O,1,1.4314\H,2,0.988453,1,103.218\C,1,1.45031,2,110.714,3,-41.0971,0\O,4,1.39822,1,109.856,2,-55.0759,0\H,5,0.984079,4,102.975,1,88.7244,0\C,4,1.51541,1,102.825,2,-172.049,0\H,7,1.09207,4,109.142,1,178.706,0\H,7,1.09318,4,110.29,1,-61.9312,0\H,7,1.09339,4,110.494,1,58.799,0\C,4,1.54441,1,111.125,2,65.9344,0\H,11,1.09633,4,107.478,1,43.3393,0\H,11,1.10044,4,105.22,1,157.219,0\C,11,1.51596,4,114.274,1,-80.5516,0\H,14,1.09151,11,115.465,4,-97.4961,0\C,14,1.43948,11,121.388,4,117.028,0\O,16,1.294,14,119.88,11,-20.0253,0\O,16,1.29435,14,119.802,11,162.109,0\\\@

 Total job time:  48351.17s(wall), 570693.31s(cpu) 
 Sun May 20 00:26:25 2018

        *************************************************************
        *                                                           *
        *  Thank you very much for using Q-Chem.  Have a nice day.  *
        *                                                           *
        *************************************************************


