
Running Job 1 of 1 qc-3-tshess.in
qchem qc-3-tshess.in_25344.0 ./qc-3-tshess.d/ 1
/home/leeping/opt/qchem/5.0.2-openmp/exe/qcprog.exe_s qc-3-tshess.in_25344.0 ./qc-3-tshess.d/
Check license passed

                  Welcome to Q-Chem
     A Quantum Leap Into The Future Of Chemistry


 Q-Chem 5.0, Q-Chem, Inc., Pleasanton, CA (2017)

 Yihan Shao,  Zhengting Gan,  E. Epifanovsky,  A. T. B. Gilbert,  M. Wormit,  
 J. Kussmann,  A. W. Lange,  A. Behn,  Jia Deng,  Xintian Feng,  D. Ghosh,  
 M. Goldey,  P. R. Horn,  L. D. Jacobson,  I. Kaliman,  T. Kus,  A. Landau,  
 Jie Liu,  E. I. Proynov,  R. M. Richard,  R. P. Steele,  E. J. Sundstrom,  
 H. L. Woodcock III,  P. M. Zimmerman,  D. Zuev,  B. Albrecht,  E. Alguire,  
 S. A. Baeppler,  D. Barton,  Z. Benda,  Y. A. Bernard,  E. J. Berquist,  
 K. B. Bravaya,  H. Burton,  D. Casanova,  Chun-Min Chang,  Yunqing Chen,  
 A. Chien,  K. D. Closser,  M. P. Coons,  S. Dasgupta,  A. L. Dempwolff,  
 M. Diedenhofen,  Hainam Do,  R. G. Edgar,  Po-Tung Fang,  S. Fatehi,  
 Qingguo Feng,  J. Fosso-Tande,  Qinghui Ge,  A. Ghysels,  G. Gidofalvi,  
 J. Gomes,  J. Gonthier,  A. Gunina,  M. W. D. Hanson-Heine,  
 P. H. P. Harbach,  A. W. Hauser,  J. E. Herr,  E. G. Hohenstein,  
 Z. C. Holden,  Kerwin Hui,  T.-C. Jagau,  Hyunjun Ji,  B. Kaduk,  
 K. Khistyaev,  Jaehoon Kim,  P. Klunzinger,  K. Koh,  D. Kosenkov,  
 L. Koulias,  T. Kowalczyk,  C. M. Krauter,  A. Kunitsa,  Ka Un Lao,  
 A. Laurent,  K. V. Lawler,  Joonho Lee,  D. Lefrancois,  S. Lehtola,  
 D. S. Levine,  Yi-Pei Li,  You-Sheng Lin,  Fenglai Liu,  E. Livshits,  
 A. Luenser,  P. Manohar,  E. Mansoor,  S. F. Manzer,  Shan-Ping Mao,  
 Yuezhi Mao,  N. Mardirossian,  A. V. Marenich,  T. Markovich,  
 L. A. Martinez-Martinez,  S. A. Maurer,  N. J. Mayhall,  S. C. McKenzie,  
 J.-M. Mewes,  A. F. Morrison,  J. W. Mullinax,  K. Nanda,  
 T. S. Nguyen-Beck,  R. Olivares-Amaya,  J. A. Parkhill,  T. M. Perrine,  
 F. Plasser,  S. Prager,  A. Prociuk,  E. Ramos,  D. R. Rehn,  F. Rob,  
 M. Schneider,  N. Sergueev,  S. M. Sharada,  S. Sharma,  D. W. Small,  
 T. Stauch,  T. Stein,  Yu-Chuan Su,  A. J. W. Thom,  A. Tkatchenko,  
 T. Tsuchimochi,  L. Vogt,  O. Vydrov,  M. A. Watson,  J. Wenzel,  
 M. de Wergifosse,  T. A. Wesolowski,  A. White,  J. Witte,  A. Yamada,  
 Jun Yang,  K. Yao,  S. Yeganeh,  S. R. Yost,  Zhi-Qiang You,  A. Zech,  
 Igor Ying Zhang,  Xing Zhang,  Yan Zhao,  Ying Zhu,  B. R. Brooks,  
 G. K. L. Chan,  C. J. Cramer,  M. S. Gordon,  W. J. Hehre,  A. Klamt,  
 M. W. Schmidt,  C. D. Sherrill,  D. G. Truhlar,  A. Aspuru-Guzik,  R. Baer,  
 A. T. Bell,  N. A. Besley,  Jeng-Da Chai,  R. A. DiStasio Jr.,  A. Dreuw,  
 B. D. Dunietz,  T. R. Furlani,  Chao-Ping Hsu,  Yousung Jung,  Jing Kong,  
 D. S. Lambrecht,  WanZhen Liang,  C. Ochsenfeld,  V. A. Rassolov,  
 L. V. Slipchenko,  J. E. Subotnik,  T. Van Voorhis,  J. M. Herbert,  
 A. I. Krylov,  P. M. W. Gill,  M. Head-Gordon

 Contributors to earlier versions of Q-Chem not listed above: 
 R. D. Adamson,  B. Austin,  J. Baker,  G. J. O. Beran,  K. Brandhorst,  
 S. T. Brown,  E. F. C. Byrd,  A. K. Chakraborty,  C.-L. Cheng,  
 Siu Hung Chien,  D. M. Chipman,  D. L. Crittenden,  H. Dachsel,  
 R. J. Doerksen,  A. D. Dutoi,  L. Fusti-Molnar,  W. A. Goddard III,  
 A. Golubeva-Zadorozhnaya,  S. R. Gwaltney,  G. Hawkins,  A. Heyden,  
 S. Hirata,  G. Kedziora,  F. J. Keil,  C. Kelley,  Jihan Kim,  R. A. King,  
 R. Z. Khaliullin,  P. P. Korambath,  W. Kurlancheek,  A. M. Lee,  M. S. Lee,  
 S. V. Levchenko,  Ching Yeh Lin,  D. Liotard,  R. C. Lochan,  I. Lotan,  
 P. E. Maslen,  N. Nair,  D. P. O'Neill,  D. Neuhauser,  E. Neuscamman,  
 C. M. Oana,  R. Olson,  B. Peters,  R. Peverati,  P. A. Pieniazek,  
 Y. M. Rhee,  J. Ritchie,  M. A. Rohrdanz,  E. Rosta,  N. J. Russ,  
 H. F. Schaefer III,  N. E. Schultz,  N. Shenvi,  A. C. Simmonett,  A. Sodt,  
 D. Stuck,  K. S. Thanthiriwatte,  V. Vanovschi,  Tao Wang,  A. Warshel,  
 C. F. Williams,  Q. Wu,  X. Xu,  W. Zhang

 Please cite Q-Chem as follows:
 Y. Shao et al., Mol. Phys. 113, 184-215 (2015)
 DOI: 10.1080/00268976.2014.952696

 Q-Chem 5.0.2 for Intel X86 EM64T Linux

 Parts of Q-Chem use Armadillo 5.200.1 (Boston Tea Smuggler).
 http://arma.sourceforge.net/

 Q-Chem begins on Sat May 19 10:05:07 2018  

Host: 
0

     Scratch files written to ./qc-3-tshess.d//
 Dec517 15110_ 26548  26544 5633   
Processing $rem in /home/leeping/opt/qchem/5.0.2-openmp/config/preferences.
 MEM_STATIC 2000
 MEM_TOTAL  8000
 SYMMETRY   OFF
 SYM_IGNORE TRUE 
Symmetry turned off for PCM/SM12/SMD calculation

Checking the input file for inconsistencies... 	...done.

--------------------------------------------------------------
User input:
--------------------------------------------------------------
$molecule
-2 1
C        0.0825282881    1.1749647692   -0.9170757067
C        0.6367491073    1.7550983211   -2.2283796483
O        0.4920663464    2.9983385665   -2.3886191575
O        1.1671115828    0.9726811663   -3.0577472409
C        0.5671674615   -0.2288089381   -0.5695283086
H       -1.0100050581    1.1916575086   -1.0164963877
H        0.3242647085    1.8769638795   -0.1131521009
C        0.0589997397   -0.7859303602    0.7593893989
H        1.6619021356   -0.2433887734   -0.5238621297
H        0.2699318059   -0.9296570078   -1.3571967970
C       -1.4651175141   -0.9097493912    0.8186157633
H       -1.9594534143    0.0513322617    0.6509905571
H       -1.7524863699   -1.2849462260    1.8051247213
H       -1.8115732360   -1.6196978448    0.0602632774
O        0.6699212250   -1.9730272475    1.0925338013
O        0.4777951680    0.1804129676    1.8018615107
O        0.7519401800   -0.6301229635    2.9636590850
H        0.8382578438   -1.5961206877    2.2196193622
$end

$rem
jobtype               freq
method                wb97x-v
basis                 def2-tzvpd
symmetry              off
sym_ignore            true
incdft                false
incfock               0
!scf_algorithm        diis_gdm
scf_convergence       8
thresh                14
!purecart             112
max_scf_cycles        1000
geom_opt_max_cycles   500
geom_opt_dmax         100
geom_opt_tol_gradient 10
solvent_method        pcm
ideriv                1
rpath_tol_displacement 1000
rpath_max_cycles      100
rpath_direction       1
!scf_guess            read
scf_guess             read
$end

$pcm
theory              cosmo
method              iswig
Radii               bondi
vdwScale            1.20
hpoints             110
heavypoints         110
$end

$solvent
dielectric 78.400000
$end

--------------------------------------------------------------
 ----------------------------------------------------------------
             Standard Nuclear Orientation (Angstroms)
    I     Atom           X                Y                Z
 ----------------------------------------------------------------
    1      C       0.0825282881     1.1749647692    -0.9170757067
    2      C       0.6367491073     1.7550983211    -2.2283796483
    3      O       0.4920663464     2.9983385665    -2.3886191575
    4      O       1.1671115828     0.9726811663    -3.0577472409
    5      C       0.5671674615    -0.2288089381    -0.5695283086
    6      H      -1.0100050581     1.1916575086    -1.0164963877
    7      H       0.3242647085     1.8769638795    -0.1131521009
    8      C       0.0589997397    -0.7859303602     0.7593893989
    9      H       1.6619021356    -0.2433887734    -0.5238621297
   10      H       0.2699318059    -0.9296570078    -1.3571967970
   11      C      -1.4651175141    -0.9097493912     0.8186157633
   12      H      -1.9594534143     0.0513322617     0.6509905571
   13      H      -1.7524863699    -1.2849462260     1.8051247213
   14      H      -1.8115732360    -1.6196978448     0.0602632774
   15      O       0.6699212250    -1.9730272475     1.0925338013
   16      O       0.4777951680     0.1804129676     1.8018615107
   17      O       0.7519401800    -0.6301229635     2.9636590850
   18      H       0.8382578438    -1.5961206877     2.2196193622
 ----------------------------------------------------------------
 Nuclear Repulsion Energy =   548.0258242311 hartrees
 There are       40 alpha and       40 beta electrons
 Requested basis set is def2-TZVPD
 There are 175 shells and 457 basis functions

 Total QAlloc Memory Limit   8000 MB
 Mega-Array Size      1956 MB
 MEM_STATIC part      2000 MB
 Discretize the solute cavity surface with Lebedev spheres
	Using 110 Lebedev grid points for each H atom
	Using 110 Lebedev grid points for other atoms
	Atomic van der Waals radii will be scaled by 1.20
 Remove points where switching function is < 1.0e-08
 Keep 1040 surface tesserae and discard 940 interior tesserae
 Molecular Surface Area = 186.012 Angst**2
 A cutoff of  1.0D-14 yielded  14083 shell pairs
 There are     95899 function pairs (    121906 Cartesian)
 
 -------------------------------------------------------
 OpenMP Integral Computing Module                       
 Release: version 1.0, May 2013, Q-Chem Inc. Pittsburgh 
 -------------------------------------------------------
 Integral Job Info:
 Integral job number is                      11
 Integral operator is                         1
 short-range coefficients              16700000
 long-range coefficients              100000000
 Omega coefficients                         300
 if combine SR and LR in K                    1
 Integral screening is                        0
 Integral computing path is                   2
 max size of driver memory is            800000
 size of driver memory is                776718
 size of scratch memory is              4473992
 max col of scratch BK array              10000
 max len of scratch array in speh3          662
 max len of scratch index in speh4           32
 max int batch size is                      520
 min int batch size is                       52
 fixed nKL is                                52
 max L of basis functions is                  3
 order of int derivative is                   0
 number of shells is                        175
 number of basis is                         517
 number of cartesian basis is               517
 number of contracted shell pairs         14083
 number of primitive shell pairs          28682
 maxK2 (contraction) of shell pair           36
 max number of K2 of shell pair               1
 max number of CS2 of shell pair           2320
 max number of PS2 of shell pair           3258
 mem total for path MDJ                  777156
 -------------------------------------------------------
 Smallest overlap matrix eigenvalue = 2.64E-06
 Guess MOs from SCF MO coefficient file
 Reading MOs from coefficient file
 Reading MOs from coefficient file
 Long-range K will be added via erf
 Coulomb attenuation parameter = 0.3 bohr**(-1)
 A restricted hybrid HF-DFT SCF calculation will be
 performed using Pulay DIIS extrapolation
 Polarizable Continuum solvation model will be applied
 Exchange:     0.1670 Hartree-Fock + 1.0000 wB97X-V + LR-HF
 Correlation:  1.0000 wB97X-V
 Using SG-2 standard quadrature grid
 Nonlocal Correlation:  VV10 with C = 0.0100 and b = 6.00
 Grid used for NLC:  SG-1 standard quadrature
 SCF converges when DIIS error is below 1.0E-08
Using Q-Chem read-in guess as SCF_GUESS READ specified.

 using 16 threads for integral computing
 -------------------------------------------------------
 OpenMP Integral computing Module                
 Release: version 1.0, May 2013, Q-Chem Inc. Pittsburgh 
 -------------------------------------------------------
 using 16 threads for integral computing
 -------------------------------------------------------
 OpenMP Integral computing Module                
 Release: version 1.0, May 2013, Q-Chem Inc. Pittsburgh 
 -------------------------------------------------------
 -------------------------------------------------------
 OpenMP BLAS3 based DFT computing Module                
 Release: version 1.0, May 2013, Q-Chem Inc. Pittsburgh 
 -------------------------------------------------------
 -------------------------------------------------------
 OpenMP BLAS3 based DFT computing Module                
 Release: version 1.0, May 2013, Q-Chem Inc. Pittsburgh 
 -------------------------------------------------------
 -------------------------------------------------------
 OpenMP BLAS3 based DFT computing Module                
 Release: version 1.0, May 2013, Q-Chem Inc. Pittsburgh 
 -------------------------------------------------------
 ---------------------------------------
  Cycle       Energy         DIIS Error
 ---------------------------------------
    1    -571.4244804272      2.94E-04
    2    -571.7190433766      3.03E-04
    3    -571.7226016100      1.42E-04
    4    -571.7231971919      1.06E-04
    5    -571.7235663797      8.07E-05
    6    -571.7237512477      6.51E-05
    7    -571.7238849464      5.09E-05
    8    -571.7239663301      3.98E-05
    9    -571.7240256846      2.92E-05
   10    -571.7240532786      2.27E-05
   11    -571.7240726729      1.66E-05
   12    -571.7240815889      1.28E-05
   13    -571.7240867630      1.00E-05
   14    -571.7240899352      7.85E-06
   15    -571.7240917450      6.27E-06
   16    -571.7240929892      4.88E-06
   17    -571.7240949118      3.24E-09 Convergence criterion met
 ---------------------------------------

************** Final PCM Free Energy Summary **************
 G_electrostatic  =      -0.29961446 hartree =    -188.01091178 kcal/mol
 G_cavitation     =       0.00000000 hartree =       0.00000000 kcal/mol
 G_dispersion     =       0.00000000 hartree =       0.00000000 kcal/mol
 G_repulsion      =       0.00000000 hartree =       0.00000000 kcal/mol
 --------------------------------------------------
 Non-electrostatic Free Energy =       0.00000000 hartree =       0.00000000 kcal/mol
 Total                         =      -0.29961446 hartree =    -188.01091178 kcal/mol
 --------------------------------------------------
 SCF Energy (H0 + V/2)                       =    -571.72409491 
 Solute Internal Energy (H0)                 =    -571.42448045 
 Total Free Energy (H0 + V/2 + non-elec)     =    -571.72409491 hartree
                                             = -358762.28435609 kcal/mol
***********************************************************

 SCF time:  CPU 4301.48 s  wall 313.74 s
 SCF   energy in the final basis set = -571.72409491
 Total energy in the final basis set = -571.72409491
 
 --------------------------------------------------------------
 
                    Orbital Energies (a.u.)
 --------------------------------------------------------------
 
 Alpha MOs
 -- Occupied --
-19.217 -19.181 -19.143 -19.139 -19.136 -10.339 -10.334 -10.245
-10.242 -10.236  -1.200  -1.141  -1.070  -1.047  -0.950  -0.879
 -0.827  -0.760  -0.642  -0.610  -0.600  -0.562  -0.555  -0.535
 -0.515  -0.509  -0.503  -0.489  -0.463  -0.448  -0.444  -0.433
 -0.419  -0.394  -0.352  -0.346  -0.342  -0.331  -0.324  -0.293
 -- Virtual --
  0.062   0.071   0.083   0.087   0.096   0.101   0.111   0.122
  0.127   0.132   0.135   0.144   0.152   0.155   0.161   0.169
  0.183   0.187   0.189   0.190   0.194   0.205   0.220   0.225
  0.226   0.239   0.244   0.254   0.262   0.268   0.269   0.283
  0.286   0.288   0.293   0.305   0.308   0.314   0.319   0.326
  0.334   0.336   0.341   0.353   0.357   0.359   0.366   0.370
  0.375   0.379   0.392   0.395   0.400   0.405   0.406   0.417
  0.419   0.429   0.433   0.437   0.441   0.451   0.454   0.460
  0.470   0.471   0.479   0.481   0.487   0.496   0.498   0.505
  0.513   0.519   0.523   0.528   0.537   0.539   0.544   0.553
  0.556   0.567   0.575   0.578   0.583   0.592   0.596   0.599
  0.605   0.608   0.615   0.631   0.639   0.642   0.646   0.651
  0.656   0.659   0.666   0.681   0.689   0.702   0.709   0.715
  0.722   0.727   0.732   0.745   0.755   0.761   0.772   0.775
  0.780   0.790   0.792   0.801   0.802   0.809   0.811   0.817
  0.829   0.831   0.842   0.842   0.848   0.853   0.861   0.871
  0.877   0.881   0.888   0.894   0.897   0.922   0.933   0.933
  0.947   0.958   0.977   0.986   1.000   1.007   1.018   1.020
  1.041   1.061   1.070   1.075   1.086   1.091   1.112   1.117
  1.143   1.151   1.170   1.174   1.182   1.195   1.204   1.214
  1.232   1.236   1.238   1.256   1.283   1.290   1.317   1.324
  1.342   1.365   1.386   1.402   1.420   1.428   1.436   1.459
  1.473   1.486   1.492   1.512   1.532   1.546   1.569   1.582
  1.616   1.638   1.658   1.668   1.712   1.756   1.778   1.832
  1.840   1.867   1.872   1.908   1.923   1.934   1.949   1.961
  1.971   1.974   1.985   1.991   1.996   2.013   2.037   2.043
  2.052   2.059   2.088   2.111   2.129   2.134   2.175   2.179
  2.204   2.219   2.237   2.262   2.271   2.284   2.291   2.307
  2.321   2.340   2.357   2.369   2.392   2.410   2.436   2.451
  2.462   2.481   2.487   2.514   2.531   2.542   2.565   2.580
  2.610   2.632   2.652   2.673   2.683   2.697   2.730   2.732
  2.753   2.774   2.798   2.827   2.854   2.869   2.903   2.918
  2.941   2.946   2.967   2.991   2.997   3.024   3.037   3.040
  3.048   3.097   3.110   3.116   3.139   3.169   3.181   3.224
  3.263   3.275   3.285   3.305   3.322   3.335   3.356   3.373
  3.385   3.403   3.441   3.455   3.478   3.483   3.513   3.519
  3.538   3.550   3.560   3.569   3.587   3.594   3.623   3.631
  3.644   3.652   3.663   3.679   3.693   3.715   3.738   3.744
  3.750   3.758   3.788   3.790   3.811   3.827   3.843   3.854
  3.863   3.919   3.928   3.965   3.999   4.052   4.069   4.140
  4.155   4.177   4.195   4.258   4.292   4.304   4.335   4.364
  4.438   4.469   4.490   4.592   4.646   4.689   4.699   4.711
  4.795   4.825   4.839   4.844   4.890   4.940   4.956   4.996
  5.045   5.110   5.140   5.206   5.268   5.299   5.321   5.326
  5.358   5.368   5.382   5.418   5.424   5.506   5.578   5.587
  5.601   5.689   5.718   5.722   5.739   5.775   5.786   5.867
  5.978   6.009   6.087   6.104   6.154   6.213   6.247   6.309
  6.338   6.379   6.414   6.604   6.621   6.641   6.672   6.701
  6.720   6.759   6.776   6.851   6.869   6.928   6.959   6.974
  7.021   7.059   7.102   7.196   7.221   7.246   7.262   7.324
  7.365   7.397   7.411   7.459   7.556   7.672   8.332  22.744
 22.902  22.966  23.070  23.738  44.232  44.301  44.421  44.606
 44.725
 --------------------------------------------------------------
 
          Ground-State Mulliken Net Atomic Charges

     Atom                 Charge (a.u.)
  ----------------------------------------
      1 C                    -0.196507
      2 C                    -0.017512
      3 O                    -0.714622
      4 O                    -0.693514
      5 C                    -0.265499
      6 H                     0.203833
      7 H                     0.197008
      8 C                     0.947811
      9 H                     0.184047
     10 H                     0.207032
     11 C                    -1.331864
     12 H                     0.270272
     13 H                     0.239590
     14 H                     0.243538
     15 O                    -0.752305
     16 O                    -0.243647
     17 O                    -0.670456
     18 H                     0.392795
  ----------------------------------------
  Sum of atomic charges =    -2.000000

 -----------------------------------------------------------------
                    Cartesian Multipole Moments
 -----------------------------------------------------------------
    Charge (ESU x 10^10)
                -9.6064
    Dipole Moment (Debye)
         X      -8.6033      Y      -5.6951      Z       3.8393
       Tot      11.0086
    Quadrupole Moments (Debye-Ang)
        XX     -72.6684     XY      -2.9998     YY    -106.5882
        XZ       7.4554     YZ      34.0569     ZZ    -136.0256
    Octopole Moments (Debye-Ang^2)
       XXX     -66.6402    XXY     -15.4057    XYY     -43.3433
       YYY    -114.1088    XXZ      17.5479    XYZ      24.1949
       YYZ      77.6706    XZZ     -85.2138    YZZ     -85.9840
       ZZZ      86.3780
    Hexadecapole Moments (Debye-Ang^3)
      XXXX    -362.8863   XXXY     -67.0341   XXYY    -222.0954
      XYYY     -93.8749   YYYY   -1257.7678   XXXZ      90.2408
      XXYZ     150.1829   XYYZ      68.3364   YYYZ     645.8929
      XXZZ    -372.3010   XYZZ     -80.1774   YYZZ    -597.8699
      XZZZ     171.9078   YZZZ     633.9056   ZZZZ   -2126.5883
 -----------------------------------------------------------------
 Calculating analytic gradient of the SCF energy
 Gradient of SCF Energy
            1           2           3           4           5           6
    1  -0.0486004   0.0052886   0.0039869  -0.0262916   0.1555385   0.0416445
    2   0.0632997   0.0004112  -0.0535596   0.0334798  -0.1019874  -0.0032753
    3   0.0793028  -0.0499527   0.0146316   0.0424350  -0.0622865   0.0109308
            7           8           9          10          11          12
    1  -0.0216574  -0.0744502  -0.0666247   0.0195973  -0.0918106   0.0255989
    2  -0.0408511   0.0761439  -0.0045697   0.0374286   0.0016501  -0.0730798
    3  -0.0378757  -0.0086787  -0.0056267   0.0374786   0.0210675   0.0161054
           13          14          15          16          17          18
    1   0.0236522   0.0141042   0.0133719   0.0016009   0.0157456   0.0093050
    2   0.0248361   0.0496851  -0.0085668   0.0222086  -0.0315428   0.0082891
    3  -0.0708641   0.0576581  -0.0112660  -0.0462099   0.0373080  -0.0241576
 Max gradient component =       1.555E-01
 RMS gradient           =       4.687E-02
 Computing fast CPCM-ISWIG gradient
 Updating gradient with PCM contributions...
 -- total gradient after adding PCM contribution --
---------------------------------------------------
  Atom         X              Y              Z     
---------------------------------------------------
   1       0.000001      -0.000001      -0.000001
   2       0.000004      -0.000001       0.000000
   3       0.000005      -0.000001      -0.000001
   4       0.000001      -0.000003       0.000000
   5      -0.000001      -0.000001      -0.000000
   6       0.000002       0.000002      -0.000001
   7       0.000003      -0.000001       0.000000
   8       0.000001       0.000001       0.000003
   9       0.000000      -0.000001       0.000000
  10      -0.000001      -0.000002       0.000001
  11      -0.000001       0.000004       0.000000
  12      -0.000000       0.000003       0.000000
  13      -0.000002       0.000002      -0.000000
  14      -0.000002       0.000003      -0.000001
  15      -0.000003       0.000000       0.000005
  16      -0.000002      -0.000000      -0.000008
  17      -0.000002      -0.000004       0.000003
  18      -0.000004       0.000001      -0.000001
---------------------------------------------------
 Number of fixed atoms: 0
 Gradient time:  CPU 880.30 s  wall 63.41 s
 ######################################################
 ######################################################
 # Starting finite difference calculation for IDERIV  #
 Finite diff step size:  1.88973e-03 a.u.
 ----------------------------------------------------------------
             Standard Nuclear Orientation (Angstroms)
    I     Atom           X                Y                Z
 ----------------------------------------------------------------
    1      C       0.0835282881     1.1749647692    -0.9170757067
    2      C       0.6367491073     1.7550983211    -2.2283796483
    3      O       0.4920663464     2.9983385665    -2.3886191575
    4      O       1.1671115828     0.9726811663    -3.0577472409
    5      C       0.5671674615    -0.2288089381    -0.5695283086
    6      H      -1.0100050581     1.1916575086    -1.0164963877
    7      H       0.3242647085     1.8769638795    -0.1131521009
    8      C       0.0589997397    -0.7859303602     0.7593893989
    9      H       1.6619021356    -0.2433887734    -0.5238621297
   10      H       0.2699318059    -0.9296570078    -1.3571967970
   11      C      -1.4651175141    -0.9097493912     0.8186157633
   12      H      -1.9594534143     0.0513322617     0.6509905571
   13      H      -1.7524863699    -1.2849462260     1.8051247213
   14      H      -1.8115732360    -1.6196978448     0.0602632774
   15      O       0.6699212250    -1.9730272475     1.0925338013
   16      O       0.4777951680     0.1804129676     1.8018615107
   17      O       0.7519401800    -0.6301229635     2.9636590850
   18      H       0.8382578438    -1.5961206877     2.2196193622
 ----------------------------------------------------------------
 Nuclear Repulsion Energy =   548.0319994820 hartrees
 There are       40 alpha and       40 beta electrons
 Discretize the solute cavity surface with Lebedev spheres
	Using 110 Lebedev grid points for each H atom
	Using 110 Lebedev grid points for other atoms
	Atomic van der Waals radii will be scaled by 1.20
 Remove points where switching function is < 1.0e-08
 Keep 1040 surface tesserae and discard 940 interior tesserae
 Molecular Surface Area = 186.012 Angst**2
 Requested basis set is def2-TZVPD
 There are 175 shells and 457 basis functions
 A cutoff of  1.0D-14 yielded  14083 shell pairs
 There are     95899 function pairs (    121906 Cartesian)
 Smallest overlap matrix eigenvalue = 2.64E-06
 Guess MOs from SCF MO coefficient file
 Reading MOs from coefficient file
 Reading MOs from coefficient file
 Long-range K will be added via erf
 Coulomb attenuation parameter = 0.3 bohr**(-1)
 A restricted hybrid HF-DFT SCF calculation will be
 performed using Pulay DIIS extrapolation
 Polarizable Continuum solvation model will be applied
 Exchange:     0.1670 Hartree-Fock + 1.0000 wB97X-V + LR-HF
 Correlation:  1.0000 wB97X-V
 Using SG-2 standard quadrature grid
 Nonlocal Correlation:  VV10 with C = 0.0100 and b = 6.00
 Grid used for NLC:  SG-1 standard quadrature
 SCF converges when DIIS error is below 1.0E-08
Using Q-Chem read-in guess as SCF_GUESS READ specified.

 using 16 threads for integral computing
 -------------------------------------------------------
 OpenMP Integral computing Module                
 Release: version 1.0, May 2013, Q-Chem Inc. Pittsburgh 
 -------------------------------------------------------
 using 16 threads for integral computing
 -------------------------------------------------------
 OpenMP Integral computing Module                
 Release: version 1.0, May 2013, Q-Chem Inc. Pittsburgh 
 -------------------------------------------------------
 -------------------------------------------------------
 OpenMP BLAS3 based DFT computing Module                
 Release: version 1.0, May 2013, Q-Chem Inc. Pittsburgh 
 -------------------------------------------------------
 -------------------------------------------------------
 OpenMP BLAS3 based DFT computing Module                
 Release: version 1.0, May 2013, Q-Chem Inc. Pittsburgh 
 -------------------------------------------------------
 -------------------------------------------------------
 OpenMP BLAS3 based DFT computing Module                
 Release: version 1.0, May 2013, Q-Chem Inc. Pittsburgh 
 -------------------------------------------------------
 ---------------------------------------
  Cycle       Energy         DIIS Error
 ---------------------------------------
    1    -571.4242061830      2.95E-04
    2    -571.7190377764      3.03E-04
    3    -571.7226016058      1.42E-04
    4    -571.7231986982      1.06E-04
    5    -571.7235756408      7.99E-05
    6    -571.7237779629      6.24E-05
    7    -571.7239464843      4.26E-05
    8    -571.7240440366      2.48E-05
    9    -571.7240868718      9.38E-06
   10    -571.7240933701      2.73E-06
   11    -571.7240939450      4.33E-07
   12    -571.7240939591      8.33E-08
   13    -571.7240939596      1.34E-08
   14    -571.7240939596      7.45E-09 Convergence criterion met
 ---------------------------------------

************** Final PCM Free Energy Summary **************
 G_electrostatic  =      -0.29961290 hartree =    -188.00992995 kcal/mol
 G_cavitation     =       0.00000000 hartree =       0.00000000 kcal/mol
 G_dispersion     =       0.00000000 hartree =       0.00000000 kcal/mol
 G_repulsion      =       0.00000000 hartree =       0.00000000 kcal/mol
 --------------------------------------------------
 Non-electrostatic Free Energy =       0.00000000 hartree =       0.00000000 kcal/mol
 Total                         =      -0.29961290 hartree =    -188.00992995 kcal/mol
 --------------------------------------------------
 SCF Energy (H0 + V/2)                       =    -571.72409396 
 Solute Internal Energy (H0)                 =    -571.42448106 
 Total Free Energy (H0 + V/2 + non-elec)     =    -571.72409396 hartree
                                             = -358762.28375854 kcal/mol
***********************************************************

 SCF time:  CPU 3541.53 s  wall 256.21 s
 SCF   energy in the final basis set = -571.72409396
 Total energy in the final basis set = -571.72409396
 
 --------------------------------------------------------------
 
                    Orbital Energies (a.u.)
 --------------------------------------------------------------
 
 Alpha MOs
 -- Occupied --
-19.217 -19.181 -19.143 -19.139 -19.136 -10.339 -10.334 -10.245
-10.242 -10.236  -1.200  -1.142  -1.070  -1.047  -0.951  -0.879
 -0.827  -0.760  -0.642  -0.610  -0.600  -0.562  -0.555  -0.535
 -0.515  -0.509  -0.503  -0.489  -0.463  -0.448  -0.444  -0.433
 -0.418  -0.394  -0.352  -0.346  -0.342  -0.331  -0.324  -0.293
 -- Virtual --
  0.062   0.071   0.083   0.087   0.096   0.101   0.111   0.122
  0.127   0.132   0.135   0.144   0.152   0.155   0.161   0.169
  0.183   0.187   0.189   0.190   0.194   0.205   0.220   0.225
  0.226   0.239   0.244   0.254   0.262   0.268   0.269   0.283
  0.286   0.288   0.293   0.305   0.308   0.314   0.319   0.326
  0.334   0.336   0.341   0.353   0.357   0.359   0.366   0.370
  0.375   0.379   0.392   0.395   0.400   0.405   0.406   0.417
  0.419   0.429   0.433   0.437   0.441   0.451   0.454   0.460
  0.470   0.471   0.479   0.481   0.487   0.496   0.498   0.505
  0.513   0.519   0.523   0.529   0.537   0.539   0.544   0.553
  0.556   0.567   0.575   0.578   0.583   0.592   0.596   0.599
  0.605   0.608   0.615   0.631   0.639   0.642   0.646   0.651
  0.656   0.659   0.666   0.681   0.690   0.702   0.709   0.715
  0.722   0.727   0.732   0.745   0.755   0.761   0.772   0.775
  0.780   0.790   0.792   0.801   0.802   0.809   0.811   0.817
  0.829   0.831   0.842   0.842   0.848   0.853   0.861   0.871
  0.877   0.881   0.888   0.894   0.897   0.922   0.933   0.933
  0.947   0.958   0.977   0.986   1.000   1.007   1.018   1.020
  1.041   1.061   1.070   1.075   1.086   1.091   1.112   1.117
  1.143   1.151   1.170   1.174   1.182   1.195   1.204   1.214
  1.232   1.236   1.237   1.256   1.283   1.290   1.317   1.324
  1.342   1.365   1.385   1.402   1.420   1.428   1.436   1.459
  1.473   1.486   1.492   1.512   1.532   1.546   1.569   1.582
  1.616   1.639   1.658   1.668   1.713   1.756   1.778   1.832
  1.840   1.867   1.872   1.908   1.923   1.934   1.949   1.961
  1.971   1.974   1.985   1.991   1.996   2.013   2.037   2.043
  2.052   2.059   2.088   2.111   2.129   2.134   2.175   2.179
  2.204   2.219   2.237   2.262   2.271   2.284   2.291   2.307
  2.321   2.340   2.357   2.369   2.392   2.410   2.436   2.451
  2.462   2.481   2.487   2.514   2.531   2.542   2.565   2.581
  2.610   2.632   2.652   2.673   2.683   2.697   2.730   2.733
  2.753   2.774   2.797   2.827   2.854   2.869   2.903   2.919
  2.941   2.946   2.967   2.990   2.997   3.024   3.037   3.040
  3.048   3.097   3.110   3.117   3.139   3.169   3.181   3.224
  3.263   3.275   3.285   3.305   3.322   3.335   3.356   3.373
  3.385   3.403   3.441   3.455   3.478   3.483   3.513   3.519
  3.538   3.550   3.560   3.569   3.587   3.594   3.623   3.631
  3.644   3.652   3.663   3.679   3.693   3.715   3.738   3.744
  3.750   3.758   3.788   3.790   3.811   3.827   3.843   3.854
  3.863   3.919   3.928   3.965   3.999   4.052   4.069   4.141
  4.155   4.177   4.195   4.258   4.292   4.304   4.335   4.364
  4.438   4.469   4.490   4.592   4.646   4.689   4.699   4.711
  4.795   4.825   4.839   4.844   4.890   4.940   4.956   4.996
  5.045   5.111   5.140   5.206   5.268   5.299   5.321   5.326
  5.358   5.368   5.382   5.418   5.424   5.506   5.578   5.587
  5.601   5.689   5.718   5.722   5.739   5.775   5.786   5.867
  5.978   6.009   6.087   6.104   6.154   6.213   6.247   6.309
  6.338   6.379   6.414   6.604   6.621   6.641   6.672   6.701
  6.720   6.759   6.776   6.851   6.869   6.928   6.959   6.974
  7.021   7.059   7.102   7.196   7.221   7.246   7.262   7.324
  7.365   7.397   7.411   7.459   7.556   7.672   8.332  22.744
 22.902  22.966  23.070  23.738  44.232  44.301  44.421  44.606
 44.724
 --------------------------------------------------------------
 
          Ground-State Mulliken Net Atomic Charges

     Atom                 Charge (a.u.)
  ----------------------------------------
      1 C                    -0.195956
      2 C                    -0.018071
      3 O                    -0.714669
      4 O                    -0.693574
      5 C                    -0.264750
      6 H                     0.203044
      7 H                     0.197415
      8 C                     0.947665
      9 H                     0.183995
     10 H                     0.206936
     11 C                    -1.331903
     12 H                     0.270267
     13 H                     0.239606
     14 H                     0.243542
     15 O                    -0.752292
     16 O                    -0.243653
     17 O                    -0.670431
     18 H                     0.392829
  ----------------------------------------
  Sum of atomic charges =    -2.000000

 -----------------------------------------------------------------
                    Cartesian Multipole Moments
 -----------------------------------------------------------------
    Charge (ESU x 10^10)
                -9.6064
    Dipole Moment (Debye)
         X      -8.6028      Y      -5.6955      Z       3.8407
       Tot      11.0090
    Quadrupole Moments (Debye-Ang)
        XX     -72.6701     XY      -2.9983     YY    -106.5874
        XZ       7.4542     YZ      34.0584     ZZ    -136.0281
    Octopole Moments (Debye-Ang^2)
       XXX     -66.6525    XXY     -15.4064    XYY     -43.3452
       YYY    -114.1104    XXZ      17.5499    XYZ      24.1915
       YYZ      77.6745    XZZ     -85.2161    YZZ     -85.9897
       ZZZ      86.3955
    Hexadecapole Moments (Debye-Ang^3)
      XXXX    -362.8973   XXXY     -67.0412   XXYY    -222.0961
      XYYY     -93.8827   YYYY   -1257.7556   XXXZ      90.2470
      XXYZ     150.1804   XYYZ      68.3326   YYYZ     645.8974
      XXZZ    -372.3010   XYZZ     -80.1764   YYZZ    -597.8742
      XZZZ     171.9200   YZZZ     633.9223   ZZZZ   -2126.6372
 -----------------------------------------------------------------
 Calculating analytic gradient of the SCF energy
 Gradient of SCF Energy
            1           2           3           4           5           6
    1  -0.0477188   0.0051413   0.0040088  -0.0262772   0.1553294   0.0410607
    2   0.0633124   0.0003396  -0.0535595   0.0334850  -0.1018084  -0.0032172
    3   0.0793768  -0.0498428   0.0146251   0.0424614  -0.0623193   0.0108881
            7           8           9          10          11          12
    1  -0.0217167  -0.0744073  -0.0666096   0.0196178  -0.0918038   0.0255920
    2  -0.0409524   0.0760425  -0.0045323   0.0373878   0.0016816  -0.0730937
    3  -0.0379738  -0.0087414  -0.0055648   0.0374441   0.0210662   0.0161134
           13          14          15          16          17          18
    1   0.0236547   0.0141079   0.0133729   0.0015988   0.0157436   0.0093053
    2   0.0248369   0.0496908  -0.0085679   0.0222076  -0.0315401   0.0082873
    3  -0.0708669   0.0576615  -0.0112611  -0.0462137   0.0373098  -0.0241625
 Max gradient component =       1.553E-01
 RMS gradient           =       4.682E-02
 Computing fast CPCM-ISWIG gradient
 Updating gradient with PCM contributions...
 -- total gradient after adding PCM contribution --
---------------------------------------------------
  Atom         X              Y              Z     
---------------------------------------------------
   1       0.001005      -0.000003       0.000047
   2      -0.000186      -0.000031       0.000037
   3       0.000041       0.000001       0.000007
   4       0.000018       0.000007       0.000054
   5      -0.000181       0.000074      -0.000009
   6      -0.000572      -0.000002      -0.000039
   7      -0.000107      -0.000073      -0.000091
   8       0.000010      -0.000014      -0.000008
   9      -0.000018       0.000059      -0.000013
  10       0.000005      -0.000018       0.000006
  11      -0.000003       0.000003       0.000002
  12      -0.000001       0.000001       0.000002
  13      -0.000003       0.000002      -0.000001
  14      -0.000002       0.000003      -0.000000
  15       0.000001      -0.000005       0.000015
  16      -0.000001       0.000001      -0.000008
  17      -0.000002      -0.000004       0.000005
  18      -0.000004      -0.000001      -0.000002
---------------------------------------------------
 Number of fixed atoms: 0
 Gradient time:  CPU 880.22 s  wall 63.37 s
 ----------------------------------------------------------------
             Standard Nuclear Orientation (Angstroms)
    I     Atom           X                Y                Z
 ----------------------------------------------------------------
    1      C       0.0815282881     1.1749647692    -0.9170757067
    2      C       0.6367491073     1.7550983211    -2.2283796483
    3      O       0.4920663464     2.9983385665    -2.3886191575
    4      O       1.1671115828     0.9726811663    -3.0577472409
    5      C       0.5671674615    -0.2288089381    -0.5695283086
    6      H      -1.0100050581     1.1916575086    -1.0164963877
    7      H       0.3242647085     1.8769638795    -0.1131521009
    8      C       0.0589997397    -0.7859303602     0.7593893989
    9      H       1.6619021356    -0.2433887734    -0.5238621297
   10      H       0.2699318059    -0.9296570078    -1.3571967970
   11      C      -1.4651175141    -0.9097493912     0.8186157633
   12      H      -1.9594534143     0.0513322617     0.6509905571
   13      H      -1.7524863699    -1.2849462260     1.8051247213
   14      H      -1.8115732360    -1.6196978448     0.0602632774
   15      O       0.6699212250    -1.9730272475     1.0925338013
   16      O       0.4777951680     0.1804129676     1.8018615107
   17      O       0.7519401800    -0.6301229635     2.9636590850
   18      H       0.8382578438    -1.5961206877     2.2196193622
 ----------------------------------------------------------------
 Nuclear Repulsion Energy =   548.0196392245 hartrees
 There are       40 alpha and       40 beta electrons
 Discretize the solute cavity surface with Lebedev spheres
	Using 110 Lebedev grid points for each H atom
	Using 110 Lebedev grid points for other atoms
	Atomic van der Waals radii will be scaled by 1.20
 Remove points where switching function is < 1.0e-08
 Keep 1040 surface tesserae and discard 940 interior tesserae
 Molecular Surface Area = 186.012 Angst**2
 Requested basis set is def2-TZVPD
 There are 175 shells and 457 basis functions
 A cutoff of  1.0D-14 yielded  14083 shell pairs
 There are     95899 function pairs (    121906 Cartesian)
 Smallest overlap matrix eigenvalue = 2.64E-06
 Guess MOs from SCF MO coefficient file
 Reading MOs from coefficient file
 Reading MOs from coefficient file
 Long-range K will be added via erf
 Coulomb attenuation parameter = 0.3 bohr**(-1)
 A restricted hybrid HF-DFT SCF calculation will be
 performed using Pulay DIIS extrapolation
 Polarizable Continuum solvation model will be applied
 Exchange:     0.1670 Hartree-Fock + 1.0000 wB97X-V + LR-HF
 Correlation:  1.0000 wB97X-V
 Using SG-2 standard quadrature grid
 Nonlocal Correlation:  VV10 with C = 0.0100 and b = 6.00
 Grid used for NLC:  SG-1 standard quadrature
 SCF converges when DIIS error is below 1.0E-08
Using Q-Chem read-in guess as SCF_GUESS READ specified.

 using 16 threads for integral computing
 -------------------------------------------------------
 OpenMP Integral computing Module                
 Release: version 1.0, May 2013, Q-Chem Inc. Pittsburgh 
 -------------------------------------------------------
 using 16 threads for integral computing
 -------------------------------------------------------
 OpenMP Integral computing Module                
 Release: version 1.0, May 2013, Q-Chem Inc. Pittsburgh 
 -------------------------------------------------------
 -------------------------------------------------------
 OpenMP BLAS3 based DFT computing Module                
 Release: version 1.0, May 2013, Q-Chem Inc. Pittsburgh 
 -------------------------------------------------------
 -------------------------------------------------------
 OpenMP BLAS3 based DFT computing Module                
 Release: version 1.0, May 2013, Q-Chem Inc. Pittsburgh 
 -------------------------------------------------------
 -------------------------------------------------------
 OpenMP BLAS3 based DFT computing Module                
 Release: version 1.0, May 2013, Q-Chem Inc. Pittsburgh 
 -------------------------------------------------------
 ---------------------------------------
  Cycle       Energy         DIIS Error
 ---------------------------------------
    1    -571.4250306543      2.95E-04
    2    -571.7190512477      3.02E-04
    3    -571.7226072744      1.41E-04
    4    -571.7232046760      1.05E-04
    5    -571.7235935185      7.84E-05
    6    -571.7238385093      5.61E-05
    7    -571.7240277686      2.86E-05
    8    -571.7240841319      1.10E-05
    9    -571.7240934731      2.48E-06
   10    -571.7240939404      5.52E-07
   11    -571.7240939616      8.88E-08
   12    -571.7240939621      3.16E-08
   13    -571.7240939622      1.20E-08
   14    -571.7240939622      4.94E-09 Convergence criterion met
 ---------------------------------------

************** Final PCM Free Energy Summary **************
 G_electrostatic  =      -0.29961616 hartree =    -188.01197500 kcal/mol
 G_cavitation     =       0.00000000 hartree =       0.00000000 kcal/mol
 G_dispersion     =       0.00000000 hartree =       0.00000000 kcal/mol
 G_repulsion      =       0.00000000 hartree =       0.00000000 kcal/mol
 --------------------------------------------------
 Non-electrostatic Free Energy =       0.00000000 hartree =       0.00000000 kcal/mol
 Total                         =      -0.29961616 hartree =    -188.01197500 kcal/mol
 --------------------------------------------------
 SCF Energy (H0 + V/2)                       =    -571.72409396 
 Solute Internal Energy (H0)                 =    -571.42447781 
 Total Free Energy (H0 + V/2 + non-elec)     =    -571.72409396 hartree
                                             = -358762.28376016 kcal/mol
***********************************************************

 SCF time:  CPU 3542.29 s  wall 256.39 s
 SCF   energy in the final basis set = -571.72409396
 Total energy in the final basis set = -571.72409396
 
 --------------------------------------------------------------
 
                    Orbital Energies (a.u.)
 --------------------------------------------------------------
 
 Alpha MOs
 -- Occupied --
-19.217 -19.181 -19.142 -19.139 -19.136 -10.339 -10.334 -10.245
-10.242 -10.236  -1.200  -1.141  -1.070  -1.047  -0.950  -0.879
 -0.827  -0.760  -0.642  -0.610  -0.600  -0.562  -0.555  -0.535
 -0.515  -0.509  -0.503  -0.489  -0.463  -0.448  -0.444  -0.433
 -0.419  -0.394  -0.352  -0.346  -0.342  -0.331  -0.323  -0.293
 -- Virtual --
  0.062   0.071   0.083   0.087   0.096   0.101   0.111   0.122
  0.127   0.132   0.135   0.144   0.152   0.155   0.161   0.169
  0.183   0.187   0.189   0.190   0.194   0.205   0.220   0.224
  0.226   0.239   0.244   0.254   0.262   0.268   0.270   0.283
  0.286   0.288   0.293   0.305   0.308   0.314   0.319   0.326
  0.334   0.336   0.341   0.353   0.357   0.359   0.366   0.370
  0.375   0.379   0.392   0.395   0.400   0.405   0.406   0.417
  0.419   0.429   0.433   0.437   0.441   0.451   0.454   0.460
  0.470   0.471   0.479   0.481   0.487   0.496   0.498   0.505
  0.513   0.519   0.523   0.528   0.537   0.539   0.544   0.553
  0.556   0.567   0.575   0.578   0.583   0.592   0.596   0.599
  0.605   0.608   0.615   0.631   0.639   0.642   0.646   0.651
  0.656   0.659   0.666   0.681   0.689   0.702   0.709   0.715
  0.722   0.727   0.732   0.745   0.755   0.760   0.772   0.775
  0.780   0.790   0.792   0.801   0.802   0.809   0.811   0.817
  0.829   0.831   0.842   0.842   0.848   0.853   0.861   0.871
  0.877   0.881   0.888   0.894   0.897   0.922   0.933   0.933
  0.947   0.958   0.977   0.986   1.000   1.007   1.018   1.020
  1.041   1.061   1.070   1.075   1.086   1.091   1.112   1.117
  1.143   1.151   1.170   1.174   1.182   1.195   1.204   1.214
  1.232   1.236   1.238   1.256   1.283   1.290   1.317   1.324
  1.342   1.365   1.386   1.401   1.420   1.428   1.436   1.459
  1.473   1.486   1.492   1.512   1.532   1.546   1.569   1.582
  1.616   1.638   1.658   1.668   1.712   1.755   1.778   1.832
  1.840   1.867   1.872   1.908   1.923   1.934   1.949   1.961
  1.971   1.974   1.985   1.991   1.996   2.013   2.037   2.043
  2.052   2.059   2.088   2.111   2.129   2.134   2.175   2.179
  2.204   2.219   2.237   2.262   2.271   2.284   2.291   2.307
  2.321   2.340   2.357   2.369   2.392   2.410   2.436   2.451
  2.462   2.481   2.487   2.514   2.531   2.541   2.565   2.580
  2.610   2.632   2.652   2.673   2.682   2.697   2.730   2.732
  2.752   2.773   2.798   2.827   2.854   2.869   2.903   2.918
  2.941   2.946   2.967   2.991   2.997   3.024   3.037   3.040
  3.048   3.097   3.110   3.116   3.139   3.169   3.181   3.224
  3.263   3.275   3.285   3.305   3.322   3.335   3.356   3.373
  3.385   3.403   3.441   3.455   3.478   3.482   3.512   3.519
  3.538   3.550   3.560   3.569   3.587   3.594   3.623   3.631
  3.644   3.652   3.663   3.679   3.693   3.715   3.738   3.744
  3.750   3.758   3.788   3.790   3.811   3.827   3.843   3.853
  3.863   3.919   3.928   3.965   3.999   4.053   4.069   4.140
  4.155   4.177   4.195   4.258   4.292   4.304   4.335   4.364
  4.438   4.469   4.490   4.593   4.645   4.689   4.699   4.711
  4.795   4.826   4.839   4.844   4.890   4.940   4.956   4.995
  5.045   5.110   5.140   5.206   5.268   5.299   5.321   5.326
  5.358   5.368   5.382   5.418   5.424   5.505   5.578   5.587
  5.601   5.689   5.718   5.722   5.738   5.775   5.786   5.867
  5.978   6.009   6.087   6.104   6.154   6.213   6.247   6.309
  6.338   6.379   6.414   6.604   6.621   6.641   6.672   6.701
  6.720   6.759   6.776   6.851   6.869   6.928   6.959   6.974
  7.021   7.059   7.102   7.196   7.221   7.246   7.262   7.324
  7.365   7.396   7.411   7.459   7.556   7.672   8.333  22.744
 22.902  22.965  23.070  23.738  44.232  44.301  44.421  44.606
 44.725
 --------------------------------------------------------------
 
          Ground-State Mulliken Net Atomic Charges

     Atom                 Charge (a.u.)
  ----------------------------------------
      1 C                    -0.197071
      2 C                    -0.016954
      3 O                    -0.714575
      4 O                    -0.693454
      5 C                    -0.266248
      6 H                     0.204631
      7 H                     0.196602
      8 C                     0.947956
      9 H                     0.184100
     10 H                     0.207129
     11 C                    -1.331824
     12 H                     0.270278
     13 H                     0.239573
     14 H                     0.243535
     15 O                    -0.752318
     16 O                    -0.243642
     17 O                    -0.670481
     18 H                     0.392762
  ----------------------------------------
  Sum of atomic charges =    -2.000000

 -----------------------------------------------------------------
                    Cartesian Multipole Moments
 -----------------------------------------------------------------
    Charge (ESU x 10^10)
                -9.6064
    Dipole Moment (Debye)
         X      -8.6038      Y      -5.6946      Z       3.8378
       Tot      11.0083
    Quadrupole Moments (Debye-Ang)
        XX     -72.6667     XY      -3.0013     YY    -106.5890
        XZ       7.4565     YZ      34.0555     ZZ    -136.0231
    Octopole Moments (Debye-Ang^2)
       XXX     -66.6280    XXY     -15.4051    XYY     -43.3414
       YYY    -114.1071    XXZ      17.5460    XYZ      24.1984
       YYZ      77.6667    XZZ     -85.2115    YZZ     -85.9783
       ZZZ      86.3604
    Hexadecapole Moments (Debye-Ang^3)
      XXXX    -362.8752   XXXY     -67.0268   XXYY    -222.0947
      XYYY     -93.8672   YYYY   -1257.7799   XXXZ      90.2345
      XXYZ     150.1853   XYYZ      68.3403   YYYZ     645.8884
      XXZZ    -372.3009   XYZZ     -80.1784   YYZZ    -597.8655
      XZZZ     171.8955   YZZZ     633.8887   ZZZZ   -2126.5387
 -----------------------------------------------------------------
 Calculating analytic gradient of the SCF energy
 Gradient of SCF Energy
            1           2           3           4           5           6
    1  -0.0494859   0.0054369   0.0039650  -0.0263063   0.1557485   0.0422320
    2   0.0632868   0.0004829  -0.0535602   0.0334750  -0.1021659  -0.0033336
    3   0.0792281  -0.0500625   0.0146381   0.0424091  -0.0622537   0.0109741
            7           8           9          10          11          12
    1  -0.0215984  -0.0744934  -0.0666405   0.0195774  -0.0918193   0.0256064
    2  -0.0407499   0.0762460  -0.0046073   0.0374700   0.0016179  -0.0730668
    3  -0.0377778  -0.0086162  -0.0056886   0.0375137   0.0210691   0.0160976
           13          14          15          16          17          18
    1   0.0236500   0.0141009   0.0133710   0.0016030   0.0157477   0.0093051
    2   0.0248356   0.0496802  -0.0085658   0.0222100  -0.0315459   0.0082911
    3  -0.0708621   0.0576554  -0.0112710  -0.0462068   0.0373066  -0.0241530
 Max gradient component =       1.557E-01
 RMS gradient           =       4.691E-02
 Computing fast CPCM-ISWIG gradient
 Updating gradient with PCM contributions...
 -- total gradient after adding PCM contribution --
---------------------------------------------------
  Atom         X              Y              Z     
---------------------------------------------------
   1      -0.001007       0.000002      -0.000049
   2       0.000193       0.000029      -0.000036
   3      -0.000031      -0.000005      -0.000008
   4      -0.000016      -0.000012      -0.000053
   5       0.000182      -0.000077       0.000008
   6       0.000580       0.000005       0.000037
   7       0.000113       0.000071       0.000091
   8      -0.000007       0.000018       0.000014
   9       0.000018      -0.000061       0.000014
  10      -0.000006       0.000014      -0.000003
  11      -0.000000       0.000004      -0.000001
  12       0.000000       0.000004      -0.000001
  13      -0.000002       0.000002      -0.000001
  14      -0.000002       0.000003      -0.000001
  15      -0.000007       0.000005      -0.000004
  16      -0.000002      -0.000001      -0.000008
  17      -0.000002      -0.000005       0.000001
  18      -0.000004       0.000003       0.000001
---------------------------------------------------
 Number of fixed atoms: 0
 Gradient time:  CPU 883.45 s  wall 64.22 s
 ----------------------------------------------------------------
             Standard Nuclear Orientation (Angstroms)
    I     Atom           X                Y                Z
 ----------------------------------------------------------------
    1      C       0.0825282881     1.1759647692    -0.9170757067
    2      C       0.6367491073     1.7550983211    -2.2283796483
    3      O       0.4920663464     2.9983385665    -2.3886191575
    4      O       1.1671115828     0.9726811663    -3.0577472409
    5      C       0.5671674615    -0.2288089381    -0.5695283086
    6      H      -1.0100050581     1.1916575086    -1.0164963877
    7      H       0.3242647085     1.8769638795    -0.1131521009
    8      C       0.0589997397    -0.7859303602     0.7593893989
    9      H       1.6619021356    -0.2433887734    -0.5238621297
   10      H       0.2699318059    -0.9296570078    -1.3571967970
   11      C      -1.4651175141    -0.9097493912     0.8186157633
   12      H      -1.9594534143     0.0513322617     0.6509905571
   13      H      -1.7524863699    -1.2849462260     1.8051247213
   14      H      -1.8115732360    -1.6196978448     0.0602632774
   15      O       0.6699212250    -1.9730272475     1.0925338013
   16      O       0.4777951680     0.1804129676     1.8018615107
   17      O       0.7519401800    -0.6301229635     2.9636590850
   18      H       0.8382578438    -1.5961206877     2.2196193622
 ----------------------------------------------------------------
 Nuclear Repulsion Energy =   548.0179054438 hartrees
 There are       40 alpha and       40 beta electrons
 Discretize the solute cavity surface with Lebedev spheres
	Using 110 Lebedev grid points for each H atom
	Using 110 Lebedev grid points for other atoms
	Atomic van der Waals radii will be scaled by 1.20
 Remove points where switching function is < 1.0e-08
 Keep 1040 surface tesserae and discard 940 interior tesserae
 Molecular Surface Area = 186.012 Angst**2
 Requested basis set is def2-TZVPD
 There are 175 shells and 457 basis functions
 A cutoff of  1.0D-14 yielded  14083 shell pairs
 There are     95899 function pairs (    121906 Cartesian)
 Smallest overlap matrix eigenvalue = 2.65E-06
 Guess MOs from SCF MO coefficient file
 Reading MOs from coefficient file
 Reading MOs from coefficient file
 Long-range K will be added via erf
 Coulomb attenuation parameter = 0.3 bohr**(-1)
 A restricted hybrid HF-DFT SCF calculation will be
 performed using Pulay DIIS extrapolation
 Polarizable Continuum solvation model will be applied
 Exchange:     0.1670 Hartree-Fock + 1.0000 wB97X-V + LR-HF
 Correlation:  1.0000 wB97X-V
 Using SG-2 standard quadrature grid
 Nonlocal Correlation:  VV10 with C = 0.0100 and b = 6.00
 Grid used for NLC:  SG-1 standard quadrature
 SCF converges when DIIS error is below 1.0E-08
Using Q-Chem read-in guess as SCF_GUESS READ specified.

 using 16 threads for integral computing
 -------------------------------------------------------
 OpenMP Integral computing Module                
 Release: version 1.0, May 2013, Q-Chem Inc. Pittsburgh 
 -------------------------------------------------------
 using 16 threads for integral computing
 -------------------------------------------------------
 OpenMP Integral computing Module                
 Release: version 1.0, May 2013, Q-Chem Inc. Pittsburgh 
 -------------------------------------------------------
 -------------------------------------------------------
 OpenMP BLAS3 based DFT computing Module                
 Release: version 1.0, May 2013, Q-Chem Inc. Pittsburgh 
 -------------------------------------------------------
 -------------------------------------------------------
 OpenMP BLAS3 based DFT computing Module                
 Release: version 1.0, May 2013, Q-Chem Inc. Pittsburgh 
 -------------------------------------------------------
 -------------------------------------------------------
 OpenMP BLAS3 based DFT computing Module                
 Release: version 1.0, May 2013, Q-Chem Inc. Pittsburgh 
 -------------------------------------------------------
 ---------------------------------------
  Cycle       Energy         DIIS Error
 ---------------------------------------
    1    -571.4244945804      2.95E-04
    2    -571.7190398008      3.03E-04
    3    -571.7226034362      1.42E-04
    4    -571.7232009302      1.06E-04
    5    -571.7235837589      7.92E-05
    6    -571.7238014456      6.00E-05
    7    -571.7239848604      3.67E-05
    8    -571.7240686624      1.77E-05
    9    -571.7240919151      5.04E-06
   10    -571.7240938462      1.21E-06
   11    -571.7240939573      1.62E-07
   12    -571.7240939592      3.76E-08
   13    -571.7240939592      1.27E-08
   14    -571.7240939592      6.63E-09 Convergence criterion met
 ---------------------------------------

************** Final PCM Free Energy Summary **************
 G_electrostatic  =      -0.29961653 hartree =    -188.01220844 kcal/mol
 G_cavitation     =       0.00000000 hartree =       0.00000000 kcal/mol
 G_dispersion     =       0.00000000 hartree =       0.00000000 kcal/mol
 G_repulsion      =       0.00000000 hartree =       0.00000000 kcal/mol
 --------------------------------------------------
 Non-electrostatic Free Energy =       0.00000000 hartree =       0.00000000 kcal/mol
 Total                         =      -0.29961653 hartree =    -188.01220844 kcal/mol
 --------------------------------------------------
 SCF Energy (H0 + V/2)                       =    -571.72409396 
 Solute Internal Energy (H0)                 =    -571.42447743 
 Total Free Energy (H0 + V/2 + non-elec)     =    -571.72409396 hartree
                                             = -358762.28375831 kcal/mol
***********************************************************

 SCF time:  CPU 3529.76 s  wall 255.90 s
 SCF   energy in the final basis set = -571.72409396
 Total energy in the final basis set = -571.72409396
 
 --------------------------------------------------------------
 
                    Orbital Energies (a.u.)
 --------------------------------------------------------------
 
 Alpha MOs
 -- Occupied --
-19.217 -19.181 -19.143 -19.139 -19.136 -10.339 -10.334 -10.245
-10.242 -10.236  -1.200  -1.142  -1.070  -1.047  -0.950  -0.879
 -0.827  -0.760  -0.642  -0.610  -0.600  -0.562  -0.555  -0.535
 -0.515  -0.509  -0.503  -0.489  -0.463  -0.448  -0.444  -0.433
 -0.419  -0.394  -0.352  -0.346  -0.342  -0.331  -0.323  -0.293
 -- Virtual --
  0.062   0.071   0.083   0.087   0.096   0.101   0.111   0.122
  0.127   0.132   0.135   0.144   0.152   0.155   0.161   0.169
  0.183   0.187   0.189   0.190   0.194   0.205   0.220   0.225
  0.226   0.239   0.244   0.254   0.262   0.268   0.270   0.283
  0.286   0.289   0.293   0.305   0.308   0.314   0.319   0.326
  0.334   0.336   0.341   0.353   0.357   0.359   0.366   0.370
  0.375   0.379   0.392   0.395   0.400   0.405   0.406   0.417
  0.419   0.429   0.433   0.437   0.441   0.451   0.454   0.460
  0.470   0.471   0.479   0.481   0.487   0.496   0.498   0.505
  0.513   0.519   0.523   0.529   0.537   0.539   0.544   0.553
  0.556   0.567   0.575   0.578   0.583   0.592   0.596   0.599
  0.605   0.608   0.615   0.631   0.639   0.642   0.646   0.651
  0.656   0.659   0.666   0.681   0.689   0.702   0.709   0.715
  0.722   0.727   0.732   0.745   0.755   0.761   0.772   0.775
  0.780   0.790   0.792   0.801   0.802   0.809   0.811   0.817
  0.829   0.831   0.842   0.842   0.848   0.853   0.861   0.871
  0.877   0.881   0.888   0.894   0.897   0.922   0.933   0.933
  0.947   0.958   0.977   0.986   1.000   1.007   1.018   1.020
  1.041   1.061   1.070   1.075   1.086   1.091   1.112   1.117
  1.143   1.151   1.170   1.174   1.182   1.195   1.204   1.214
  1.232   1.236   1.238   1.256   1.283   1.290   1.317   1.324
  1.342   1.365   1.385   1.401   1.420   1.428   1.436   1.459
  1.473   1.486   1.492   1.512   1.532   1.546   1.569   1.582
  1.616   1.638   1.658   1.668   1.712   1.756   1.778   1.832
  1.840   1.867   1.872   1.908   1.923   1.934   1.949   1.961
  1.971   1.974   1.985   1.991   1.996   2.013   2.037   2.043
  2.052   2.059   2.088   2.111   2.129   2.134   2.175   2.179
  2.204   2.219   2.237   2.262   2.271   2.284   2.291   2.307
  2.321   2.340   2.357   2.369   2.392   2.410   2.436   2.451
  2.461   2.481   2.487   2.514   2.531   2.541   2.565   2.580
  2.610   2.632   2.652   2.673   2.683   2.697   2.730   2.732
  2.753   2.774   2.797   2.827   2.854   2.869   2.903   2.918
  2.941   2.946   2.967   2.990   2.997   3.024   3.037   3.040
  3.048   3.097   3.110   3.117   3.139   3.169   3.181   3.224
  3.264   3.275   3.284   3.305   3.322   3.335   3.356   3.373
  3.385   3.403   3.441   3.455   3.478   3.483   3.512   3.519
  3.538   3.550   3.560   3.569   3.587   3.594   3.623   3.631
  3.644   3.652   3.663   3.679   3.693   3.715   3.738   3.744
  3.750   3.758   3.788   3.790   3.811   3.827   3.843   3.853
  3.863   3.919   3.928   3.965   3.999   4.053   4.068   4.140
  4.155   4.177   4.195   4.258   4.293   4.304   4.335   4.364
  4.438   4.469   4.490   4.592   4.646   4.689   4.698   4.710
  4.795   4.825   4.839   4.844   4.890   4.940   4.956   4.995
  5.045   5.110   5.140   5.206   5.267   5.299   5.321   5.326
  5.358   5.368   5.382   5.418   5.424   5.506   5.578   5.587
  5.601   5.689   5.718   5.722   5.738   5.775   5.786   5.867
  5.978   6.009   6.087   6.104   6.154   6.213   6.247   6.309
  6.338   6.379   6.414   6.604   6.621   6.641   6.672   6.701
  6.720   6.759   6.776   6.851   6.869   6.928   6.959   6.974
  7.021   7.059   7.102   7.196   7.221   7.246   7.262   7.324
  7.365   7.397   7.411   7.459   7.556   7.672   8.332  22.744
 22.902  22.965  23.069  23.738  44.232  44.301  44.421  44.606
 44.725
 --------------------------------------------------------------
 
          Ground-State Mulliken Net Atomic Charges

     Atom                 Charge (a.u.)
  ----------------------------------------
      1 C                    -0.196344
      2 C                    -0.017387
      3 O                    -0.714612
      4 O                    -0.693519
      5 C                    -0.267393
      6 H                     0.203904
      7 H                     0.197453
      8 C                     0.948247
      9 H                     0.184342
     10 H                     0.207329
     11 C                    -1.331778
     12 H                     0.270307
     13 H                     0.239534
     14 H                     0.243527
     15 O                    -0.752287
     16 O                    -0.243676
     17 O                    -0.670455
     18 H                     0.392808
  ----------------------------------------
  Sum of atomic charges =    -2.000000

 -----------------------------------------------------------------
                    Cartesian Multipole Moments
 -----------------------------------------------------------------
    Charge (ESU x 10^10)
                -9.6064
    Dipole Moment (Debye)
         X      -8.6034      Y      -5.6948      Z       3.8399
       Tot      11.0088
    Quadrupole Moments (Debye-Ang)
        XX     -72.6684     XY      -2.9993     YY    -106.5898
        XZ       7.4555     YZ      34.0603     ZZ    -136.0267
    Octopole Moments (Debye-Ang^2)
       XXX     -66.6405    XXY     -15.4095    XYY     -43.3431
       YYY    -114.1318    XXZ      17.5465    XYZ      24.1960
       YYZ      77.6825    XZZ     -85.2128    YZZ     -85.9962
       ZZZ      86.3783
    Hexadecapole Moments (Debye-Ang^3)
      XXXX    -362.8879   XXXY     -67.0325   XXYY    -222.1094
      XYYY     -93.8798   YYYY   -1257.8799   XXXZ      90.2392
      XXYZ     150.1890   XYYZ      68.3425   YYYZ     645.9550
      XXZZ    -372.2966   XYZZ     -80.1809   YYZZ    -597.9170
      XZZZ     171.9006   YZZZ     633.9483   ZZZZ   -2126.5937
 -----------------------------------------------------------------
 Calculating analytic gradient of the SCF energy
 Gradient of SCF Energy
            1           2           3           4           5           6
    1  -0.0483713   0.0052649   0.0039803  -0.0262870   0.1554059   0.0416788
    2   0.0638860   0.0002497  -0.0535723   0.0335022  -0.1022801  -0.0032151
    3   0.0794603  -0.0499103   0.0146647   0.0424220  -0.0622079   0.0108767
            7           8           9          10          11          12
    1  -0.0217441  -0.0744826  -0.0666653   0.0196401  -0.0917894   0.0255916
    2  -0.0410873   0.0762051  -0.0045964   0.0374221   0.0016558  -0.0730866
    3  -0.0382102  -0.0086041  -0.0056217   0.0374986   0.0210667   0.0161090
           13          14          15          16          17          18
    1   0.0236522   0.0141070   0.0133716   0.0016014   0.0157448   0.0093010
    2   0.0248399   0.0496887  -0.0085700   0.0222177  -0.0315446   0.0082851
    3  -0.0708655   0.0576525  -0.0112675  -0.0462148   0.0373074  -0.0241556
 Max gradient component =       1.554E-01
 RMS gradient           =       4.690E-02
 Computing fast CPCM-ISWIG gradient
 Updating gradient with PCM contributions...
 -- total gradient after adding PCM contribution --
---------------------------------------------------
  Atom         X              Y              Z     
---------------------------------------------------
   1      -0.000001       0.001009       0.000089
   2      -0.000025      -0.000163       0.000050
   3      -0.000017      -0.000070       0.000075
   4       0.000029       0.000010      -0.000040
   5       0.000079      -0.000352       0.000034
   6       0.000003      -0.000084       0.000001
   7      -0.000070      -0.000294      -0.000235
   8       0.000003      -0.000021       0.000019
   9       0.000001      -0.000004       0.000001
  10       0.000015      -0.000041       0.000011
  11      -0.000003       0.000005      -0.000000
  12      -0.000000       0.000001       0.000001
  13      -0.000001       0.000002      -0.000001
  14      -0.000002       0.000003      -0.000001
  15      -0.000003       0.000004       0.000005
  16      -0.000002      -0.000000      -0.000008
  17      -0.000001      -0.000006       0.000001
  18      -0.000004       0.000000      -0.000001
---------------------------------------------------
 Number of fixed atoms: 0
 Gradient time:  CPU 885.95 s  wall 63.82 s
 ----------------------------------------------------------------
             Standard Nuclear Orientation (Angstroms)
    I     Atom           X                Y                Z
 ----------------------------------------------------------------
    1      C       0.0825282881     1.1739647692    -0.9170757067
    2      C       0.6367491073     1.7550983211    -2.2283796483
    3      O       0.4920663464     2.9983385665    -2.3886191575
    4      O       1.1671115828     0.9726811663    -3.0577472409
    5      C       0.5671674615    -0.2288089381    -0.5695283086
    6      H      -1.0100050581     1.1916575086    -1.0164963877
    7      H       0.3242647085     1.8769638795    -0.1131521009
    8      C       0.0589997397    -0.7859303602     0.7593893989
    9      H       1.6619021356    -0.2433887734    -0.5238621297
   10      H       0.2699318059    -0.9296570078    -1.3571967970
   11      C      -1.4651175141    -0.9097493912     0.8186157633
   12      H      -1.9594534143     0.0513322617     0.6509905571
   13      H      -1.7524863699    -1.2849462260     1.8051247213
   14      H      -1.8115732360    -1.6196978448     0.0602632774
   15      O       0.6699212250    -1.9730272475     1.0925338013
   16      O       0.4777951680     0.1804129676     1.8018615107
   17      O       0.7519401800    -0.6301229635     2.9636590850
   18      H       0.8382578438    -1.5961206877     2.2196193622
 ----------------------------------------------------------------
 Nuclear Repulsion Energy =   548.0337475181 hartrees
 There are       40 alpha and       40 beta electrons
 Discretize the solute cavity surface with Lebedev spheres
	Using 110 Lebedev grid points for each H atom
	Using 110 Lebedev grid points for other atoms
	Atomic van der Waals radii will be scaled by 1.20
 Remove points where switching function is < 1.0e-08
 Keep 1040 surface tesserae and discard 940 interior tesserae
 Molecular Surface Area = 186.011 Angst**2
 Requested basis set is def2-TZVPD
 There are 175 shells and 457 basis functions
 A cutoff of  1.0D-14 yielded  14083 shell pairs
 There are     95899 function pairs (    121906 Cartesian)
 Smallest overlap matrix eigenvalue = 2.64E-06
 Guess MOs from SCF MO coefficient file
 Reading MOs from coefficient file
 Reading MOs from coefficient file
 Long-range K will be added via erf
 Coulomb attenuation parameter = 0.3 bohr**(-1)
 A restricted hybrid HF-DFT SCF calculation will be
 performed using Pulay DIIS extrapolation
 Polarizable Continuum solvation model will be applied
 Exchange:     0.1670 Hartree-Fock + 1.0000 wB97X-V + LR-HF
 Correlation:  1.0000 wB97X-V
 Using SG-2 standard quadrature grid
 Nonlocal Correlation:  VV10 with C = 0.0100 and b = 6.00
 Grid used for NLC:  SG-1 standard quadrature
 SCF converges when DIIS error is below 1.0E-08
Using Q-Chem read-in guess as SCF_GUESS READ specified.

 using 16 threads for integral computing
 -------------------------------------------------------
 OpenMP Integral computing Module                
 Release: version 1.0, May 2013, Q-Chem Inc. Pittsburgh 
 -------------------------------------------------------
 using 16 threads for integral computing
 -------------------------------------------------------
 OpenMP Integral computing Module                
 Release: version 1.0, May 2013, Q-Chem Inc. Pittsburgh 
 -------------------------------------------------------
 -------------------------------------------------------
 OpenMP BLAS3 based DFT computing Module                
 Release: version 1.0, May 2013, Q-Chem Inc. Pittsburgh 
 -------------------------------------------------------
 -------------------------------------------------------
 OpenMP BLAS3 based DFT computing Module                
 Release: version 1.0, May 2013, Q-Chem Inc. Pittsburgh 
 -------------------------------------------------------
 -------------------------------------------------------
 OpenMP BLAS3 based DFT computing Module                
 Release: version 1.0, May 2013, Q-Chem Inc. Pittsburgh 
 -------------------------------------------------------
 ---------------------------------------
  Cycle       Energy         DIIS Error
 ---------------------------------------
    1    -571.4239055962      2.96E-04
    2    -571.7190376117      3.03E-04
    3    -571.7226061431      1.42E-04
    4    -571.7232059765      1.05E-04
    5    -571.7235996839      7.80E-05
    6    -571.7238460308      5.53E-05
    7    -571.7240328003      2.75E-05
    8    -571.7240852036      1.04E-05
    9    -571.7240935295      2.31E-06
   10    -571.7240939372      4.99E-07
   11    -571.7240939542      8.46E-08
   12    -571.7240939547      3.03E-08
   13    -571.7240939547      1.20E-08
   14    -571.7240939547      5.07E-09 Convergence criterion met
 ---------------------------------------

************** Final PCM Free Energy Summary **************
 G_electrostatic  =      -0.29961247 hartree =    -188.00966405 kcal/mol
 G_cavitation     =       0.00000000 hartree =       0.00000000 kcal/mol
 G_dispersion     =       0.00000000 hartree =       0.00000000 kcal/mol
 G_repulsion      =       0.00000000 hartree =       0.00000000 kcal/mol
 --------------------------------------------------
 Non-electrostatic Free Energy =       0.00000000 hartree =       0.00000000 kcal/mol
 Total                         =      -0.29961247 hartree =    -188.00966405 kcal/mol
 --------------------------------------------------
 SCF Energy (H0 + V/2)                       =    -571.72409395 
 Solute Internal Energy (H0)                 =    -571.42448148 
 Total Free Energy (H0 + V/2 + non-elec)     =    -571.72409395 hartree
                                             = -358762.28375548 kcal/mol
***********************************************************

 SCF time:  CPU 3540.80 s  wall 256.34 s
 SCF   energy in the final basis set = -571.72409395
 Total energy in the final basis set = -571.72409395
 
 --------------------------------------------------------------
 
                    Orbital Energies (a.u.)
 --------------------------------------------------------------
 
 Alpha MOs
 -- Occupied --
-19.217 -19.181 -19.143 -19.139 -19.137 -10.339 -10.334 -10.245
-10.242 -10.236  -1.200  -1.141  -1.070  -1.047  -0.951  -0.879
 -0.827  -0.760  -0.642  -0.610  -0.600  -0.562  -0.555  -0.535
 -0.515  -0.509  -0.503  -0.489  -0.463  -0.448  -0.444  -0.433
 -0.419  -0.394  -0.352  -0.346  -0.342  -0.331  -0.324  -0.293
 -- Virtual --
  0.062   0.071   0.083   0.087   0.096   0.101   0.111   0.122
  0.127   0.132   0.135   0.144   0.152   0.155   0.161   0.169
  0.183   0.187   0.189   0.190   0.194   0.205   0.220   0.224
  0.226   0.239   0.244   0.254   0.262   0.268   0.269   0.283
  0.286   0.288   0.293   0.305   0.308   0.314   0.319   0.326
  0.334   0.336   0.341   0.353   0.357   0.359   0.366   0.370
  0.375   0.379   0.392   0.395   0.400   0.405   0.406   0.417
  0.419   0.429   0.433   0.437   0.441   0.451   0.454   0.460
  0.470   0.471   0.479   0.481   0.487   0.496   0.498   0.505
  0.513   0.519   0.523   0.528   0.537   0.539   0.544   0.553
  0.556   0.567   0.575   0.578   0.583   0.592   0.596   0.599
  0.605   0.608   0.615   0.631   0.639   0.642   0.646   0.651
  0.656   0.659   0.666   0.681   0.690   0.702   0.709   0.715
  0.722   0.727   0.732   0.745   0.755   0.760   0.772   0.775
  0.780   0.790   0.792   0.801   0.802   0.809   0.811   0.817
  0.829   0.831   0.842   0.842   0.848   0.853   0.861   0.871
  0.877   0.881   0.888   0.894   0.897   0.922   0.933   0.933
  0.947   0.958   0.977   0.986   1.000   1.007   1.018   1.020
  1.041   1.061   1.070   1.075   1.086   1.091   1.112   1.117
  1.143   1.151   1.170   1.174   1.182   1.195   1.204   1.214
  1.232   1.236   1.237   1.257   1.283   1.290   1.317   1.324
  1.342   1.365   1.386   1.402   1.420   1.428   1.436   1.459
  1.473   1.486   1.492   1.512   1.532   1.546   1.569   1.582
  1.616   1.638   1.658   1.668   1.712   1.755   1.778   1.832
  1.840   1.867   1.872   1.908   1.923   1.934   1.949   1.961
  1.971   1.974   1.985   1.991   1.996   2.013   2.037   2.043
  2.052   2.059   2.088   2.111   2.129   2.135   2.175   2.179
  2.204   2.219   2.237   2.262   2.271   2.284   2.291   2.307
  2.321   2.340   2.357   2.369   2.392   2.410   2.436   2.451
  2.462   2.481   2.487   2.514   2.531   2.542   2.565   2.580
  2.610   2.632   2.652   2.673   2.683   2.697   2.730   2.732
  2.753   2.773   2.798   2.827   2.854   2.869   2.903   2.919
  2.941   2.946   2.967   2.991   2.997   3.024   3.037   3.040
  3.048   3.097   3.110   3.116   3.139   3.169   3.181   3.224
  3.263   3.275   3.285   3.305   3.322   3.335   3.356   3.374
  3.385   3.403   3.441   3.455   3.478   3.483   3.513   3.519
  3.538   3.550   3.560   3.569   3.587   3.594   3.623   3.631
  3.644   3.652   3.663   3.680   3.693   3.715   3.738   3.745
  3.750   3.758   3.788   3.790   3.811   3.827   3.843   3.854
  3.863   3.919   3.928   3.966   3.999   4.052   4.069   4.141
  4.155   4.177   4.195   4.258   4.292   4.304   4.335   4.364
  4.438   4.469   4.491   4.593   4.646   4.689   4.699   4.711
  4.795   4.825   4.839   4.845   4.890   4.940   4.956   4.996
  5.045   5.111   5.140   5.206   5.268   5.299   5.321   5.326
  5.358   5.368   5.382   5.418   5.424   5.505   5.578   5.587
  5.601   5.689   5.718   5.722   5.739   5.775   5.786   5.867
  5.978   6.009   6.087   6.104   6.155   6.213   6.247   6.309
  6.338   6.379   6.414   6.604   6.621   6.641   6.672   6.701
  6.720   6.759   6.776   6.851   6.869   6.928   6.959   6.974
  7.021   7.059   7.102   7.196   7.221   7.246   7.262   7.324
  7.365   7.397   7.411   7.459   7.556   7.672   8.332  22.744
 22.902  22.966  23.070  23.738  44.232  44.301  44.421  44.606
 44.725
 --------------------------------------------------------------
 
          Ground-State Mulliken Net Atomic Charges

     Atom                 Charge (a.u.)
  ----------------------------------------
      1 C                    -0.196678
      2 C                    -0.017634
      3 O                    -0.714632
      4 O                    -0.693508
      5 C                    -0.263607
      6 H                     0.203764
      7 H                     0.196563
      8 C                     0.947376
      9 H                     0.183751
     10 H                     0.206736
     11 C                    -1.331949
     12 H                     0.270237
     13 H                     0.239645
     14 H                     0.243550
     15 O                    -0.752323
     16 O                    -0.243619
     17 O                    -0.670457
     18 H                     0.392783
  ----------------------------------------
  Sum of atomic charges =    -2.000000

 -----------------------------------------------------------------
                    Cartesian Multipole Moments
 -----------------------------------------------------------------
    Charge (ESU x 10^10)
                -9.6064
    Dipole Moment (Debye)
         X      -8.6031      Y      -5.6953      Z       3.8387
       Tot      11.0084
    Quadrupole Moments (Debye-Ang)
        XX     -72.6683     XY      -3.0003     YY    -106.5867
        XZ       7.4552     YZ      34.0535     ZZ    -136.0245
    Octopole Moments (Debye-Ang^2)
       XXX     -66.6399    XXY     -15.4020    XYY     -43.3434
       YYY    -114.0857    XXZ      17.5493    XYZ      24.1939
       YYZ      77.6587    XZZ     -85.2148    YZZ     -85.9719
       ZZZ      86.3776
    Hexadecapole Moments (Debye-Ang^3)
      XXXX    -362.8847   XXXY     -67.0355   XXYY    -222.0815
      XYYY     -93.8700   YYYY   -1257.6557   XXXZ      90.2424
      XXYZ     150.1767   XYYZ      68.3303   YYYZ     645.8307
      XXZZ    -372.3053   XYZZ     -80.1739   YYZZ    -597.8227
      XZZZ     171.9150   YZZZ     633.8627   ZZZZ   -2126.5823
 -----------------------------------------------------------------
 Calculating analytic gradient of the SCF energy
 Gradient of SCF Energy
            1           2           3           4           5           6
    1  -0.0488290   0.0053124   0.0039935  -0.0262963   0.1556724   0.0416101
    2   0.0627113   0.0005730  -0.0535473   0.0334576  -0.1016924  -0.0033354
    3   0.0791473  -0.0499952   0.0145986   0.0424483  -0.0623663   0.0109852
            7           8           9          10          11          12
    1  -0.0215710  -0.0744180  -0.0665848   0.0195548  -0.0918334   0.0256068
    2  -0.0406152   0.0760832  -0.0045430   0.0374355   0.0016436  -0.0730736
    3  -0.0375426  -0.0087532  -0.0056318   0.0374592   0.0210688   0.0161019
           13          14          15          16          17          18
    1   0.0236524   0.0141017   0.0133722   0.0016004   0.0157465   0.0093094
    2   0.0248325   0.0496822  -0.0085636   0.0221998  -0.0315413   0.0082932
    3  -0.0708632   0.0576641  -0.0112646  -0.0462055   0.0373089  -0.0241598
 Max gradient component =       1.557E-01
 RMS gradient           =       4.684E-02
 Computing fast CPCM-ISWIG gradient
 Updating gradient with PCM contributions...
 -- total gradient after adding PCM contribution --
---------------------------------------------------
  Atom         X              Y              Z     
---------------------------------------------------
   1       0.000005      -0.001012      -0.000089
   2       0.000032       0.000161      -0.000050
   3       0.000026       0.000067      -0.000076
   4      -0.000027      -0.000015       0.000040
   5      -0.000080       0.000351      -0.000036
   6       0.000001       0.000087      -0.000004
   7       0.000075       0.000291       0.000234
[...]
 H         -0.503 -0.091  0.171   -0.224  0.106 -0.064   -0.357  0.133 -0.060
 O          0.014 -0.024  0.018   -0.068  0.137 -0.004   -0.055  0.057 -0.030
 O          0.028  0.011  0.030    0.105 -0.263  0.369   -0.019  0.043 -0.082
 O         -0.005  0.009 -0.025   -0.083  0.240 -0.327    0.017 -0.041  0.047
 H          0.001 -0.009 -0.024    0.031 -0.108 -0.161   -0.132 -0.036  0.021
 TransDip   0.005 -0.050 -0.012    0.041 -0.130 -0.106    0.098 -0.045  0.100

 Mode:                25                     26                     27
 Frequency:      1091.12                1114.65                1122.95
 Force Cnst:      1.9070                 1.3254                 0.9009
 Red. Mass:       2.7186                 1.8107                 1.2126
 IR Active:          YES                    YES                    YES
 IR Intens:       20.495                 60.979                126.101
 Raman Active:       YES                    YES                    YES
               X      Y      Z        X      Y      Z        X      Y      Z
 C          0.137 -0.218  0.020   -0.076 -0.097 -0.059   -0.001  0.053  0.018
 C         -0.039  0.006 -0.030    0.107  0.019  0.049   -0.022 -0.004 -0.007
 O          0.010  0.033 -0.012   -0.018  0.014 -0.016    0.002 -0.008  0.007
 O          0.009 -0.009  0.007   -0.026 -0.001  0.003    0.009 -0.004 -0.007
 C         -0.140  0.226 -0.029    0.052  0.071  0.046    0.022 -0.034 -0.042
 H          0.129 -0.419  0.078   -0.104 -0.141  0.369    0.005  0.059 -0.074
 H          0.035 -0.463  0.261    0.249  0.088 -0.313   -0.074 -0.018  0.104
 C         -0.003  0.067  0.024   -0.103 -0.084 -0.062   -0.021  0.035  0.058
 H         -0.137  0.401 -0.047    0.045 -0.220 -0.083    0.025  0.024 -0.017
 H         -0.052  0.277 -0.100   -0.202  0.358 -0.124    0.060 -0.133  0.033
 C          0.003 -0.034 -0.034    0.033  0.051  0.038    0.007 -0.028 -0.028
 H          0.111  0.042  0.056   -0.074 -0.035 -0.080    0.102  0.037  0.051
 H          0.063  0.089  0.031   -0.010 -0.092 -0.036    0.095  0.057  0.030
 H         -0.195  0.012  0.020    0.315 -0.006 -0.042   -0.141 -0.000  0.019
 O          0.007 -0.057  0.025   -0.003  0.008  0.020   -0.039 -0.010 -0.004
 O          0.003  0.002 -0.007    0.012  0.013  0.004    0.010 -0.004 -0.011
 O         -0.004 -0.005  0.003   -0.016 -0.009  0.010   -0.033 -0.010  0.017
 H          0.142  0.067  0.026    0.432  0.111 -0.168    0.887  0.269 -0.161
 TransDip   0.011  0.125  0.074    0.040 -0.117 -0.217    0.249  0.201  0.164

 Mode:                28                     29                     30
 Frequency:      1196.66                1232.62                1261.60
 Force Cnst:      1.6093                 1.4428                 1.8462
 Red. Mass:       1.9075                 1.6117                 1.9687
 IR Active:          YES                    YES                    YES
 IR Intens:      254.813                114.543                 75.770
 Raman Active:       YES                    YES                    YES
               X      Y      Z        X      Y      Z        X      Y      Z
 C         -0.057  0.041 -0.021   -0.013  0.066 -0.036    0.010  0.022 -0.009
 C          0.062  0.013  0.032   -0.018  0.014 -0.019    0.036  0.010  0.002
 O         -0.011 -0.011 -0.000    0.005 -0.036  0.010   -0.003 -0.011 -0.001
 O         -0.007 -0.006 -0.011    0.005  0.001 -0.004   -0.010  0.007  0.006
 C          0.010 -0.015 -0.098    0.056  0.090 -0.010   -0.100  0.016 -0.001
 H         -0.094 -0.311  0.385   -0.021  0.019  0.058   -0.017 -0.367  0.281
 H          0.034  0.130 -0.122   -0.039 -0.456  0.430   -0.015  0.164 -0.128
 C         -0.091  0.163  0.092   -0.117  0.023 -0.115    0.217  0.034 -0.143
 H         -0.018 -0.396  0.419    0.041 -0.250  0.080   -0.120 -0.236  0.470
 H          0.062  0.103 -0.219   -0.161 -0.392  0.493    0.054 -0.230  0.166
 C          0.031 -0.050 -0.060    0.020 -0.002  0.039   -0.020 -0.013  0.046
 H          0.180  0.064  0.126    0.096  0.011 -0.094   -0.164 -0.095 -0.083
 H          0.141  0.173  0.060   -0.055 -0.023 -0.000   -0.372 -0.002 -0.052
 H         -0.209  0.006  0.016    0.143  0.051 -0.066   -0.147  0.101 -0.024
 O          0.044 -0.072 -0.002    0.034 -0.041  0.032   -0.037  0.003  0.022
 O          0.007 -0.019  0.009    0.010 -0.004  0.010   -0.016 -0.016  0.009
 O          0.008  0.008 -0.010    0.004 -0.001 -0.001   -0.006  0.001  0.009
 H         -0.209  0.022  0.215   -0.059  0.052  0.017    0.229  0.073 -0.087
 TransDip  -0.157  0.369  0.317   -0.230  0.226 -0.116    0.229  0.033 -0.156

 Mode:                31                     32                     33
 Frequency:      1311.09                1317.68                1388.94
 Force Cnst:      2.3244                 1.2015                 1.8248
 Red. Mass:       2.2951                 1.1745                 1.6055
 IR Active:          YES                    YES                    YES
 IR Intens:       55.498                 11.662                114.976
 Raman Active:       YES                    YES                    YES
               X      Y      Z        X      Y      Z        X      Y      Z
 C         -0.022 -0.124  0.105    0.040  0.012  0.044   -0.006 -0.030  0.038
 C         -0.032 -0.043  0.022    0.022 -0.007  0.018   -0.021 -0.035  0.048
 O          0.000  0.068 -0.015   -0.004  0.013 -0.004   -0.002  0.043 -0.010
 O          0.012 -0.012 -0.013   -0.002 -0.001 -0.004    0.014 -0.016 -0.023
 C          0.027 -0.019  0.020   -0.027 -0.014 -0.039    0.025  0.061 -0.072
 H          0.041  0.514 -0.506    0.027 -0.377  0.170    0.016  0.074 -0.175
 H          0.091  0.303 -0.308   -0.033  0.407 -0.279    0.079  0.093 -0.100
 C         -0.040  0.188 -0.158   -0.082 -0.002 -0.022   -0.060 -0.054  0.054
 H          0.015 -0.035  0.069   -0.016  0.436 -0.280    0.012 -0.079  0.105
 H         -0.094  0.079 -0.009    0.057 -0.426  0.291   -0.070 -0.166  0.164
 C         -0.006 -0.050  0.053    0.001 -0.000  0.007    0.151  0.038 -0.025
 H          0.153  0.007 -0.143    0.092  0.036 -0.026   -0.423 -0.227  0.108
 H         -0.119  0.056  0.047    0.064  0.003  0.021   -0.437 -0.085 -0.226
 H          0.005  0.158 -0.146    0.111  0.000 -0.039   -0.471 -0.025  0.302
 O          0.028 -0.069  0.031    0.015 -0.010  0.006    0.002  0.009 -0.003
 O          0.002 -0.032  0.017    0.007  0.001  0.004    0.004  0.010 -0.003
 O          0.003  0.003  0.007    0.002  0.000 -0.001   -0.000 -0.001 -0.003
 H          0.053  0.167  0.096   -0.041  0.013  0.009   -0.033 -0.044 -0.018
 TransDip  -0.051  0.232 -0.017   -0.103 -0.019 -0.033   -0.214 -0.239  0.123

 Mode:                34                     35                     36
 Frequency:      1395.38                1437.86                1455.19
 Force Cnst:      2.1735                 4.3256                 1.6164
 Red. Mass:       1.8946                 3.5511                 1.2956
 IR Active:          YES                    YES                    YES
 IR Intens:      145.551                304.225                 31.776
 Raman Active:       YES                    YES                    YES
               X      Y      Z        X      Y      Z        X      Y      Z
 C         -0.019 -0.048  0.055    0.071  0.044 -0.143   -0.038  0.090 -0.015
 C         -0.025 -0.049  0.065   -0.110 -0.137  0.296   -0.026 -0.049  0.069
 O         -0.003  0.060 -0.015   -0.010  0.161 -0.042   -0.004  0.044 -0.010
 O          0.019 -0.022 -0.030    0.077 -0.088 -0.132    0.016 -0.016 -0.026
 C          0.004  0.121 -0.116   -0.023 -0.019  0.055    0.013 -0.055  0.024
 H          0.014  0.069 -0.240    0.002  0.210  0.541    0.002 -0.502 -0.372
 H          0.154  0.111 -0.145   -0.545 -0.077  0.158    0.604 -0.227  0.047
 C          0.064 -0.093  0.074    0.010  0.008 -0.028    0.006  0.007 -0.013
 H         -0.018 -0.367  0.359   -0.014 -0.027 -0.180    0.007  0.247  0.124
 H         -0.024 -0.257  0.227    0.156  0.059 -0.080   -0.249  0.128 -0.031
 C         -0.108  0.015 -0.019   -0.004 -0.016  0.010   -0.003 -0.006  0.007
 H          0.277  0.209  0.042   -0.058 -0.040 -0.005   -0.017 -0.019 -0.039
 H          0.353 -0.084  0.078    0.015  0.134  0.067    0.021  0.031  0.025
 H          0.336 -0.191 -0.022    0.040  0.111 -0.126    0.001  0.056 -0.053
 O         -0.016  0.025 -0.007    0.001 -0.004  0.005   -0.000 -0.000 -0.001
 O         -0.003  0.016 -0.005   -0.000 -0.003  0.001   -0.000 -0.002  0.001
 O         -0.002 -0.000 -0.005    0.001 -0.000  0.002   -0.000 -0.000  0.001
 H         -0.014 -0.092 -0.052    0.001  0.007 -0.006    0.005  0.009  0.003
 TransDip   0.126 -0.343  0.125   -0.206 -0.207  0.476   -0.004 -0.144  0.108

 Mode:                37                     38                     39
 Frequency:      1468.43                1476.18                1477.24
 Force Cnst:      1.3745                 1.3677                 1.4244
 Red. Mass:       1.0819                 1.0652                 1.1079
 IR Active:          YES                    YES                    YES
 IR Intens:       14.821                  1.948                  4.927
 Raman Active:       YES                    YES                    YES
               X      Y      Z        X      Y      Z        X      Y      Z
 C         -0.015  0.003  0.023   -0.001  0.005 -0.001   -0.014  0.021  0.004
 C          0.003 -0.004 -0.011   -0.002 -0.004  0.000   -0.004 -0.014  0.014
 O          0.000  0.001  0.000    0.000  0.003 -0.000   -0.001  0.012 -0.003
 O         -0.003  0.004  0.005    0.000  0.001  0.000    0.003 -0.002 -0.005
 C         -0.029  0.044  0.016   -0.004 -0.007  0.020   -0.040  0.016  0.050
 H          0.003 -0.085 -0.157    0.003 -0.011 -0.043   -0.002 -0.149 -0.102
 H          0.171 -0.018 -0.021    0.036 -0.018  0.007    0.176 -0.055  0.007
 C         -0.008 -0.025  0.017    0.001  0.013 -0.043   -0.003  0.042 -0.019
 H         -0.010 -0.321 -0.290   -0.001 -0.004 -0.057   -0.016 -0.314 -0.376
 H          0.415 -0.113 -0.026    0.039  0.004 -0.007    0.488 -0.054 -0.097
 C          0.018 -0.037  0.002   -0.003 -0.009 -0.050   -0.006  0.031  0.004
 H         -0.282 -0.165  0.064    0.047  0.148  0.694    0.230  0.116 -0.136
 H          0.072  0.435  0.192   -0.366  0.302 -0.023   -0.048 -0.412 -0.174
 H          0.045  0.318 -0.335    0.328 -0.354  0.142   -0.109 -0.228  0.285
 O          0.000  0.005 -0.002    0.001 -0.004  0.006    0.003 -0.009  0.003
 O          0.001  0.003 -0.002   -0.000 -0.004  0.002   -0.000 -0.006 -0.000
 O         -0.000  0.000 -0.001    0.000 -0.000  0.002    0.001 -0.001  0.002
 H         -0.007 -0.021 -0.009    0.015  0.031 -0.010    0.002  0.032  0.021
 TransDip   0.049 -0.041 -0.106   -0.011  0.028  0.033    0.051 -0.038 -0.031

 Mode:                40                     41                     42
 Frequency:      1582.23                2021.60                3049.10
 Force Cnst:     14.9335                 2.4822                 5.6980
 Red. Mass:      10.1244                 1.0309                 1.0402
 IR Active:          YES                    YES                    YES
 IR Intens:     1248.816                 80.586                 23.389
 Raman Active:       YES                    YES                    YES
               X      Y      Z        X      Y      Z        X      Y      Z
 C          0.006 -0.062  0.007   -0.000  0.000  0.000   -0.021  0.007  0.006
 C         -0.247  0.676  0.269    0.000 -0.000 -0.000   -0.000  0.000 -0.001
 O          0.038 -0.265  0.020   -0.000 -0.000  0.000    0.000 -0.000  0.000
 O          0.132 -0.207 -0.200   -0.000  0.000  0.000   -0.000  0.000  0.000
 C         -0.016  0.002  0.015    0.001 -0.001 -0.003    0.014 -0.008 -0.008
 H          0.026 -0.026 -0.233   -0.001  0.001 -0.000    0.286 -0.001  0.029
 H          0.264  0.184 -0.267   -0.000  0.001 -0.000   -0.035 -0.086 -0.098
 C          0.007 -0.002 -0.010    0.012 -0.010  0.029   -0.002 -0.000  0.001
 H         -0.022 -0.002 -0.022    0.002 -0.001  0.003   -0.211  0.001 -0.013
 H          0.032  0.007  0.005    0.002  0.005 -0.009    0.044  0.094  0.106
 C         -0.001 -0.000 -0.000   -0.001  0.001 -0.002    0.044  0.009  0.003
 H         -0.008 -0.000  0.015   -0.006 -0.003 -0.004   -0.214  0.440 -0.076
 H         -0.009  0.010  0.001    0.011 -0.000  0.004   -0.118 -0.168  0.447
 H          0.009 -0.003 -0.003   -0.007  0.004 -0.001   -0.175 -0.381 -0.408
 O         -0.000 -0.000  0.002    0.006 -0.011  0.009    0.000 -0.000 -0.000
 O         -0.000  0.000 -0.000    0.003 -0.017  0.004    0.000  0.000 -0.000
 O          0.000 -0.000  0.000    0.005 -0.012  0.005   -0.000 -0.000  0.000
 H         -0.001  0.001 -0.008   -0.346  0.756 -0.554   -0.001  0.000 -0.001
 TransDip  -0.340  1.022  0.348   -0.106  0.170 -0.206    0.152  0.031  0.008

 Mode:                43                     44                     45
 Frequency:      3057.38                3059.87                3096.23
 Force Cnst:      5.8349                 5.8531                 6.2068
 Red. Mass:       1.0595                 1.0610                 1.0989
 IR Active:          YES                    YES                    YES
 IR Intens:       10.129                 75.334                 10.758
 Raman Active:       YES                    YES                    YES
               X      Y      Z        X      Y      Z        X      Y      Z
 C         -0.049  0.018  0.015   -0.035  0.013  0.012    0.029  0.031  0.037
 C         -0.000  0.001 -0.001   -0.001  0.001  0.000    0.001  0.001 -0.000
 O         -0.000 -0.000  0.000    0.000 -0.000 -0.000   -0.000 -0.000 -0.000
 O         -0.000 -0.000  0.000    0.000 -0.001 -0.000    0.000  0.000 -0.000
 C          0.027 -0.016 -0.016   -0.038  0.029  0.031   -0.053 -0.031 -0.036
 H          0.678 -0.001  0.064    0.490 -0.000  0.046   -0.226  0.005 -0.010
 H         -0.086 -0.211 -0.240   -0.066 -0.161 -0.185   -0.132 -0.381 -0.439
 C          0.001 -0.001  0.001   -0.001  0.001 -0.001   -0.002 -0.001 -0.000
 H         -0.405  0.000 -0.021    0.607  0.000  0.034    0.485 -0.008  0.015
 H          0.085  0.181  0.203   -0.162 -0.355 -0.404    0.154  0.373  0.427
 C         -0.020 -0.009 -0.002    0.003 -0.004  0.000   -0.000  0.006  0.003
 H          0.080 -0.168  0.030   -0.026  0.052 -0.009    0.020 -0.039  0.007
 H          0.057  0.078 -0.210   -0.003 -0.006  0.010    0.002  0.004 -0.006
 H          0.089  0.192  0.207   -0.000 -0.001 -0.001   -0.015 -0.033 -0.036
 O         -0.000  0.000 -0.000    0.000 -0.000 -0.000    0.000  0.000 -0.000
 O         -0.000 -0.000  0.000    0.000 -0.000 -0.000    0.000 -0.000  0.000
 O          0.000 -0.000 -0.000    0.000 -0.000  0.000    0.000 -0.000  0.000
 H          0.001  0.001 -0.001    0.000  0.000  0.002    0.000 -0.000  0.000
 TransDip  -0.094 -0.000 -0.039   -0.202  0.166  0.095   -0.104  0.011 -0.003

 Mode:                46                     47                     48
 Frequency:      3115.17                3124.59                3133.37
 Force Cnst:      6.2993                 6.3386                 6.3789
 Red. Mass:       1.1017                 1.1019                 1.1027
 IR Active:          YES                    YES                    YES
 IR Intens:       77.203                 56.566                 54.263
 Raman Active:       YES                    YES                    YES
               X      Y      Z        X      Y      Z        X      Y      Z
 C         -0.042 -0.035 -0.044    0.003 -0.001 -0.000    0.008  0.003  0.005
 C         -0.000 -0.001 -0.000    0.000 -0.000 -0.000    0.000  0.000 -0.000
 O          0.000  0.000  0.000   -0.000  0.000  0.000   -0.000 -0.000  0.000
 O         -0.000  0.000  0.000    0.000  0.000  0.000   -0.000  0.000  0.000
 C         -0.045 -0.025 -0.030   -0.005 -0.003 -0.004    0.004  0.001  0.001
 H          0.362 -0.009  0.025   -0.042 -0.001 -0.003   -0.083  0.001 -0.006
 H          0.148  0.433  0.492    0.003  0.006  0.006   -0.013 -0.041 -0.047
 C         -0.001 -0.001 -0.000   -0.000 -0.001 -0.002   -0.000 -0.002  0.001
 H          0.412 -0.008  0.015    0.042 -0.000  0.001   -0.035  0.001 -0.002
 H          0.125  0.305  0.344    0.016  0.039  0.046   -0.005 -0.014 -0.015
 C          0.001 -0.005  0.009    0.007 -0.058 -0.071    0.011 -0.070  0.059
 H         -0.025  0.047 -0.007   -0.202  0.395 -0.085   -0.318  0.628 -0.104
 H          0.023  0.029 -0.078   -0.121 -0.175  0.421    0.181  0.227 -0.623
 H         -0.008 -0.020 -0.019    0.237  0.485  0.516    0.003 -0.009  0.014
 O          0.000  0.000  0.000    0.000  0.000  0.000    0.000  0.000 -0.000
 O          0.000  0.000 -0.000   -0.000  0.000  0.000   -0.000  0.000  0.000
 O          0.000  0.000  0.000   -0.000  0.000  0.000    0.000  0.000  0.000
 H         -0.001 -0.001 -0.001    0.001 -0.002 -0.002   -0.002 -0.000 -0.003
 TransDip  -0.192 -0.157 -0.133    0.020 -0.154 -0.184    0.052 -0.171  0.153

 STANDARD THERMODYNAMIC QUANTITIES AT   298.15 K  AND     1.00 ATM

   This Molecule has  1 Imaginary Frequencies
   Zero point vibrational energy:       81.730 kcal/mol

   Atom    1 Element C  Has Mass   12.00000
   Atom    2 Element C  Has Mass   12.00000
   Atom    3 Element O  Has Mass   15.99491
   Atom    4 Element O  Has Mass   15.99491
   Atom    5 Element C  Has Mass   12.00000
   Atom    6 Element H  Has Mass    1.00783
   Atom    7 Element H  Has Mass    1.00783
   Atom    8 Element C  Has Mass   12.00000
   Atom    9 Element H  Has Mass    1.00783
   Atom   10 Element H  Has Mass    1.00783
   Atom   11 Element C  Has Mass   12.00000
   Atom   12 Element H  Has Mass    1.00783
   Atom   13 Element H  Has Mass    1.00783
   Atom   14 Element H  Has Mass    1.00783
   Atom   15 Element O  Has Mass   15.99491
   Atom   16 Element O  Has Mass   15.99491
   Atom   17 Element O  Has Mass   15.99491
   Atom   18 Element H  Has Mass    1.00783
   Molecular Mass:   148.037190 amu
   Principal axes and moments of inertia in amu*Bohr^2:
                             1           2           3
    Eigenvalues --      633.23355  2951.37127  3071.55985
          X              -0.08505     0.04243     0.99547
          Y              -0.55391     0.82846    -0.08263
          Z               0.82822     0.55843     0.04696
   Rotational Symmetry Number is   1
   The Molecule is an Asymmetric Top
   Translational Enthalpy:        0.889 kcal/mol
   Rotational Enthalpy:           0.889 kcal/mol
   Vibrational Enthalpy:         86.300 kcal/mol
   gas constant (RT):             0.592 kcal/mol
   Translational Entropy:        40.887  cal/mol.K
   Rotational Entropy:           30.130  cal/mol.K
   Vibrational Entropy:          30.244  cal/mol.K

   Total Enthalpy:               88.670 kcal/mol
   Total Entropy:               101.261  cal/mol.K
Archival summary:
1\1\c4-88\FREQ\ProcedureUnspecified\BasisUnspecified\558(2-,1)\leeping\SatMay1920:26:092018SatMay1920:26:092018\0\\#,FREQ,ProcedureUnspecified,BasisUnspecified,\\-2,1\O\O,1,1.44288\H,2,1.22237,1,88.1225\O,3,1.2003,2,144.077,1,-8.59369,0\C,4,1.37601,3,91.0719,2,-7.99124,0\C,5,1.52795,4,112.177,3,134.461,0\H,6,1.09543,5,107.569,4,65.1257,0\H,6,1.09578,5,106.928,4,-49.5268,0\C,6,1.5252,5,115.347,4,-171.972,0\H,9,1.09432,6,110.66,5,55.1989,0\H,9,1.09717,6,110.552,5,-62.013,0\C,5,1.53029,4,111.286,3,-97.5219,0\H,12,1.09368,5,111.909,4,174.453,0\H,12,1.09387,5,108.924,4,54.2199,0\H,12,1.09506,5,109.923,4,-64.6633,0\C,9,1.53728,6,115.287,5,177.784,0\O,16,1.2575,9,118.675,6,16.3143,0\O,16,1.26185,9,116.027,6,-164.987,0\\\@

 Total job time:  37261.80s(wall), 498562.69s(cpu) 
 Sat May 19 20:26:09 2018

        *************************************************************
        *                                                           *
        *  Thank you very much for using Q-Chem.  Have a nice day.  *
        *                                                           *
        *************************************************************


