19   
From 1-reactant-freq.out: Frame 1 / 115, Energy=    -646.9552012963
C       -1.3612995316   -1.0336185602   -1.2784772980
C       -2.1946303943   -0.6922027889   -2.5245976755
O       -3.0267720523   -1.5621138694   -2.8903709511
O       -1.9932297883    0.4170327282   -3.0801440153
C       -0.3084341575    0.0061379547   -0.9451634482
H       -0.8855789707   -2.0066085505   -1.4407040866
H       -2.0506574598   -1.1538961420   -0.4362295340
O        0.4761544798   -0.4095325171    0.2008371259
H       -0.7506556127    0.9806339008   -0.7377606000
H        0.4188804150    0.1079893365   -1.7508997392
C       -0.0178886289   -0.1455159611    1.4137601894
C        0.8881763092   -0.6480236055    2.5016909772
H        0.8416245397   -1.7408949429    2.5210828771
H        0.5648350828   -0.2535974514    3.4639247253
H        1.9216272300   -0.3604951698    2.2976541670
O       -1.0755458725    0.4195637085    1.5987895208
O        1.8085003477    3.0277160649    0.8338390714
O        3.0024608304    2.2373284520    0.4929259179
H        3.0620878336    1.6216939555    1.2321283780
