
Running Job 1 of 1 qc-3-tshess.in
qchem qc-3-tshess.in_80579.0 /scratch/lmgong/1166448/qc-3-tshess.d/ 1
/home/leeping/opt/qchem/5.0.2-openmp/exe/qcprog.exe_s qc-3-tshess.in_80579.0 /scratch/lmgong/1166448/qc-3-tshess.d/
Check license passed

                  Welcome to Q-Chem
     A Quantum Leap Into The Future Of Chemistry


 Q-Chem 5.0, Q-Chem, Inc., Pleasanton, CA (2017)

 Yihan Shao,  Zhengting Gan,  E. Epifanovsky,  A. T. B. Gilbert,  M. Wormit,  
 J. Kussmann,  A. W. Lange,  A. Behn,  Jia Deng,  Xintian Feng,  D. Ghosh,  
 M. Goldey,  P. R. Horn,  L. D. Jacobson,  I. Kaliman,  T. Kus,  A. Landau,  
 Jie Liu,  E. I. Proynov,  R. M. Richard,  R. P. Steele,  E. J. Sundstrom,  
 H. L. Woodcock III,  P. M. Zimmerman,  D. Zuev,  B. Albrecht,  E. Alguire,  
 S. A. Baeppler,  D. Barton,  Z. Benda,  Y. A. Bernard,  E. J. Berquist,  
 K. B. Bravaya,  H. Burton,  D. Casanova,  Chun-Min Chang,  Yunqing Chen,  
 A. Chien,  K. D. Closser,  M. P. Coons,  S. Dasgupta,  A. L. Dempwolff,  
 M. Diedenhofen,  Hainam Do,  R. G. Edgar,  Po-Tung Fang,  S. Fatehi,  
 Qingguo Feng,  J. Fosso-Tande,  Qinghui Ge,  A. Ghysels,  G. Gidofalvi,  
 J. Gomes,  J. Gonthier,  A. Gunina,  M. W. D. Hanson-Heine,  
 P. H. P. Harbach,  A. W. Hauser,  J. E. Herr,  E. G. Hohenstein,  
 Z. C. Holden,  Kerwin Hui,  T.-C. Jagau,  Hyunjun Ji,  B. Kaduk,  
 K. Khistyaev,  Jaehoon Kim,  P. Klunzinger,  K. Koh,  D. Kosenkov,  
 L. Koulias,  T. Kowalczyk,  C. M. Krauter,  A. Kunitsa,  Ka Un Lao,  
 A. Laurent,  K. V. Lawler,  Joonho Lee,  D. Lefrancois,  S. Lehtola,  
 D. S. Levine,  Yi-Pei Li,  You-Sheng Lin,  Fenglai Liu,  E. Livshits,  
 A. Luenser,  P. Manohar,  E. Mansoor,  S. F. Manzer,  Shan-Ping Mao,  
 Yuezhi Mao,  N. Mardirossian,  A. V. Marenich,  T. Markovich,  
 L. A. Martinez-Martinez,  S. A. Maurer,  N. J. Mayhall,  S. C. McKenzie,  
 J.-M. Mewes,  A. F. Morrison,  J. W. Mullinax,  K. Nanda,  
 T. S. Nguyen-Beck,  R. Olivares-Amaya,  J. A. Parkhill,  T. M. Perrine,  
 F. Plasser,  S. Prager,  A. Prociuk,  E. Ramos,  D. R. Rehn,  F. Rob,  
 M. Schneider,  N. Sergueev,  S. M. Sharada,  S. Sharma,  D. W. Small,  
 T. Stauch,  T. Stein,  Yu-Chuan Su,  A. J. W. Thom,  A. Tkatchenko,  
 T. Tsuchimochi,  L. Vogt,  O. Vydrov,  M. A. Watson,  J. Wenzel,  
 M. de Wergifosse,  T. A. Wesolowski,  A. White,  J. Witte,  A. Yamada,  
 Jun Yang,  K. Yao,  S. Yeganeh,  S. R. Yost,  Zhi-Qiang You,  A. Zech,  
 Igor Ying Zhang,  Xing Zhang,  Yan Zhao,  Ying Zhu,  B. R. Brooks,  
 G. K. L. Chan,  C. J. Cramer,  M. S. Gordon,  W. J. Hehre,  A. Klamt,  
 M. W. Schmidt,  C. D. Sherrill,  D. G. Truhlar,  A. Aspuru-Guzik,  R. Baer,  
 A. T. Bell,  N. A. Besley,  Jeng-Da Chai,  R. A. DiStasio Jr.,  A. Dreuw,  
 B. D. Dunietz,  T. R. Furlani,  Chao-Ping Hsu,  Yousung Jung,  Jing Kong,  
 D. S. Lambrecht,  WanZhen Liang,  C. Ochsenfeld,  V. A. Rassolov,  
 L. V. Slipchenko,  J. E. Subotnik,  T. Van Voorhis,  J. M. Herbert,  
 A. I. Krylov,  P. M. W. Gill,  M. Head-Gordon

 Contributors to earlier versions of Q-Chem not listed above: 
 R. D. Adamson,  B. Austin,  J. Baker,  G. J. O. Beran,  K. Brandhorst,  
 S. T. Brown,  E. F. C. Byrd,  A. K. Chakraborty,  C.-L. Cheng,  
 Siu Hung Chien,  D. M. Chipman,  D. L. Crittenden,  H. Dachsel,  
 R. J. Doerksen,  A. D. Dutoi,  L. Fusti-Molnar,  W. A. Goddard III,  
 A. Golubeva-Zadorozhnaya,  S. R. Gwaltney,  G. Hawkins,  A. Heyden,  
 S. Hirata,  G. Kedziora,  F. J. Keil,  C. Kelley,  Jihan Kim,  R. A. King,  
 R. Z. Khaliullin,  P. P. Korambath,  W. Kurlancheek,  A. M. Lee,  M. S. Lee,  
 S. V. Levchenko,  Ching Yeh Lin,  D. Liotard,  R. C. Lochan,  I. Lotan,  
 P. E. Maslen,  N. Nair,  D. P. O'Neill,  D. Neuhauser,  E. Neuscamman,  
 C. M. Oana,  R. Olson,  B. Peters,  R. Peverati,  P. A. Pieniazek,  
 Y. M. Rhee,  J. Ritchie,  M. A. Rohrdanz,  E. Rosta,  N. J. Russ,  
 H. F. Schaefer III,  N. E. Schultz,  N. Shenvi,  A. C. Simmonett,  A. Sodt,  
 D. Stuck,  K. S. Thanthiriwatte,  V. Vanovschi,  Tao Wang,  A. Warshel,  
 C. F. Williams,  Q. Wu,  X. Xu,  W. Zhang

 Please cite Q-Chem as follows:
 Y. Shao et al., Mol. Phys. 113, 184-215 (2015)
 DOI: 10.1080/00268976.2014.952696

 Q-Chem 5.0.2 for Intel X86 EM64T Linux

 Parts of Q-Chem use Armadillo 5.200.1 (Boston Tea Smuggler).
 http://arma.sourceforge.net/

 Q-Chem begins on Thu Apr 19 08:25:32 2018  

Host: 
0

     Scratch files written to /scratch/lmgong/1166448/qc-3-tshess.d//
 Dec517 15110_ 26548  26544 5633   
Processing $rem in /home/leeping/opt/qchem/5.0.2-openmp/config/preferences.
 MEM_STATIC 2000
 MEM_TOTAL  8000
 SYMMETRY   OFF
 SYM_IGNORE TRUE 
Symmetry turned off for PCM/SM12/SMD calculation

Checking the input file for inconsistencies... 	...done.

--------------------------------------------------------------
User input:
--------------------------------------------------------------
$molecule
-2 1
C       -1.3575252028   -0.9929580839   -1.3076220696
C       -2.2339720822   -0.7404326584   -2.5440621922
O       -3.0338660089   -1.6608556696   -2.8586439614
O       -2.1016504893    0.3554735609   -3.1468174247
C       -0.2830543029    0.0565227576   -1.0837913796
H       -0.8968118603   -1.9814090840   -1.4114714371
H       -2.0159074467   -1.0434371812   -0.4333614751
O        0.5595889371   -0.2938269122    0.0243613976
H       -0.7178709113    1.0411047449   -0.9110429304
H        0.3815382283    0.1156277146   -1.9492673482
C        0.2437965408    0.2445299883    1.2345279975
C        1.1650904332   -0.2981470230    2.2964155921
H        0.8681032765   -1.3301627512    2.5176599978
H        1.0688940708    0.3003389024    3.2019483609
H        2.2008904893   -0.2989785314    1.9557633929
O       -0.8743899389    0.6994780915    1.4764284297
O        1.2648543900    2.0690491225    1.0247924895
O        2.6318805758    1.9468584000    0.5494137876
H        3.1304113016    1.8112246122    1.3647687727
$end

$rem
jobtype               freq
method                wb97x-v
basis                 def2-tzvpd
symmetry              off
sym_ignore            true
incdft                false
incfock               0
!scf_algorithm        diis_gdm
scf_convergence       8
thresh                14
!purecart             112
max_scf_cycles        1000
geom_opt_max_cycles   500
geom_opt_dmax         100
geom_opt_tol_gradient 10
solvent_method        pcm
ideriv                1
rpath_tol_displacement 1000
rpath_max_cycles      100
rpath_direction       1
!scf_guess            read
scf_guess             read
$end

$pcm
theory              cosmo
method              iswig
Radii               bondi
vdwScale            1.20
hpoints             110
heavypoints         110
$end

$solvent
dielectric 78.400000
$end

--------------------------------------------------------------
 ----------------------------------------------------------------
             Standard Nuclear Orientation (Angstroms)
    I     Atom           X                Y                Z
 ----------------------------------------------------------------
    1      C      -1.3575252028    -0.9929580839    -1.3076220696
    2      C      -2.2339720822    -0.7404326584    -2.5440621922
    3      O      -3.0338660089    -1.6608556696    -2.8586439614
    4      O      -2.1016504893     0.3554735609    -3.1468174247
    5      C      -0.2830543029     0.0565227576    -1.0837913796
    6      H      -0.8968118603    -1.9814090840    -1.4114714371
    7      H      -2.0159074467    -1.0434371812    -0.4333614751
    8      O       0.5595889371    -0.2938269122     0.0243613976
    9      H      -0.7178709113     1.0411047449    -0.9110429304
   10      H       0.3815382283     0.1156277146    -1.9492673482
   11      C       0.2437965408     0.2445299883     1.2345279975
   12      C       1.1650904332    -0.2981470230     2.2964155921
   13      H       0.8681032765    -1.3301627512     2.5176599978
   14      H       1.0688940708     0.3003389024     3.2019483609
   15      H       2.2008904893    -0.2989785314     1.9557633929
   16      O      -0.8743899389     0.6994780915     1.4764284297
   17      O       1.2648543900     2.0690491225     1.0247924895
   18      O       2.6318805758     1.9468584000     0.5494137876
   19      H       3.1304113016     1.8112246122     1.3647687727
 ----------------------------------------------------------------
 Nuclear Repulsion Energy =   627.4791791897 hartrees
 There are       44 alpha and       44 beta electrons
 Requested basis set is def2-TZVPD
 There are 189 shells and 497 basis functions

 Total QAlloc Memory Limit   8000 MB
 Mega-Array Size      1956 MB
 MEM_STATIC part      2000 MB
 Discretize the solute cavity surface with Lebedev spheres
	Using 110 Lebedev grid points for each H atom
	Using 110 Lebedev grid points for other atoms
	Atomic van der Waals radii will be scaled by 1.20
 Remove points where switching function is < 1.0e-08
 Keep 1161 surface tesserae and discard 929 interior tesserae
 Molecular Surface Area = 207.961 Angst**2
 A cutoff of  1.0D-14 yielded  15905 shell pairs
 There are    110203 function pairs (    140386 Cartesian)
 
 -------------------------------------------------------
 OpenMP Integral Computing Module                       
 Release: version 1.0, May 2013, Q-Chem Inc. Pittsburgh 
 -------------------------------------------------------
 Integral Job Info:
 Integral job number is                      11
 Integral operator is                         1
 short-range coefficients              16700000
 long-range coefficients              100000000
 Omega coefficients                         300
 if combine SR and LR in K                    1
 Integral screening is                        0
 Integral computing path is                   2
 max size of driver memory is            800000
 size of driver memory is                776718
 size of scratch memory is              4473992
 max col of scratch BK array              10000
 max len of scratch array in speh3          662
 max len of scratch index in speh4           32
 max int batch size is                      520
 min int batch size is                       52
 fixed nKL is                                52
 max L of basis functions is                  3
 order of int derivative is                   0
 number of shells is                        189
 number of basis is                         563
 number of cartesian basis is               563
 number of contracted shell pairs         15905
 number of primitive shell pairs          31828
 maxK2 (contraction) of shell pair           36
 max number of K2 of shell pair               1
 max number of CS2 of shell pair           2626
 max number of PS2 of shell pair           3642
 mem total for path MDJ                  823776
 -------------------------------------------------------
 Smallest overlap matrix eigenvalue = 3.96E-06
 Guess MOs from SCF MO coefficient file
 Reading MOs from coefficient file
 Reading MOs from coefficient file
 Long-range K will be added via erf
 Coulomb attenuation parameter = 0.3 bohr**(-1)
 A restricted hybrid HF-DFT SCF calculation will be
 performed using Pulay DIIS extrapolation
 Polarizable Continuum solvation model will be applied
 Exchange:     0.1670 Hartree-Fock + 1.0000 wB97X-V + LR-HF
 Correlation:  1.0000 wB97X-V
 Using SG-2 standard quadrature grid
 Nonlocal Correlation:  VV10 with C = 0.0100 and b = 6.00
 Grid used for NLC:  SG-1 standard quadrature
 SCF converges when DIIS error is below 1.0E-08
Using Q-Chem read-in guess as SCF_GUESS READ specified.

 using 4 threads for integral computing
 -------------------------------------------------------
 OpenMP Integral computing Module                
 Release: version 1.0, May 2013, Q-Chem Inc. Pittsburgh 
 -------------------------------------------------------
 using 4 threads for integral computing
 -------------------------------------------------------
 OpenMP Integral computing Module                
 Release: version 1.0, May 2013, Q-Chem Inc. Pittsburgh 
 -------------------------------------------------------
 -------------------------------------------------------
 OpenMP BLAS3 based DFT computing Module                
 Release: version 1.0, May 2013, Q-Chem Inc. Pittsburgh 
 -------------------------------------------------------
 -------------------------------------------------------
 OpenMP BLAS3 based DFT computing Module                
 Release: version 1.0, May 2013, Q-Chem Inc. Pittsburgh 
 -------------------------------------------------------
 -------------------------------------------------------
 OpenMP BLAS3 based DFT computing Module                
 Release: version 1.0, May 2013, Q-Chem Inc. Pittsburgh 
 -------------------------------------------------------
 ---------------------------------------
  Cycle       Energy         DIIS Error
 ---------------------------------------
    1    -646.6393499482      4.09E-04
    2    -646.9378307470      4.61E-04
    3    -646.9462322851      2.06E-04
    4    -646.9475633815      1.51E-04
    5    -646.9483702087      1.15E-04
    6    -646.9487747105      9.36E-05
    7    -646.9490753428      7.36E-05
    8    -646.9492748898      5.66E-05
    9    -646.9494000525      4.27E-05
   10    -646.9494661385      3.31E-05
   11    -646.9495156861      2.33E-05
   12    -646.9495349121      1.82E-05
   13    -646.9495482332      1.35E-05
   14    -646.9495542543      1.08E-05
   15    -646.9495577220      8.78E-06
   16    -646.9495599239      7.25E-06
   17    -646.9495646613      8.66E-09 Convergence criterion met
 ---------------------------------------

************** Final PCM Free Energy Summary **************
 G_electrostatic  =      -0.31021473 hartree =    -194.66267899 kcal/mol
 G_cavitation     =       0.00000000 hartree =       0.00000000 kcal/mol
 G_dispersion     =       0.00000000 hartree =       0.00000000 kcal/mol
 G_repulsion      =       0.00000000 hartree =       0.00000000 kcal/mol
 --------------------------------------------------
 Non-electrostatic Free Energy =       0.00000000 hartree =       0.00000000 kcal/mol
 Total                         =      -0.31021473 hartree =    -194.66267899 kcal/mol
 --------------------------------------------------
 SCF Energy (H0 + V/2)                       =    -646.94956466 
 Solute Internal Energy (H0)                 =    -646.63934993 
 Total Free Energy (H0 + V/2 + non-elec)     =    -646.94956466 hartree
                                             = -405966.97908432 kcal/mol
***********************************************************

 SCF time:  CPU 4730.17 s  wall 1226.22 s
 SCF   energy in the final basis set = -646.94956466
 Total energy in the final basis set = -646.94956466
 
 --------------------------------------------------------------
 
                    Orbital Energies (a.u.)
 --------------------------------------------------------------
 
 Alpha MOs
 -- Occupied --
-19.221 -19.210 -19.157 -19.151 -19.141 -19.139 -10.382 -10.343
-10.299 -10.248 -10.248  -1.200  -1.151  -1.145  -1.107  -1.050
 -0.900  -0.888  -0.846  -0.760  -0.656  -0.613  -0.596  -0.577
 -0.571  -0.551  -0.541  -0.530  -0.517  -0.498  -0.487  -0.479
 -0.473  -0.450  -0.446  -0.429  -0.421  -0.382  -0.356  -0.348
 -0.335  -0.332  -0.311  -0.279
 -- Virtual --
  0.060   0.071   0.078   0.082   0.094   0.101   0.104   0.115
  0.120   0.124   0.129   0.136   0.137   0.151   0.157   0.159
  0.162   0.173   0.177   0.179   0.185   0.190   0.192   0.203
  0.209   0.220   0.226   0.234   0.235   0.239   0.246   0.252
  0.256   0.265   0.269   0.278   0.287   0.289   0.293   0.306
  0.311   0.314   0.321   0.324   0.333   0.340   0.346   0.348
  0.350   0.363   0.366   0.368   0.369   0.374   0.380   0.389
  0.390   0.396   0.402   0.407   0.410   0.417   0.419   0.420
  0.429   0.434   0.440   0.441   0.445   0.461   0.463   0.468
  0.473   0.480   0.483   0.488   0.496   0.502   0.507   0.515
  0.518   0.523   0.527   0.530   0.539   0.543   0.552   0.553
  0.563   0.563   0.569   0.572   0.580   0.583   0.593   0.603
  0.609   0.617   0.627   0.629   0.633   0.634   0.642   0.650
  0.652   0.664   0.670   0.678   0.688   0.696   0.699   0.707
  0.714   0.724   0.732   0.737   0.740   0.744   0.753   0.759
  0.769   0.779   0.785   0.789   0.801   0.806   0.808   0.817
  0.819   0.823   0.828   0.832   0.839   0.847   0.851   0.858
  0.864   0.866   0.877   0.884   0.890   0.899   0.906   0.911
  0.921   0.923   0.927   0.935   0.950   0.968   0.984   0.989
  1.004   1.016   1.022   1.029   1.041   1.046   1.062   1.072
  1.078   1.087   1.106   1.128   1.141   1.159   1.164   1.173
  1.175   1.188   1.198   1.213   1.220   1.238   1.252   1.270
  1.272   1.282   1.295   1.309   1.334   1.345   1.351   1.366
  1.378   1.397   1.410   1.418   1.444   1.452   1.465   1.479
  1.490   1.500   1.514   1.531   1.536   1.559   1.599   1.610
  1.621   1.664   1.707   1.721   1.729   1.760   1.789   1.831
  1.846   1.890   1.913   1.925   1.929   1.942   1.948   1.952
  1.963   1.966   1.975   1.987   1.995   2.002   2.020   2.033
  2.042   2.052   2.063   2.078   2.088   2.117   2.131   2.149
  2.159   2.168   2.184   2.214   2.222   2.232   2.246   2.259
  2.277   2.286   2.299   2.313   2.336   2.356   2.365   2.377
  2.396   2.422   2.461   2.472   2.483   2.501   2.515   2.542
  2.551   2.568   2.589   2.602   2.616   2.619   2.643   2.659
  2.686   2.705   2.717   2.724   2.747   2.770   2.778   2.815
  2.828   2.849   2.883   2.912   2.922   2.935   2.945   2.970
  2.994   3.004   3.030   3.040   3.061   3.069   3.087   3.099
  3.129   3.142   3.155   3.181   3.188   3.231   3.258   3.265
  3.292   3.295   3.320   3.325   3.344   3.363   3.383   3.397
  3.408   3.424   3.436   3.449   3.453   3.461   3.481   3.505
  3.515   3.518   3.526   3.556   3.557   3.565   3.584   3.611
  3.622   3.635   3.655   3.668   3.683   3.687   3.689   3.715
  3.726   3.732   3.748   3.772   3.794   3.806   3.818   3.833
  3.853   3.904   3.968   3.985   4.016   4.046   4.076   4.103
  4.128   4.160   4.169   4.190   4.221   4.261   4.325   4.335
  4.348   4.393   4.511   4.616   4.629   4.664   4.702   4.729
  4.752   4.769   4.811   4.820   4.860   4.890   4.977   5.007
  5.049   5.075   5.117   5.170   5.206   5.225   5.292   5.324
  5.357   5.362   5.370   5.377   5.387   5.464   5.484   5.501
  5.510   5.551   5.579   5.618   5.667   5.691   5.711   5.726
  5.756   5.774   5.938   6.021   6.029   6.041   6.090   6.171
  6.246   6.251   6.309   6.332   6.339   6.406   6.490   6.591
  6.610   6.626   6.637   6.651   6.672   6.677   6.697   6.724
  6.748   6.758   6.774   6.793   6.836   6.878   6.910   6.960
  6.966   6.999   7.015   7.052   7.082   7.202   7.232   7.253
  7.280   7.307   7.363   7.406   7.412   7.413   7.423   7.542
  7.670   8.248  22.701  22.863  22.930  23.557  23.731  43.956
 44.267  44.419  44.481  44.491  44.716
 --------------------------------------------------------------
 
          Ground-State Mulliken Net Atomic Charges

     Atom                 Charge (a.u.)
  ----------------------------------------
      1 C                    -0.083158
      2 C                     0.067369
      3 O                    -0.707529
      4 O                    -0.691298
      5 C                    -0.196403
      6 H                     0.253413
      7 H                     0.175434
      8 O                    -0.266996
      9 H                     0.163923
     10 H                     0.239491
     11 C                     0.813184
     12 C                    -1.037340
     13 H                     0.261894
     14 H                     0.216901
     15 H                     0.221723
     16 O                    -0.639005
     17 O                    -0.653046
     18 O                    -0.452426
     19 H                     0.313869
  ----------------------------------------
  Sum of atomic charges =    -2.000000

 -----------------------------------------------------------------
                    Cartesian Multipole Moments
 -----------------------------------------------------------------
    Charge (ESU x 10^10)
                -9.6064
    Dipole Moment (Debye)
         X      10.7649      Y      -6.3524      Z      11.3856
       Tot      16.9076
    Quadrupole Moments (Debye-Ang)
        XX    -115.8390     XY     -20.7770     YY    -100.0433
        XZ     -36.5501     YZ     -16.2828     ZZ    -122.2176
    Octopole Moments (Debye-Ang^2)
       XXX     181.8694    XXY      18.5809    XYY      27.4388
       YYY     -60.5132    XXZ     155.7755    XYZ      38.3190
       YYZ      37.5480    XZZ     175.8678    YZZ       6.6216
       ZZZ     234.3712
    Hexadecapole Moments (Debye-Ang^3)
      XXXX   -1636.2188   XXXY    -434.5301   XXYY    -468.2968
      XYYY    -396.0846   YYYY    -778.7252   XXXZ    -834.8321
      XXYZ    -178.6033   XYYZ    -274.1721   YYYZ    -286.2485
      XXZZ    -848.6197   XYZZ    -180.9114   YYZZ    -462.1932
      XZZZ    -954.8940   YZZZ    -275.6081   ZZZZ   -2101.4575
 -----------------------------------------------------------------
 Calculating analytic gradient of the SCF energy
 Gradient of SCF Energy
            1           2           3           4           5           6
    1  -0.0166249  -0.0254893   0.0387344  -0.0038413   0.0138570  -0.0237230
    2  -0.0696660   0.0151356   0.0369136  -0.0471120   0.1066296   0.0479974
    3   0.0671712  -0.0354227   0.0216156   0.0327131  -0.0687215   0.0095463
            7           8           9          10          11          12
    1   0.0397513   0.0018060   0.0285086  -0.0409506  -0.0723081   0.0413027
    2  -0.0011718   0.0049552  -0.0767288  -0.0089401  -0.0151726  -0.0028749
    3  -0.0501592   0.0233372  -0.0252140   0.0497393  -0.0640916   0.0770866
           13          14          15          16          17          18
    1   0.0193710   0.0116630  -0.0634471   0.0553135  -0.0506195   0.0686192
    2   0.0639660  -0.0411429  -0.0047482  -0.0223133   0.0245379  -0.0123842
    3  -0.0163410  -0.0613371   0.0286274   0.0079169   0.0203923   0.0275046
           19
    1  -0.0219228
    2   0.0021196
    3  -0.0443633
 Max gradient component =       1.066E-01
 RMS gradient           =       4.221E-02
 Computing fast CPCM-ISWIG gradient
 Updating gradient with PCM contributions...
 -- total gradient after adding PCM contribution --
---------------------------------------------------
  Atom         X              Y              Z     
---------------------------------------------------
   1       0.000016      -0.000010      -0.000008
   2       0.000013      -0.000013      -0.000007
   3       0.000022      -0.000020      -0.000012
   4      -0.000001      -0.000008      -0.000001
   5       0.000001       0.000005      -0.000000
   6       0.000029      -0.000002      -0.000015
   7       0.000015      -0.000025      -0.000010
   8       0.000005       0.000007      -0.000001
   9      -0.000014      -0.000004       0.000008
  10      -0.000001       0.000021       0.000001
  11      -0.000006      -0.000001       0.000000
  12       0.000003       0.000002      -0.000005
  13       0.000018      -0.000007      -0.000012
  14      -0.000007      -0.000010       0.000004
  15       0.000004       0.000020       0.000004
  16      -0.000018      -0.000027       0.000005
  17      -0.000028       0.000003       0.000016
  18      -0.000027       0.000038       0.000019
  19      -0.000024       0.000032       0.000013
---------------------------------------------------
 Number of fixed atoms: 0
 Gradient time:  CPU 899.35 s  wall 234.38 s
 ######################################################
 ######################################################
 # Starting finite difference calculation for IDERIV  #
 Finite diff step size:  1.88973e-03 a.u.
 ----------------------------------------------------------------
             Standard Nuclear Orientation (Angstroms)
    I     Atom           X                Y                Z
 ----------------------------------------------------------------
    1      C      -1.3565252028    -0.9929580839    -1.3076220696
    2      C      -2.2339720822    -0.7404326584    -2.5440621922
    3      O      -3.0338660089    -1.6608556696    -2.8586439614
    4      O      -2.1016504893     0.3554735609    -3.1468174247
    5      C      -0.2830543029     0.0565227576    -1.0837913796
    6      H      -0.8968118603    -1.9814090840    -1.4114714371
    7      H      -2.0159074467    -1.0434371812    -0.4333614751
    8      O       0.5595889371    -0.2938269122     0.0243613976
    9      H      -0.7178709113     1.0411047449    -0.9110429304
   10      H       0.3815382283     0.1156277146    -1.9492673482
   11      C       0.2437965408     0.2445299883     1.2345279975
   12      C       1.1650904332    -0.2981470230     2.2964155921
   13      H       0.8681032765    -1.3301627512     2.5176599978
   14      H       1.0688940708     0.3003389024     3.2019483609
   15      H       2.2008904893    -0.2989785314     1.9557633929
   16      O      -0.8743899389     0.6994780915     1.4764284297
   17      O       1.2648543900     2.0690491225     1.0247924895
   18      O       2.6318805758     1.9468584000     0.5494137876
   19      H       3.1304113016     1.8112246122     1.3647687727
 ----------------------------------------------------------------
 Nuclear Repulsion Energy =   627.4829463716 hartrees
 There are       44 alpha and       44 beta electrons
 Discretize the solute cavity surface with Lebedev spheres
	Using 110 Lebedev grid points for each H atom
	Using 110 Lebedev grid points for other atoms
	Atomic van der Waals radii will be scaled by 1.20
 Remove points where switching function is < 1.0e-08
 Keep 1161 surface tesserae and discard 929 interior tesserae
 Molecular Surface Area = 207.955 Angst**2
 Requested basis set is def2-TZVPD
 There are 189 shells and 497 basis functions
 A cutoff of  1.0D-14 yielded  15905 shell pairs
 There are    110203 function pairs (    140386 Cartesian)
 Smallest overlap matrix eigenvalue = 3.96E-06
 Guess MOs from SCF MO coefficient file
 Reading MOs from coefficient file
 Reading MOs from coefficient file
 Long-range K will be added via erf
 Coulomb attenuation parameter = 0.3 bohr**(-1)
 A restricted hybrid HF-DFT SCF calculation will be
 performed using Pulay DIIS extrapolation
 Polarizable Continuum solvation model will be applied
 Exchange:     0.1670 Hartree-Fock + 1.0000 wB97X-V + LR-HF
 Correlation:  1.0000 wB97X-V
 Using SG-2 standard quadrature grid
 Nonlocal Correlation:  VV10 with C = 0.0100 and b = 6.00
 Grid used for NLC:  SG-1 standard quadrature
 SCF converges when DIIS error is below 1.0E-08
Using Q-Chem read-in guess as SCF_GUESS READ specified.

 using 4 threads for integral computing
 -------------------------------------------------------
 OpenMP Integral computing Module                
 Release: version 1.0, May 2013, Q-Chem Inc. Pittsburgh 
 -------------------------------------------------------
 using 4 threads for integral computing
 -------------------------------------------------------
 OpenMP Integral computing Module                
 Release: version 1.0, May 2013, Q-Chem Inc. Pittsburgh 
 -------------------------------------------------------
 -------------------------------------------------------
 OpenMP BLAS3 based DFT computing Module                
 Release: version 1.0, May 2013, Q-Chem Inc. Pittsburgh 
 -------------------------------------------------------
 -------------------------------------------------------
 OpenMP BLAS3 based DFT computing Module                
 Release: version 1.0, May 2013, Q-Chem Inc. Pittsburgh 
 -------------------------------------------------------
 -------------------------------------------------------
 OpenMP BLAS3 based DFT computing Module                
 Release: version 1.0, May 2013, Q-Chem Inc. Pittsburgh 
 -------------------------------------------------------
 ---------------------------------------
  Cycle       Energy         DIIS Error
 ---------------------------------------
    1    -646.6393819660      4.10E-04
    2    -646.9378330332      4.61E-04
    3    -646.9462337303      2.06E-04
    4    -646.9475653066      1.51E-04
    5    -646.9483755705      1.15E-04
    6    -646.9487917089      9.25E-05
    7    -646.9491291015      6.93E-05
    8    -646.9493719559      4.60E-05
    9    -646.9495059585      2.53E-05
   10    -646.9495516485      1.16E-05
   11    -646.9495631703      2.45E-06
   12    -646.9495636643      6.63E-07
   13    -646.9495637028      9.19E-08
   14    -646.9495637035      1.51E-08
   15    -646.9495637035      1.09E-08
   16    -646.9495637035      4.26E-09 Convergence criterion met
 ---------------------------------------

************** Final PCM Free Energy Summary **************
 G_electrostatic  =      -0.31021132 hartree =    -194.66054227 kcal/mol
 G_cavitation     =       0.00000000 hartree =       0.00000000 kcal/mol
 G_dispersion     =       0.00000000 hartree =       0.00000000 kcal/mol
 G_repulsion      =       0.00000000 hartree =       0.00000000 kcal/mol
 --------------------------------------------------
 Non-electrostatic Free Energy =       0.00000000 hartree =       0.00000000 kcal/mol
 Total                         =      -0.31021132 hartree =    -194.66054227 kcal/mol
 --------------------------------------------------
 SCF Energy (H0 + V/2)                       =    -646.94956370 
 Solute Internal Energy (H0)                 =    -646.63935238 
 Total Free Energy (H0 + V/2 + non-elec)     =    -646.94956370 hartree
                                             = -405966.97848327 kcal/mol
***********************************************************

 SCF time:  CPU 4444.30 s  wall 1151.62 s
 SCF   energy in the final basis set = -646.94956370
 Total energy in the final basis set = -646.94956370
 
 --------------------------------------------------------------
 
                    Orbital Energies (a.u.)
 --------------------------------------------------------------
 
 Alpha MOs
 -- Occupied --
-19.221 -19.210 -19.157 -19.151 -19.141 -19.139 -10.382 -10.343
-10.299 -10.248 -10.248  -1.200  -1.151  -1.145  -1.107  -1.050
 -0.900  -0.888  -0.846  -0.760  -0.656  -0.613  -0.596  -0.577
 -0.571  -0.551  -0.541  -0.530  -0.517  -0.498  -0.487  -0.479
 -0.473  -0.450  -0.446  -0.429  -0.421  -0.382  -0.356  -0.348
 -0.335  -0.332  -0.311  -0.279
 -- Virtual --
  0.060   0.071   0.078   0.082   0.094   0.101   0.104   0.115
  0.120   0.124   0.129   0.136   0.137   0.151   0.157   0.159
  0.162   0.173   0.177   0.179   0.185   0.190   0.192   0.203
  0.209   0.220   0.226   0.234   0.235   0.239   0.246   0.252
  0.256   0.265   0.269   0.278   0.287   0.289   0.293   0.306
  0.311   0.314   0.321   0.324   0.333   0.340   0.346   0.348
  0.350   0.363   0.366   0.368   0.369   0.374   0.380   0.389
  0.390   0.396   0.402   0.407   0.411   0.417   0.419   0.420
  0.429   0.434   0.440   0.441   0.445   0.461   0.463   0.468
  0.473   0.480   0.483   0.488   0.496   0.502   0.507   0.515
  0.518   0.523   0.527   0.530   0.539   0.543   0.552   0.553
  0.563   0.563   0.569   0.572   0.580   0.583   0.593   0.603
  0.609   0.617   0.627   0.629   0.633   0.634   0.642   0.650
  0.652   0.664   0.670   0.678   0.688   0.696   0.699   0.707
  0.714   0.724   0.732   0.737   0.740   0.744   0.753   0.759
  0.769   0.779   0.785   0.789   0.801   0.806   0.808   0.817
  0.819   0.823   0.828   0.832   0.839   0.847   0.851   0.858
  0.864   0.866   0.877   0.884   0.890   0.899   0.906   0.911
  0.921   0.923   0.927   0.935   0.950   0.968   0.984   0.989
  1.004   1.016   1.022   1.029   1.041   1.046   1.062   1.072
  1.078   1.087   1.106   1.128   1.141   1.159   1.164   1.173
  1.175   1.188   1.198   1.213   1.220   1.238   1.252   1.270
  1.272   1.282   1.295   1.309   1.334   1.345   1.351   1.366
  1.378   1.397   1.410   1.418   1.444   1.452   1.465   1.479
  1.490   1.500   1.514   1.530   1.536   1.559   1.599   1.610
  1.621   1.664   1.707   1.721   1.729   1.760   1.789   1.831
  1.846   1.890   1.912   1.925   1.929   1.942   1.948   1.952
  1.963   1.966   1.975   1.987   1.995   2.002   2.020   2.033
  2.042   2.052   2.063   2.078   2.088   2.117   2.131   2.149
  2.159   2.168   2.184   2.214   2.222   2.232   2.246   2.259
  2.277   2.286   2.299   2.313   2.336   2.356   2.365   2.377
  2.396   2.422   2.461   2.472   2.483   2.501   2.515   2.542
  2.551   2.568   2.589   2.602   2.616   2.619   2.643   2.659
  2.686   2.705   2.717   2.725   2.747   2.770   2.778   2.815
  2.828   2.849   2.883   2.912   2.922   2.935   2.945   2.970
  2.994   3.004   3.030   3.040   3.061   3.069   3.087   3.099
  3.129   3.142   3.155   3.181   3.188   3.231   3.258   3.265
  3.292   3.295   3.320   3.325   3.344   3.363   3.383   3.397
  3.408   3.424   3.436   3.449   3.453   3.461   3.481   3.505
  3.515   3.518   3.526   3.555   3.557   3.565   3.584   3.611
  3.622   3.635   3.655   3.668   3.683   3.687   3.690   3.715
  3.726   3.732   3.748   3.772   3.794   3.806   3.819   3.833
  3.853   3.904   3.968   3.985   4.016   4.046   4.076   4.102
  4.128   4.160   4.169   4.190   4.220   4.261   4.325   4.335
  4.348   4.393   4.511   4.616   4.629   4.664   4.703   4.729
  4.753   4.769   4.811   4.820   4.860   4.890   4.976   5.007
  5.049   5.075   5.117   5.170   5.206   5.225   5.292   5.324
  5.357   5.362   5.370   5.377   5.387   5.464   5.484   5.501
  5.510   5.551   5.579   5.618   5.667   5.691   5.711   5.726
  5.756   5.774   5.938   6.021   6.029   6.041   6.090   6.171
  6.246   6.251   6.309   6.332   6.339   6.406   6.490   6.591
  6.610   6.626   6.637   6.651   6.672   6.677   6.697   6.724
  6.748   6.758   6.774   6.793   6.836   6.878   6.910   6.960
  6.966   6.999   7.015   7.052   7.082   7.202   7.232   7.253
  7.280   7.307   7.363   7.406   7.412   7.413   7.423   7.542
  7.670   8.248  22.701  22.863  22.930  23.557  23.730  43.956
 44.267  44.419  44.481  44.491  44.716
 --------------------------------------------------------------
 
          Ground-State Mulliken Net Atomic Charges

     Atom                 Charge (a.u.)
  ----------------------------------------
      1 C                    -0.083444
      2 C                     0.067230
      3 O                    -0.707511
      4 O                    -0.691259
      5 C                    -0.195836
      6 H                     0.254044
      7 H                     0.175008
      8 O                    -0.267021
      9 H                     0.163789
     10 H                     0.239244
     11 C                     0.813172
     12 C                    -1.037322
     13 H                     0.261901
     14 H                     0.216892
     15 H                     0.221725
     16 O                    -0.639010
     17 O                    -0.653045
     18 O                    -0.452426
     19 H                     0.313870
  ----------------------------------------
  Sum of atomic charges =    -2.000000

 -----------------------------------------------------------------
                    Cartesian Multipole Moments
 -----------------------------------------------------------------
    Charge (ESU x 10^10)
                -9.6064
    Dipole Moment (Debye)
         X      10.7648      Y      -6.3525      Z      11.3841
       Tot      16.9066
    Quadrupole Moments (Debye-Ang)
        XX    -115.8392     XY     -20.7757     YY    -100.0411
        XZ     -36.5469     YZ     -16.2804     ZZ    -122.2141
    Octopole Moments (Debye-Ang^2)
       XXX     181.8536    XXY      18.5755    XYY      27.4295
       YYY     -60.5191    XXZ     155.7668    XYZ      38.3114
       YYZ      37.5412    XZZ     175.8518    YZZ       6.6137
       ZZZ     234.3539
    Hexadecapole Moments (Debye-Ang^3)
      XXXX   -1636.1383   XXXY    -434.4979   XXYY    -468.2733
      XYYY    -396.0577   YYYY    -778.7017   XXXZ    -834.7868
      XXYZ    -178.5785   XYYZ    -274.1504   YYYZ    -286.2325
      XXZZ    -848.5742   XYZZ    -180.8813   YYZZ    -462.1768
      XZZZ    -954.8268   YZZZ    -275.5774   ZZZZ   -2101.3879
 -----------------------------------------------------------------
 Calculating analytic gradient of the SCF energy
 Gradient of SCF Energy
            1           2           3           4           5           6
    1  -0.0159266  -0.0256780   0.0387269  -0.0038182   0.0136364  -0.0238035
    2  -0.0698932   0.0151741   0.0369017  -0.0471075   0.1066802   0.0482182
    3   0.0670089  -0.0354944   0.0215840   0.0327025  -0.0687635   0.0096004
            7           8           9          10          11          12
    1   0.0395541   0.0017905   0.0285144  -0.0409569  -0.0723229   0.0413011
    2  -0.0012097   0.0049675  -0.0767002  -0.0090070  -0.0151844  -0.0028668
    3  -0.0498388   0.0233189  -0.0252255   0.0497263  -0.0641122   0.0770875
           13          14          15          16          17          18
    1   0.0193727   0.0116611  -0.0634460   0.0553163  -0.0506179   0.0686197
    2   0.0639677  -0.0411460  -0.0047497  -0.0223170   0.0245372  -0.0123837
    3  -0.0163402  -0.0613397   0.0286300   0.0079208   0.0203933   0.0275059
           19
    1  -0.0219232
    2   0.0021186
    3  -0.0443641
 Max gradient component =       1.067E-01
 RMS gradient           =       4.221E-02
 Computing fast CPCM-ISWIG gradient
 Updating gradient with PCM contributions...
 -- total gradient after adding PCM contribution --
---------------------------------------------------
  Atom         X              Y              Z     
---------------------------------------------------
   1       0.000998      -0.000024      -0.000088
   2      -0.000202       0.000011      -0.000069
   3      -0.000012      -0.000045      -0.000083
   4       0.000027      -0.000013      -0.000019
   5      -0.000263      -0.000113      -0.000006
   6      -0.000154       0.000190       0.000004
   7      -0.000248      -0.000038       0.000237
   8      -0.000035      -0.000016      -0.000035
   9       0.000005       0.000012       0.000012
  10      -0.000028      -0.000013      -0.000003
  11      -0.000010       0.000002       0.000006
  12       0.000003       0.000002      -0.000005
  13       0.000018      -0.000007      -0.000012
  14      -0.000007      -0.000010       0.000003
  15       0.000004       0.000020       0.000004
  16      -0.000017      -0.000031       0.000004
  17      -0.000028       0.000002       0.000016
  18      -0.000027       0.000038       0.000019
  19      -0.000024       0.000032       0.000013
---------------------------------------------------
 Number of fixed atoms: 0
 Gradient time:  CPU 946.24 s  wall 245.42 s
 ----------------------------------------------------------------
             Standard Nuclear Orientation (Angstroms)
    I     Atom           X                Y                Z
 ----------------------------------------------------------------
    1      C      -1.3585252028    -0.9929580839    -1.3076220696
    2      C      -2.2339720822    -0.7404326584    -2.5440621922
    3      O      -3.0338660089    -1.6608556696    -2.8586439614
    4      O      -2.1016504893     0.3554735609    -3.1468174247
    5      C      -0.2830543029     0.0565227576    -1.0837913796
    6      H      -0.8968118603    -1.9814090840    -1.4114714371
    7      H      -2.0159074467    -1.0434371812    -0.4333614751
    8      O       0.5595889371    -0.2938269122     0.0243613976
    9      H      -0.7178709113     1.0411047449    -0.9110429304
   10      H       0.3815382283     0.1156277146    -1.9492673482
   11      C       0.2437965408     0.2445299883     1.2345279975
   12      C       1.1650904332    -0.2981470230     2.2964155921
   13      H       0.8681032765    -1.3301627512     2.5176599978
   14      H       1.0688940708     0.3003389024     3.2019483609
   15      H       2.2008904893    -0.2989785314     1.9557633929
   16      O      -0.8743899389     0.6994780915     1.4764284297
   17      O       1.2648543900     2.0690491225     1.0247924895
   18      O       2.6318805758     1.9468584000     0.5494137876
   19      H       3.1304113016     1.8112246122     1.3647687727
 ----------------------------------------------------------------
 Nuclear Repulsion Energy =   627.4754141608 hartrees
 There are       44 alpha and       44 beta electrons
 Discretize the solute cavity surface with Lebedev spheres
	Using 110 Lebedev grid points for each H atom
	Using 110 Lebedev grid points for other atoms
	Atomic van der Waals radii will be scaled by 1.20
 Remove points where switching function is < 1.0e-08
 Keep 1161 surface tesserae and discard 929 interior tesserae
 Molecular Surface Area = 207.967 Angst**2
 Requested basis set is def2-TZVPD
 There are 189 shells and 497 basis functions
 A cutoff of  1.0D-14 yielded  15905 shell pairs
 There are    110203 function pairs (    140386 Cartesian)
 Smallest overlap matrix eigenvalue = 3.97E-06
 Guess MOs from SCF MO coefficient file
 Reading MOs from coefficient file
 Reading MOs from coefficient file
 Long-range K will be added via erf
 Coulomb attenuation parameter = 0.3 bohr**(-1)
 A restricted hybrid HF-DFT SCF calculation will be
 performed using Pulay DIIS extrapolation
 Polarizable Continuum solvation model will be applied
 Exchange:     0.1670 Hartree-Fock + 1.0000 wB97X-V + LR-HF
 Correlation:  1.0000 wB97X-V
 Using SG-2 standard quadrature grid
 Nonlocal Correlation:  VV10 with C = 0.0100 and b = 6.00
 Grid used for NLC:  SG-1 standard quadrature
 SCF converges when DIIS error is below 1.0E-08
Using Q-Chem read-in guess as SCF_GUESS READ specified.

 using 4 threads for integral computing
 -------------------------------------------------------
 OpenMP Integral computing Module                
 Release: version 1.0, May 2013, Q-Chem Inc. Pittsburgh 
 -------------------------------------------------------
 using 4 threads for integral computing
 -------------------------------------------------------
 OpenMP Integral computing Module                
 Release: version 1.0, May 2013, Q-Chem Inc. Pittsburgh 
 -------------------------------------------------------
 -------------------------------------------------------
 OpenMP BLAS3 based DFT computing Module                
 Release: version 1.0, May 2013, Q-Chem Inc. Pittsburgh 
 -------------------------------------------------------
 -------------------------------------------------------
 OpenMP BLAS3 based DFT computing Module                
 Release: version 1.0, May 2013, Q-Chem Inc. Pittsburgh 
 -------------------------------------------------------
 -------------------------------------------------------
 OpenMP BLAS3 based DFT computing Module                
 Release: version 1.0, May 2013, Q-Chem Inc. Pittsburgh 
 -------------------------------------------------------
 ---------------------------------------
  Cycle       Energy         DIIS Error
 ---------------------------------------
    1    -646.6392939873      4.11E-04
    2    -646.9378239301      4.61E-04
    3    -646.9462357879      2.06E-04
    4    -646.9475704837      1.51E-04
    5    -646.9483948938      1.14E-04
    6    -646.9488433401      8.93E-05
    7    -646.9492452548      5.93E-05
    8    -646.9494867601      2.91E-05
    9    -646.9495540372      1.04E-05
   10    -646.9495628990      3.09E-06
   11    -646.9495637479      3.98E-07
   12    -646.9495637617      9.26E-08
   13    -646.9495637623      2.83E-08
   14    -646.9495637624      1.60E-08
   15    -646.9495637624      6.45E-09 Convergence criterion met
 ---------------------------------------

************** Final PCM Free Energy Summary **************
 G_electrostatic  =      -0.31021813 hartree =    -194.66481445 kcal/mol
 G_cavitation     =       0.00000000 hartree =       0.00000000 kcal/mol
 G_dispersion     =       0.00000000 hartree =       0.00000000 kcal/mol
 G_repulsion      =       0.00000000 hartree =       0.00000000 kcal/mol
 --------------------------------------------------
 Non-electrostatic Free Energy =       0.00000000 hartree =       0.00000000 kcal/mol
 Total                         =      -0.31021813 hartree =    -194.66481445 kcal/mol
 --------------------------------------------------
 SCF Energy (H0 + V/2)                       =    -646.94956376 
 Solute Internal Energy (H0)                 =    -646.63934563 
 Total Free Energy (H0 + V/2 + non-elec)     =    -646.94956376 hartree
                                             = -405966.97852021 kcal/mol
***********************************************************

 SCF time:  CPU 4166.75 s  wall 1080.07 s
 SCF   energy in the final basis set = -646.94956376
 Total energy in the final basis set = -646.94956376
 
 --------------------------------------------------------------
 
                    Orbital Energies (a.u.)
 --------------------------------------------------------------
 
 Alpha MOs
 -- Occupied --
-19.221 -19.210 -19.157 -19.151 -19.141 -19.139 -10.382 -10.343
-10.299 -10.248 -10.248  -1.200  -1.151  -1.145  -1.107  -1.050
 -0.900  -0.888  -0.846  -0.760  -0.656  -0.613  -0.596  -0.577
 -0.571  -0.551  -0.542  -0.530  -0.517  -0.498  -0.487  -0.479
 -0.473  -0.450  -0.446  -0.429  -0.421  -0.382  -0.356  -0.348
 -0.335  -0.332  -0.311  -0.279
 -- Virtual --
  0.060   0.071   0.078   0.082   0.094   0.101   0.104   0.115
  0.120   0.124   0.129   0.136   0.137   0.151   0.157   0.159
  0.162   0.173   0.177   0.179   0.185   0.190   0.192   0.203
  0.209   0.220   0.226   0.234   0.235   0.239   0.246   0.252
  0.256   0.265   0.269   0.278   0.287   0.289   0.293   0.306
  0.311   0.314   0.321   0.324   0.333   0.340   0.346   0.348
  0.350   0.363   0.366   0.368   0.369   0.374   0.380   0.389
  0.390   0.396   0.402   0.407   0.410   0.417   0.419   0.420
  0.429   0.434   0.440   0.441   0.445   0.461   0.463   0.468
  0.473   0.480   0.483   0.488   0.496   0.502   0.507   0.515
  0.518   0.523   0.527   0.530   0.539   0.543   0.552   0.553
  0.563   0.563   0.569   0.572   0.580   0.583   0.593   0.603
  0.609   0.617   0.627   0.629   0.633   0.634   0.642   0.650
  0.652   0.664   0.670   0.678   0.688   0.696   0.699   0.707
  0.714   0.724   0.732   0.737   0.740   0.744   0.753   0.759
  0.769   0.779   0.785   0.789   0.801   0.806   0.808   0.817
  0.819   0.823   0.828   0.832   0.839   0.847   0.851   0.858
  0.864   0.866   0.877   0.884   0.890   0.899   0.906   0.911
  0.921   0.923   0.927   0.935   0.950   0.968   0.984   0.989
  1.004   1.016   1.022   1.029   1.041   1.046   1.062   1.072
  1.078   1.087   1.106   1.128   1.141   1.159   1.164   1.173
  1.175   1.188   1.198   1.213   1.220   1.238   1.252   1.270
  1.272   1.282   1.295   1.309   1.334   1.345   1.351   1.366
  1.378   1.397   1.410   1.418   1.444   1.452   1.465   1.479
  1.490   1.500   1.514   1.531   1.536   1.559   1.599   1.610
  1.621   1.664   1.707   1.721   1.729   1.760   1.789   1.831
  1.846   1.890   1.913   1.925   1.929   1.942   1.948   1.952
  1.963   1.966   1.975   1.987   1.995   2.002   2.020   2.033
  2.042   2.052   2.063   2.078   2.088   2.117   2.131   2.149
  2.159   2.168   2.184   2.214   2.222   2.232   2.246   2.259
  2.277   2.286   2.299   2.313   2.336   2.356   2.365   2.377
  2.396   2.422   2.461   2.472   2.483   2.501   2.515   2.542
  2.551   2.568   2.589   2.602   2.616   2.619   2.643   2.659
  2.686   2.705   2.717   2.724   2.747   2.769   2.778   2.815
  2.828   2.849   2.882   2.912   2.922   2.935   2.945   2.969
  2.994   3.004   3.030   3.040   3.061   3.069   3.087   3.099
  3.129   3.142   3.155   3.181   3.188   3.231   3.258   3.265
  3.292   3.295   3.320   3.325   3.344   3.362   3.384   3.397
  3.409   3.424   3.436   3.449   3.453   3.461   3.481   3.505
  3.515   3.518   3.526   3.556   3.557   3.565   3.584   3.611
  3.622   3.635   3.655   3.668   3.683   3.687   3.689   3.715
  3.726   3.732   3.748   3.772   3.794   3.806   3.818   3.833
  3.853   3.904   3.968   3.985   4.016   4.046   4.076   4.103
  4.128   4.160   4.169   4.190   4.221   4.261   4.325   4.335
  4.348   4.393   4.511   4.616   4.629   4.664   4.702   4.729
  4.752   4.769   4.811   4.820   4.860   4.890   4.977   5.007
  5.049   5.075   5.117   5.170   5.206   5.225   5.292   5.324
  5.357   5.362   5.370   5.377   5.387   5.464   5.484   5.501
  5.510   5.551   5.579   5.618   5.667   5.691   5.711   5.727
  5.756   5.774   5.938   6.021   6.029   6.041   6.090   6.171
  6.246   6.251   6.309   6.332   6.339   6.406   6.490   6.591
  6.610   6.626   6.637   6.651   6.672   6.677   6.697   6.724
  6.748   6.758   6.774   6.793   6.836   6.878   6.910   6.960
  6.966   6.999   7.015   7.052   7.082   7.202   7.232   7.253
  7.280   7.307   7.363   7.406   7.412   7.413   7.423   7.542
  7.670   8.248  22.701  22.863  22.929  23.557  23.731  43.956
 44.267  44.419  44.481  44.491  44.715
 --------------------------------------------------------------
 
          Ground-State Mulliken Net Atomic Charges

     Atom                 Charge (a.u.)
  ----------------------------------------
      1 C                    -0.082882
      2 C                     0.067508
      3 O                    -0.707544
      4 O                    -0.691336
      5 C                    -0.196967
      6 H                     0.252784
      7 H                     0.175861
      8 O                    -0.266974
      9 H                     0.164056
     10 H                     0.239739
     11 C                     0.813194
     12 C                    -1.037355
     13 H                     0.261888
     14 H                     0.216909
     15 H                     0.221722
     16 O                    -0.639000
     17 O                    -0.653046
     18 O                    -0.452428
     19 H                     0.313870
  ----------------------------------------
  Sum of atomic charges =    -2.000000

 -----------------------------------------------------------------
                    Cartesian Multipole Moments
 -----------------------------------------------------------------
    Charge (ESU x 10^10)
                -9.6064
    Dipole Moment (Debye)
         X      10.7651      Y      -6.3522      Z      11.3870
       Tot      16.9086
    Quadrupole Moments (Debye-Ang)
        XX    -115.8388     XY     -20.7782     YY    -100.0455
        XZ     -36.5534     YZ     -16.2853     ZZ    -122.2211
    Octopole Moments (Debye-Ang^2)
       XXX     181.8852    XXY      18.5862    XYY      27.4481
       YYY     -60.5072    XXZ     155.7842    XYZ      38.3265
       YYZ      37.5548    XZZ     175.8839    YZZ       6.6296
       ZZZ     234.3884
    Hexadecapole Moments (Debye-Ang^3)
      XXXX   -1636.2991   XXXY    -434.5620   XXYY    -468.3201
      XYYY    -396.1113   YYYY    -778.7479   XXXZ    -834.8774
      XXYZ    -178.6280   XYYZ    -274.1936   YYYZ    -286.2641
      XXZZ    -848.6654   XYZZ    -180.9413   YYZZ    -462.2096
      XZZZ    -954.9616   YZZZ    -275.6387   ZZZZ   -2101.5281
 -----------------------------------------------------------------
 Calculating analytic gradient of the SCF energy
 Gradient of SCF Energy
            1           2           3           4           5           6
    1  -0.0173223  -0.0253012   0.0387427  -0.0038643   0.0140764  -0.0236426
    2  -0.0694385   0.0150971   0.0369258  -0.0471167   0.1065792   0.0477770
    3   0.0673343  -0.0353513   0.0216476   0.0327240  -0.0686804   0.0094923
            7           8           9          10          11          12
    1   0.0399485   0.0018213   0.0285029  -0.0409444  -0.0722935   0.0413044
    2  -0.0011342   0.0049416  -0.0767575  -0.0088731  -0.0151610  -0.0028832
    3  -0.0504804   0.0233557  -0.0252026   0.0497526  -0.0640713   0.0770856
           13          14          15          16          17          18
    1   0.0193693   0.0116650  -0.0634484   0.0553108  -0.0506210   0.0686187
    2   0.0639644  -0.0411396  -0.0047465  -0.0223096   0.0245389  -0.0123847
    3  -0.0163418  -0.0613344   0.0286249   0.0079129   0.0203914   0.0275035
           19
    1  -0.0219224
    2   0.0021205
    3  -0.0443627
 Max gradient component =       1.066E-01
 RMS gradient           =       4.222E-02
 Computing fast CPCM-ISWIG gradient
 Updating gradient with PCM contributions...
 -- total gradient after adding PCM contribution --
---------------------------------------------------
  Atom         X              Y              Z     
---------------------------------------------------
   1      -0.000967       0.000004       0.000072
   2       0.000229      -0.000038       0.000055
   3       0.000057       0.000005       0.000059
   4      -0.000029      -0.000002       0.000018
   5       0.000263       0.000122       0.000005
   6       0.000213      -0.000194      -0.000034
   7       0.000279      -0.000013      -0.000257
   8       0.000045       0.000029       0.000033
   9      -0.000034      -0.000019       0.000004
  10       0.000027       0.000055       0.000005
  11      -0.000002      -0.000004      -0.000006
  12       0.000003       0.000001      -0.000004
  13       0.000018      -0.000007      -0.000011
  14      -0.000007      -0.000010       0.000004
  15       0.000003       0.000020       0.000004
  16      -0.000018      -0.000024       0.000006
  17      -0.000028       0.000005       0.000016
  18      -0.000027       0.000038       0.000019
  19      -0.000024       0.000032       0.000013
---------------------------------------------------
 Number of fixed atoms: 0
 Gradient time:  CPU 941.01 s  wall 243.96 s
 ----------------------------------------------------------------
             Standard Nuclear Orientation (Angstroms)
    I     Atom           X                Y                Z
 ----------------------------------------------------------------
    1      C      -1.3575252028    -0.9919580839    -1.3076220696
    2      C      -2.2339720822    -0.7404326584    -2.5440621922
    3      O      -3.0338660089    -1.6608556696    -2.8586439614
    4      O      -2.1016504893     0.3554735609    -3.1468174247
    5      C      -0.2830543029     0.0565227576    -1.0837913796
    6      H      -0.8968118603    -1.9814090840    -1.4114714371
    7      H      -2.0159074467    -1.0434371812    -0.4333614751
    8      O       0.5595889371    -0.2938269122     0.0243613976
    9      H      -0.7178709113     1.0411047449    -0.9110429304
   10      H       0.3815382283     0.1156277146    -1.9492673482
   11      C       0.2437965408     0.2445299883     1.2345279975
   12      C       1.1650904332    -0.2981470230     2.2964155921
   13      H       0.8681032765    -1.3301627512     2.5176599978
   14      H       1.0688940708     0.3003389024     3.2019483609
   15      H       2.2008904893    -0.2989785314     1.9557633929
   16      O      -0.8743899389     0.6994780915     1.4764284297
   17      O       1.2648543900     2.0690491225     1.0247924895
   18      O       2.6318805758     1.9468584000     0.5494137876
   19      H       3.1304113016     1.8112246122     1.3647687727
 ----------------------------------------------------------------
 Nuclear Repulsion Energy =   627.4905259777 hartrees
 There are       44 alpha and       44 beta electrons
 Discretize the solute cavity surface with Lebedev spheres
	Using 110 Lebedev grid points for each H atom
	Using 110 Lebedev grid points for other atoms
	Atomic van der Waals radii will be scaled by 1.20
 Remove points where switching function is < 1.0e-08
 Keep 1161 surface tesserae and discard 929 interior tesserae
 Molecular Surface Area = 207.962 Angst**2
 Requested basis set is def2-TZVPD
 There are 189 shells and 497 basis functions
 A cutoff of  1.0D-14 yielded  15905 shell pairs
 There are    110203 function pairs (    140386 Cartesian)
 Smallest overlap matrix eigenvalue = 3.96E-06
 Guess MOs from SCF MO coefficient file
 Reading MOs from coefficient file
 Reading MOs from coefficient file
 Long-range K will be added via erf
 Coulomb attenuation parameter = 0.3 bohr**(-1)
 A restricted hybrid HF-DFT SCF calculation will be
 performed using Pulay DIIS extrapolation
 Polarizable Continuum solvation model will be applied
 Exchange:     0.1670 Hartree-Fock + 1.0000 wB97X-V + LR-HF
 Correlation:  1.0000 wB97X-V
 Using SG-2 standard quadrature grid
 Nonlocal Correlation:  VV10 with C = 0.0100 and b = 6.00
 Grid used for NLC:  SG-1 standard quadrature
 SCF converges when DIIS error is below 1.0E-08
Using Q-Chem read-in guess as SCF_GUESS READ specified.

 using 4 threads for integral computing
 -------------------------------------------------------
 OpenMP Integral computing Module                
 Release: version 1.0, May 2013, Q-Chem Inc. Pittsburgh 
 -------------------------------------------------------
 using 4 threads for integral computing
 -------------------------------------------------------
 OpenMP Integral computing Module                
 Release: version 1.0, May 2013, Q-Chem Inc. Pittsburgh 
 -------------------------------------------------------
 -------------------------------------------------------
 OpenMP BLAS3 based DFT computing Module                
 Release: version 1.0, May 2013, Q-Chem Inc. Pittsburgh 
 -------------------------------------------------------
 -------------------------------------------------------
 OpenMP BLAS3 based DFT computing Module                
 Release: version 1.0, May 2013, Q-Chem Inc. Pittsburgh 
 -------------------------------------------------------
 -------------------------------------------------------
 OpenMP BLAS3 based DFT computing Module                
 Release: version 1.0, May 2013, Q-Chem Inc. Pittsburgh 
 -------------------------------------------------------
 ---------------------------------------
  Cycle       Energy         DIIS Error
 ---------------------------------------
    1    -646.6390891756      4.10E-04
    2    -646.9378260655      4.61E-04
    3    -646.9462342264      2.06E-04
    4    -646.9475675756      1.51E-04
    5    -646.9483837790      1.15E-04
    6    -646.9488119350      9.13E-05
    7    -646.9491774936      6.53E-05
    8    -646.9494314776      3.82E-05
    9    -646.9495373966      1.70E-05
   10    -646.9495603364      6.08E-06
   11    -646.9495635951      9.20E-07
   12    -646.9495636657      2.23E-07
   13    -646.9495636704      2.94E-08
   14    -646.9495636705      2.14E-08
   15    -646.9495636705      9.40E-09 Convergence criterion met
 ---------------------------------------

************** Final PCM Free Energy Summary **************
 G_electrostatic  =      -0.31021280 hartree =    -194.66147248 kcal/mol
 G_cavitation     =       0.00000000 hartree =       0.00000000 kcal/mol
 G_dispersion     =       0.00000000 hartree =       0.00000000 kcal/mol
 G_repulsion      =       0.00000000 hartree =       0.00000000 kcal/mol
 --------------------------------------------------
 Non-electrostatic Free Energy =       0.00000000 hartree =       0.00000000 kcal/mol
 Total                         =      -0.31021280 hartree =    -194.66147248 kcal/mol
 --------------------------------------------------
 SCF Energy (H0 + V/2)                       =    -646.94956367 
 Solute Internal Energy (H0)                 =    -646.63935087 
 Total Free Energy (H0 + V/2 + non-elec)     =    -646.94956367 hartree
                                             = -405966.97846255 kcal/mol
***********************************************************

 SCF time:  CPU 4155.35 s  wall 1076.81 s
 SCF   energy in the final basis set = -646.94956367
 Total energy in the final basis set = -646.94956367
 
 --------------------------------------------------------------
 
                    Orbital Energies (a.u.)
 --------------------------------------------------------------
 
 Alpha MOs
 -- Occupied --
-19.221 -19.210 -19.157 -19.151 -19.141 -19.139 -10.382 -10.343
-10.299 -10.248 -10.248  -1.200  -1.151  -1.145  -1.107  -1.050
 -0.900  -0.888  -0.846  -0.760  -0.656  -0.613  -0.596  -0.577
 -0.571  -0.551  -0.541  -0.530  -0.517  -0.498  -0.487  -0.479
 -0.473  -0.450  -0.446  -0.429  -0.421  -0.382  -0.356  -0.348
 -0.335  -0.332  -0.311  -0.279
 -- Virtual --
  0.060   0.071   0.078   0.082   0.094   0.101   0.104   0.115
  0.120   0.124   0.129   0.136   0.137   0.151   0.157   0.159
  0.162   0.173   0.177   0.179   0.185   0.190   0.192   0.203
  0.209   0.220   0.226   0.234   0.235   0.239   0.246   0.252
  0.256   0.265   0.269   0.278   0.287   0.289   0.293   0.306
  0.311   0.314   0.321   0.324   0.333   0.340   0.346   0.348
  0.350   0.363   0.366   0.368   0.369   0.374   0.380   0.389
  0.390   0.396   0.402   0.407   0.410   0.417   0.419   0.420
  0.429   0.434   0.440   0.441   0.446   0.461   0.463   0.468
  0.473   0.480   0.483   0.488   0.496   0.502   0.507   0.515
  0.518   0.523   0.527   0.530   0.539   0.543   0.552   0.553
  0.563   0.563   0.569   0.572   0.580   0.583   0.593   0.603
  0.609   0.617   0.627   0.629   0.633   0.634   0.642   0.650
  0.652   0.664   0.670   0.678   0.688   0.696   0.699   0.707
  0.714   0.724   0.732   0.737   0.740   0.744   0.753   0.759
  0.769   0.779   0.785   0.789   0.801   0.806   0.808   0.816
  0.819   0.823   0.828   0.832   0.839   0.847   0.851   0.858
  0.864   0.866   0.877   0.884   0.890   0.899   0.906   0.911
  0.921   0.923   0.927   0.935   0.950   0.968   0.984   0.989
  1.004   1.016   1.022   1.029   1.041   1.046   1.062   1.072
  1.078   1.087   1.106   1.128   1.141   1.159   1.164   1.173
  1.175   1.188   1.198   1.213   1.220   1.238   1.252   1.270
  1.272   1.282   1.295   1.309   1.334   1.345   1.351   1.366
  1.378   1.397   1.410   1.419   1.444   1.452   1.465   1.479
  1.490   1.500   1.514   1.531   1.536   1.559   1.599   1.610
  1.621   1.664   1.707   1.721   1.729   1.760   1.789   1.831
  1.846   1.890   1.913   1.925   1.929   1.942   1.948   1.952
  1.963   1.966   1.975   1.987   1.995   2.002   2.020   2.033
  2.042   2.052   2.063   2.078   2.088   2.117   2.131   2.149
  2.159   2.168   2.184   2.214   2.222   2.232   2.246   2.259
  2.277   2.286   2.299   2.313   2.336   2.356   2.365   2.377
  2.396   2.422   2.461   2.472   2.483   2.501   2.515   2.542
  2.551   2.568   2.589   2.602   2.616   2.619   2.643   2.659
  2.686   2.705   2.717   2.724   2.747   2.769   2.778   2.815
  2.828   2.849   2.883   2.912   2.922   2.935   2.945   2.969
  2.994   3.004   3.030   3.040   3.061   3.068   3.087   3.099
  3.129   3.142   3.155   3.181   3.188   3.231   3.258   3.265
  3.292   3.295   3.320   3.325   3.344   3.363   3.383   3.397
  3.408   3.424   3.436   3.449   3.453   3.461   3.481   3.505
  3.515   3.518   3.526   3.556   3.557   3.565   3.584   3.612
  3.622   3.635   3.655   3.668   3.684   3.687   3.689   3.715
  3.726   3.732   3.748   3.772   3.794   3.806   3.819   3.833
  3.853   3.904   3.968   3.985   4.016   4.046   4.076   4.102
  4.128   4.160   4.169   4.190   4.221   4.261   4.325   4.336
  4.348   4.393   4.511   4.616   4.630   4.664   4.702   4.729
  4.753   4.769   4.811   4.820   4.860   4.890   4.977   5.007
  5.049   5.075   5.117   5.170   5.206   5.225   5.292   5.324
  5.357   5.362   5.370   5.377   5.387   5.464   5.484   5.501
  5.510   5.551   5.579   5.618   5.667   5.691   5.711   5.727
  5.756   5.774   5.938   6.021   6.029   6.041   6.090   6.171
  6.246   6.251   6.309   6.332   6.339   6.406   6.490   6.591
  6.610   6.626   6.637   6.651   6.672   6.677   6.697   6.724
  6.748   6.758   6.774   6.793   6.836   6.878   6.910   6.960
  6.966   6.999   7.015   7.052   7.082   7.202   7.232   7.253
  7.280   7.307   7.363   7.406   7.412   7.413   7.423   7.542
  7.670   8.248  22.701  22.863  22.930  23.557  23.731  43.956
 44.267  44.419  44.481  44.491  44.716
 --------------------------------------------------------------
 
          Ground-State Mulliken Net Atomic Charges

     Atom                 Charge (a.u.)
  ----------------------------------------
      1 C                    -0.082885
      2 C                     0.066957
      3 O                    -0.707570
      4 O                    -0.691331
      5 C                    -0.195545
      6 H                     0.252917
      7 H                     0.175703
      8 O                    -0.266981
      9 H                     0.163730
     10 H                     0.239232
     11 C                     0.813183
     12 C                    -1.037361
     13 H                     0.261895
     14 H                     0.216903
     15 H                     0.221737
     16 O                    -0.638985
     17 O                    -0.653043
     18 O                    -0.452427
     19 H                     0.313870
  ----------------------------------------
  Sum of atomic charges =    -2.000000

 -----------------------------------------------------------------
                    Cartesian Multipole Moments
 -----------------------------------------------------------------
    Charge (ESU x 10^10)
                -9.6064
    Dipole Moment (Debye)
         X      10.7647      Y      -6.3519      Z      11.3862
       Tot      16.9077
    Quadrupole Moments (Debye-Ang)
        XX    -115.8361     XY     -20.7753     YY    -100.0461
        XZ     -36.5491     YZ     -16.2831     ZZ    -122.2184
    Octopole Moments (Debye-Ang^2)
       XXX     181.8600    XXY      18.5704    XYY      27.4378
       YYY     -60.5194    XXZ     155.7692    XYZ      38.3145
       YYZ      37.5532    XZZ     175.8667    YZZ       6.6151
       ZZZ     234.3803
    Hexadecapole Moments (Debye-Ang^3)
      XXXX   -1636.1641   XXXY    -434.4846   XXYY    -468.2766
      XYYY    -396.0613   YYYY    -778.6924   XXXZ    -834.7956
      XXYZ    -178.5785   XYYZ    -274.1680   YYYZ    -286.2389
      XXZZ    -848.5963   XYZZ    -180.8865   YYZZ    -462.1890
      XZZZ    -954.8911   YZZZ    -275.5753   ZZZZ   -2101.4845
 -----------------------------------------------------------------
 Calculating analytic gradient of the SCF energy
 Gradient of SCF Energy
            1           2           3           4           5           6
    1  -0.0168377  -0.0254134   0.0387067  -0.0038302   0.0137803  -0.0234789
    2  -0.0688195   0.0149867   0.0369324  -0.0471081   0.1063660   0.0475037
    3   0.0672417  -0.0353731   0.0215935   0.0327445  -0.0688656   0.0095181
            7           8           9          10          11          12
    1   0.0397600   0.0018027   0.0284684  -0.0409482  -0.0722736   0.0412911
    2  -0.0011810   0.0049752  -0.0767240  -0.0089344  -0.0151659  -0.0028737
    3  -0.0501008   0.0233444  -0.0251830   0.0496984  -0.0641189   0.0770984
           13          14          15          16          17          18
    1   0.0193694   0.0116648  -0.0634466   0.0553108  -0.0506217   0.0686189
    2   0.0639669  -0.0411429  -0.0047480  -0.0223091   0.0245404  -0.0123834
    3  -0.0163406  -0.0613378   0.0286259   0.0079213   0.0203926   0.0275041
           19
    1  -0.0219227
    2   0.0021188
    3  -0.0443630
 Max gradient component =       1.064E-01
 RMS gradient           =       4.217E-02
 Computing fast CPCM-ISWIG gradient
 Updating gradient with PCM contributions...
 -- total gradient after adding PCM contribution --
---------------------------------------------------
  Atom         X              Y              Z     
---------------------------------------------------
   1       0.000003       0.001058      -0.000005
   2       0.000042      -0.000162       0.000009
   3      -0.000034      -0.000019      -0.000057
   4       0.000017      -0.000034       0.000075
   5      -0.000134      -0.000295      -0.000022
   6       0.000223      -0.000491      -0.000060
   7       0.000002      -0.000109       0.000003
   8       0.000023       0.000029       0.000015
   9      -0.000057      -0.000041       0.000003
  10      -0.000001       0.000019       0.000000
  11      -0.000000      -0.000009      -0.000010
  12       0.000002       0.000002      -0.000003
  13       0.000018      -0.000007      -0.000011
  14      -0.000007      -0.000011       0.000004
  15       0.000003       0.000020       0.000004
  16      -0.000021      -0.000026       0.000007
  17      -0.000028       0.000006       0.000016
  18      -0.000026       0.000038       0.000019
  19      -0.000024       0.000032       0.000013
---------------------------------------------------
 Number of fixed atoms: 0
 Gradient time:  CPU 925.18 s  wall 239.56 s
 ----------------------------------------------------------------
             Standard Nuclear Orientation (Angstroms)
    I     Atom           X                Y                Z
 ----------------------------------------------------------------
    1      C      -1.3575252028    -0.9939580839    -1.3076220696
    2      C      -2.2339720822    -0.7404326584    -2.5440621922
    3      O      -3.0338660089    -1.6608556696    -2.8586439614
    4      O      -2.1016504893     0.3554735609    -3.1468174247
    5      C      -0.2830543029     0.0565227576    -1.0837913796
    6      H      -0.8968118603    -1.9814090840    -1.4114714371
    7      H      -2.0159074467    -1.0434371812    -0.4333614751
    8      O       0.5595889371    -0.2938269122     0.0243613976
    9      H      -0.7178709113     1.0411047449    -0.9110429304
   10      H       0.3815382283     0.1156277146    -1.9492673482
   11      C       0.2437965408     0.2445299883     1.2345279975
   12      C       1.1650904332    -0.2981470230     2.2964155921
   13      H       0.8681032765    -1.3301627512     2.5176599978
   14      H       1.0688940708     0.3003389024     3.2019483609
   15      H       2.2008904893    -0.2989785314     1.9557633929
   16      O      -0.8743899389     0.6994780915     1.4764284297
   17      O       1.2648543900     2.0690491225     1.0247924895
   18      O       2.6318805758     1.9468584000     0.5494137876
   19      H       3.1304113016     1.8112246122     1.3647687727
 ----------------------------------------------------------------
 Nuclear Repulsion Energy =   627.4678279179 hartrees
 There are       44 alpha and       44 beta electrons
 Discretize the solute cavity surface with Lebedev spheres
	Using 110 Lebedev grid points for each H atom
	Using 110 Lebedev grid points for other atoms
	Atomic van der Waals radii will be scaled by 1.20
 Remove points where switching function is < 1.0e-08
 Keep 1161 surface tesserae and discard 929 interior tesserae
 Molecular Surface Area = 207.959 Angst**2
 Requested basis set is def2-TZVPD
 There are 189 shells and 497 basis functions
 A cutoff of  1.0D-14 yielded  15905 shell pairs
 There are    110203 function pairs (    140386 Cartesian)
 Smallest overlap matrix eigenvalue = 3.97E-06
 Guess MOs from SCF MO coefficient file
 Reading MOs from coefficient file
 Reading MOs from coefficient file
 Long-range K will be added via erf
 Coulomb attenuation parameter = 0.3 bohr**(-1)
 A restricted hybrid HF-DFT SCF calculation will be
 performed using Pulay DIIS extrapolation
 Polarizable Continuum solvation model will be applied
 Exchange:     0.1670 Hartree-Fock + 1.0000 wB97X-V + LR-HF
 Correlation:  1.0000 wB97X-V
 Using SG-2 standard quadrature grid
 Nonlocal Correlation:  VV10 with C = 0.0100 and b = 6.00
 Grid used for NLC:  SG-1 standard quadrature
 SCF converges when DIIS error is below 1.0E-08
Using Q-Chem read-in guess as SCF_GUESS READ specified.

 using 4 threads for integral computing
 -------------------------------------------------------
 OpenMP Integral computing Module                
 Release: version 1.0, May 2013, Q-Chem Inc. Pittsburgh 
 -------------------------------------------------------
 using 4 threads for integral computing
 -------------------------------------------------------
 OpenMP Integral computing Module                
 Release: version 1.0, May 2013, Q-Chem Inc. Pittsburgh 
 -------------------------------------------------------
 -------------------------------------------------------
 OpenMP BLAS3 based DFT computing Module                
 Release: version 1.0, May 2013, Q-Chem Inc. Pittsburgh 
 -------------------------------------------------------
 -------------------------------------------------------
 OpenMP BLAS3 based DFT computing Module                
 Release: version 1.0, May 2013, Q-Chem Inc. Pittsburgh 
 -------------------------------------------------------
 -------------------------------------------------------
 OpenMP BLAS3 based DFT computing Module                
 Release: version 1.0, May 2013, Q-Chem Inc. Pittsburgh 
 -------------------------------------------------------
 ---------------------------------------
  Cycle       Energy         DIIS Error
 ---------------------------------------
    1    -646.6399404709      4.10E-04
    2    -646.9378411997      4.60E-04
    3    -646.9462385457      2.06E-04
    4    -646.9475710923      1.51E-04
    5    -646.9483910577      1.14E-04
    6    -646.9488388643      8.96E-05
    7    -646.9492434394      5.94E-05
    8    -646.9494852590      2.94E-05
    9    -646.9495536514      1.05E-05
   10    -646.9495627366      3.15E-06
   11    -646.9495636157      4.19E-07
   12    -646.9495636303      1.03E-07
   13    -646.9495636311      2.81E-08
   14    -646.9495636312      1.58E-08
   15    -646.9495636312      6.54E-09 Convergence criterion met
 ---------------------------------------

************** Final PCM Free Energy Summary **************
 G_electrostatic  =      -0.31021679 hartree =    -194.66397525 kcal/mol
 G_cavitation     =       0.00000000 hartree =       0.00000000 kcal/mol
 G_dispersion     =       0.00000000 hartree =       0.00000000 kcal/mol
 G_repulsion      =       0.00000000 hartree =       0.00000000 kcal/mol
 --------------------------------------------------
 Non-electrostatic Free Energy =       0.00000000 hartree =       0.00000000 kcal/mol
 Total                         =      -0.31021679 hartree =    -194.66397525 kcal/mol
 --------------------------------------------------
 SCF Energy (H0 + V/2)                       =    -646.94956363 
 Solute Internal Energy (H0)                 =    -646.63934684 
 Total Free Energy (H0 + V/2 + non-elec)     =    -646.94956363 hartree
                                             = -405966.97843790 kcal/mol
***********************************************************

 SCF time:  CPU 4184.08 s  wall 1084.49 s
 SCF   energy in the final basis set = -646.94956363
 Total energy in the final basis set = -646.94956363
 
 --------------------------------------------------------------
 
                    Orbital Energies (a.u.)
 --------------------------------------------------------------
 
 Alpha MOs
 -- Occupied --
-19.221 -19.210 -19.157 -19.151 -19.141 -19.139 -10.382 -10.343
-10.299 -10.248 -10.248  -1.200  -1.151  -1.145  -1.107  -1.050
 -0.900  -0.888  -0.846  -0.760  -0.656  -0.613  -0.596  -0.577
 -0.571  -0.551  -0.542  -0.530  -0.517  -0.498  -0.487  -0.479
 -0.473  -0.450  -0.446  -0.429  -0.421  -0.382  -0.356  -0.348
 -0.335  -0.331  -0.311  -0.279
 -- Virtual --
  0.060   0.071   0.078   0.082   0.094   0.101   0.104   0.115
  0.120   0.124   0.129   0.136   0.137   0.151   0.157   0.159
  0.162   0.173   0.177   0.179   0.185   0.190   0.192   0.203
  0.209   0.220   0.226   0.234   0.235   0.239   0.246   0.252
  0.256   0.265   0.269   0.278   0.287   0.289   0.293   0.306
  0.311   0.314   0.321   0.324   0.333   0.340   0.346   0.348
  0.350   0.363   0.366   0.368   0.369   0.374   0.380   0.389
  0.390   0.396   0.402   0.407   0.411   0.417   0.419   0.420
  0.429   0.434   0.440   0.441   0.445   0.461   0.463   0.468
  0.473   0.480   0.483   0.488   0.496   0.502   0.507   0.515
  0.518   0.523   0.527   0.530   0.539   0.543   0.552   0.553
  0.563   0.563   0.569   0.572   0.580   0.583   0.593   0.603
  0.609   0.617   0.627   0.629   0.633   0.634   0.642   0.650
  0.652   0.664   0.670   0.678   0.688   0.696   0.699   0.707
  0.714   0.724   0.732   0.737   0.740   0.744   0.753   0.759
  0.769   0.779   0.785   0.789   0.801   0.806   0.808   0.817
  0.819   0.823   0.828   0.832   0.839   0.847   0.851   0.858
  0.864   0.866   0.878   0.884   0.890   0.899   0.906   0.911
  0.921   0.923   0.927   0.935   0.950   0.968   0.984   0.989
  1.004   1.016   1.022   1.029   1.041   1.046   1.062   1.072
  1.078   1.087   1.106   1.128   1.141   1.159   1.164   1.173
  1.175   1.188   1.198   1.213   1.220   1.238   1.252   1.270
  1.272   1.282   1.295   1.309   1.334   1.345   1.351   1.366
  1.378   1.397   1.410   1.418   1.444   1.452   1.465   1.479
  1.490   1.500   1.514   1.530   1.536   1.559   1.599   1.610
  1.621   1.664   1.707   1.721   1.729   1.760   1.789   1.831
  1.846   1.890   1.912   1.925   1.929   1.942   1.948   1.952
  1.963   1.966   1.975   1.987   1.995   2.002   2.020   2.033
  2.042   2.052   2.063   2.078   2.088   2.117   2.131   2.149
  2.159   2.168   2.184   2.214   2.222   2.232   2.246   2.259
  2.277   2.286   2.299   2.313   2.336   2.356   2.365   2.377
  2.396   2.422   2.461   2.472   2.483   2.500   2.515   2.542
  2.551   2.568   2.589   2.602   2.616   2.619   2.643   2.659
  2.685   2.705   2.717   2.724   2.747   2.770   2.778   2.815
  2.828   2.849   2.882   2.912   2.922   2.935   2.945   2.970
  2.994   3.004   3.030   3.040   3.061   3.069   3.087   3.099
  3.129   3.142   3.155   3.181   3.188   3.231   3.258   3.265
  3.292   3.295   3.320   3.325   3.344   3.362   3.383   3.397
  3.409   3.424   3.436   3.449   3.453   3.461   3.481   3.505
  3.515   3.518   3.526   3.556   3.557   3.565   3.584   3.611
  3.622   3.635   3.655   3.668   3.683   3.687   3.690   3.715
  3.726   3.732   3.748   3.772   3.794   3.806   3.818   3.833
  3.853   3.904   3.968   3.985   4.016   4.046   4.076   4.103
  4.128   4.160   4.169   4.190   4.220   4.261   4.325   4.335
  4.348   4.392   4.511   4.616   4.629   4.664   4.702   4.729
  4.752   4.769   4.811   4.820   4.860   4.890   4.976   5.007
  5.049   5.075   5.117   5.170   5.206   5.225   5.292   5.324
  5.357   5.362   5.370   5.377   5.387   5.464   5.484   5.501
  5.510   5.551   5.579   5.618   5.667   5.691   5.711   5.726
  5.756   5.774   5.938   6.021   6.029   6.041   6.090   6.171
  6.246   6.251   6.309   6.332   6.339   6.406   6.490   6.591
  6.610   6.626   6.637   6.651   6.672   6.677   6.697   6.724
  6.748   6.758   6.774   6.793   6.836   6.878   6.910   6.960
  6.966   6.999   7.015   7.052   7.082   7.202   7.232   7.253
  7.280   7.307   7.363   7.406   7.412   7.412   7.423   7.542
  7.670   8.248  22.701  22.863  22.929  23.557  23.731  43.956
 44.267  44.419  44.481  44.491  44.716
 --------------------------------------------------------------
 
          Ground-State Mulliken Net Atomic Charges

     Atom                 Charge (a.u.)
  ----------------------------------------
      1 C                    -0.083441
      2 C                     0.067780
      3 O                    -0.707485
      4 O                    -0.691264
      5 C                    -0.197258
      6 H                     0.253913
      7 H                     0.175165
      8 O                    -0.267013
      9 H                     0.164116
     10 H                     0.239750
     11 C                     0.813181
     12 C                    -1.037316
     13 H                     0.261893
     14 H                     0.216898
     15 H                     0.221710
     16 O                    -0.639025
     17 O                    -0.653048
     18 O                    -0.452427
     19 H                     0.313870
  ----------------------------------------
  Sum of atomic charges =    -2.000000

[...]
 Red. Mass:       2.1149                 2.8187                 2.1925
 IR Active:          YES                    YES                    YES
 IR Intens:       18.239                 55.834                339.914
 Raman Active:       YES                    YES                    YES
               X      Y      Z        X      Y      Z        X      Y      Z
 C          0.139 -0.056 -0.100   -0.119 -0.203  0.030    0.008  0.004  0.008
 C         -0.130  0.074  0.106    0.006  0.009  0.016   -0.021  0.016  0.034
 O          0.020 -0.016 -0.021    0.014  0.001  0.014   -0.002 -0.011 -0.006
 O          0.025 -0.008 -0.024   -0.004  0.014 -0.017    0.006  0.009 -0.010
 C         -0.081  0.028  0.117    0.212  0.169  0.067    0.081 -0.035 -0.040
 H          0.219 -0.074  0.510   -0.334 -0.299 -0.069    0.218  0.081  0.170
 H         -0.275  0.240 -0.381   -0.385 -0.301 -0.167   -0.286 -0.157 -0.220
 O          0.024 -0.028 -0.069   -0.077  0.008 -0.106   -0.041  0.006 -0.053
 H          0.201  0.206 -0.210    0.339  0.228  0.124    0.083 -0.069  0.179
 H         -0.066 -0.404  0.092    0.214  0.218  0.058   -0.378  0.101 -0.400
 C         -0.013  0.009 -0.021   -0.016 -0.007 -0.027    0.019  0.009  0.281
 C          0.007  0.001  0.021   -0.004  0.032  0.055    0.017 -0.012 -0.076
 H          0.021 -0.009  0.000    0.004 -0.006 -0.090   -0.259  0.087 -0.022
 H          0.054 -0.036  0.052    0.165 -0.122  0.173   -0.353  0.166 -0.235
 H          0.004 -0.017  0.006   -0.045 -0.047 -0.079    0.016  0.110 -0.026
 O         -0.023  0.013  0.016    0.011 -0.003  0.004    0.020 -0.011 -0.046
 O          0.000  0.004  0.002   -0.001  0.001  0.003   -0.005  0.001 -0.007
 O          0.002 -0.000 -0.001    0.001 -0.000 -0.000    0.001  0.000  0.003
 H         -0.001  0.002  0.001   -0.004  0.004  0.003    0.056 -0.018 -0.032
 TransDip  -0.008  0.056  0.125    0.127  0.019  0.202    0.044  0.124  0.576

 Mode:                31                     32                     33
 Frequency:      1249.34                1277.64                1284.62
 Force Cnst:      1.4723                 1.0680                 1.4701
 Red. Mass:       1.6010                 1.1105                 1.5120
 IR Active:          YES                    YES                    YES
 IR Intens:      233.740                 63.755                 42.015
 Raman Active:       YES                    YES                    YES
               X      Y      Z        X      Y      Z        X      Y      Z
 C         -0.034  0.009 -0.000   -0.009 -0.003 -0.005   -0.118 -0.068 -0.106
 C         -0.047  0.017  0.017   -0.002 -0.001 -0.002   -0.017 -0.018 -0.037
 O          0.020  0.012  0.002    0.003  0.003  0.002    0.044  0.045  0.026
 O          0.003 -0.009 -0.002   -0.000 -0.001  0.001   -0.005 -0.014  0.008
 C          0.040 -0.073 -0.091   -0.002 -0.003 -0.001   -0.024 -0.019  0.028
 H          0.499  0.222  0.314    0.032  0.012  0.027    0.279  0.066  0.327
 H         -0.296 -0.181 -0.211    0.023  0.004  0.019    0.549  0.171  0.414
 O         -0.028  0.050  0.084    0.000  0.003  0.002   -0.003  0.018 -0.039
 H          0.174 -0.121  0.469    0.021  0.003  0.024    0.374  0.123  0.236
 H         -0.059  0.176 -0.145    0.026  0.006  0.022    0.134  0.009  0.145
 C         -0.009 -0.010 -0.133    0.000 -0.001 -0.014    0.007  0.004  0.053
 C         -0.011  0.008  0.034    0.001 -0.003  0.006    0.004 -0.004 -0.008
 H          0.122 -0.041  0.002   -0.019  0.001 -0.003   -0.051  0.013 -0.009
 H          0.163 -0.076  0.108    0.024 -0.003  0.009   -0.064  0.035 -0.041
 H         -0.012 -0.057  0.008   -0.002  0.018 -0.004   -0.003  0.030 -0.022
 O          0.016 -0.008  0.008   -0.001  0.001  0.003   -0.002  0.001 -0.007
 O          0.003 -0.005  0.003   -0.048  0.009 -0.028    0.003 -0.000  0.001
 O         -0.002  0.000 -0.002   -0.008 -0.005  0.057    0.001  0.001 -0.005
 H         -0.052  0.010  0.028    0.874 -0.054 -0.469   -0.065  0.001  0.035
 TransDip  -0.105 -0.190 -0.439    0.217 -0.035 -0.131   -0.072 -0.106  0.163

 Mode:                34                     35                     36
 Frequency:      1324.10                1391.02                1412.04
 Force Cnst:      1.1713                 1.5365                 1.9460
 Red. Mass:       1.1340                 1.3478                 1.6565
 IR Active:          YES                    YES                    YES
 IR Intens:       27.533                 53.187                128.678
 Raman Active:       YES                    YES                    YES
               X      Y      Z        X      Y      Z        X      Y      Z
 C          0.065 -0.018 -0.008   -0.025 -0.003 -0.030    0.030  0.001  0.043
 C          0.018 -0.000 -0.001   -0.011 -0.003 -0.014    0.067 -0.004  0.086
 O         -0.012 -0.010 -0.005    0.012  0.011  0.006   -0.047 -0.046 -0.025
 O         -0.001  0.003 -0.001   -0.000 -0.007  0.005    0.000  0.046 -0.032
 C         -0.032  0.012 -0.007    0.045  0.018  0.032   -0.100 -0.049 -0.070
 H         -0.336 -0.181 -0.215    0.023 -0.000  0.115    0.006  0.026 -0.213
 H          0.145  0.194  0.061    0.100 -0.040  0.067   -0.166  0.111 -0.108
 O         -0.021  0.024  0.043   -0.001 -0.008  0.007    0.005  0.010 -0.043
 H          0.458  0.156  0.374   -0.150 -0.027 -0.184    0.369  0.087  0.330
 H         -0.452 -0.188 -0.345   -0.235 -0.014 -0.190    0.499  0.109  0.406
 C          0.000 -0.005 -0.028   -0.020  0.011  0.041    0.013  0.008  0.077
 C         -0.004  0.003  0.004   -0.079  0.052 -0.112   -0.039  0.022 -0.070
 H          0.031 -0.009  0.000    0.376  0.024  0.406    0.124  0.041  0.244
 H          0.032 -0.014  0.019    0.268 -0.359  0.204    0.089 -0.192  0.091
 H         -0.001 -0.018  0.008    0.102 -0.214  0.430    0.044 -0.045  0.190
 O          0.007 -0.004 -0.001    0.027 -0.012 -0.009    0.002 -0.002 -0.008
 O         -0.001 -0.002 -0.000   -0.002  0.001 -0.001   -0.001  0.000 -0.001
 O         -0.001 -0.000  0.001    0.001 -0.001  0.001    0.001 -0.000 -0.000
 H          0.012  0.001 -0.006    0.024  0.006 -0.012    0.005  0.000 -0.002
 TransDip   0.031 -0.029 -0.163   -0.011 -0.007  0.233    0.146  0.028  0.332

 Mode:                37                     38                     39
 Frequency:      1434.03                1456.05                1458.13
 Force Cnst:      5.4606                 1.4686                 1.3566
 Red. Mass:       4.5068                 1.1757                 1.0829
 IR Active:          YES                    YES                    YES
 IR Intens:      282.269                 32.073                 11.181
 Raman Active:       YES                    YES                    YES
               X      Y      Z        X      Y      Z        X      Y      Z
 C         -0.106  0.035 -0.155   -0.055 -0.075  0.009   -0.016 -0.014 -0.006
 C          0.232 -0.072  0.321    0.030  0.005  0.034    0.011 -0.002  0.015
 O         -0.127 -0.122 -0.066   -0.015 -0.016 -0.007   -0.006 -0.006 -0.003
 O         -0.001  0.174 -0.121   -0.000  0.011 -0.009   -0.000  0.007 -0.005
 C          0.042  0.016  0.030    0.044  0.028  0.022    0.015  0.013  0.008
 H         -0.062 -0.019  0.499    0.431  0.216 -0.443    0.083  0.041 -0.065
 H          0.335 -0.354  0.163   -0.106  0.637 -0.007   -0.002  0.114  0.009
 O          0.010  0.004  0.039   -0.002 -0.002 -0.000   -0.000 -0.000  0.010
 H         -0.189 -0.067 -0.107   -0.186 -0.078  0.029   -0.081 -0.034  0.020
 H         -0.219 -0.094 -0.172   -0.073 -0.174 -0.078   -0.034 -0.086 -0.033
 C         -0.014 -0.006 -0.056    0.002 -0.004 -0.000   -0.011  0.011 -0.040
 C          0.010 -0.007  0.037   -0.010  0.003  0.009    0.054 -0.006 -0.014
 H          0.019 -0.054 -0.168    0.091 -0.055 -0.130   -0.326  0.211  0.516
 H          0.003  0.131 -0.060    0.047  0.107 -0.058   -0.299 -0.445  0.250
 H         -0.010 -0.042 -0.038    0.009 -0.084  0.057   -0.068  0.244 -0.344
 O          0.003  0.001  0.006   -0.004  0.002  0.001    0.012 -0.005  0.003
 O          0.000  0.000  0.001   -0.000  0.000 -0.000    0.001 -0.000  0.001
 O         -0.000 -0.000  0.000    0.000 -0.000  0.000   -0.001  0.000 -0.000
 H          0.002  0.002 -0.001    0.004  0.002 -0.002   -0.011 -0.007  0.005
 TransDip   0.316 -0.135  0.414    0.144  0.105  0.034   -0.104  0.023  0.012

 Mode:                40                     41                     42
 Frequency:      1470.22                1482.74                1588.23
 Force Cnst:      1.3363                 1.4402                15.4723
 Red. Mass:       1.0492                 1.1118                10.4107
 IR Active:          YES                    YES                    YES
 IR Intens:       11.950                 18.350               1287.596
 Raman Active:       YES                    YES                    YES
               X      Y      Z        X      Y      Z        X      Y      Z
 C         -0.003 -0.003 -0.002   -0.006 -0.014  0.007   -0.045 -0.048 -0.020
 C          0.002 -0.000  0.003    0.015  0.007  0.014    0.312  0.704 -0.116
 O         -0.001 -0.001 -0.001   -0.010 -0.010 -0.005   -0.178 -0.218 -0.061
 O         -0.000  0.001 -0.001   -0.001  0.004 -0.003   -0.041 -0.273  0.140
 C          0.004  0.002  0.003   -0.020 -0.070  0.038    0.001  0.017 -0.019
 H          0.015  0.007 -0.011    0.100  0.051 -0.104    0.102 -0.007  0.350
 H          0.001  0.022  0.003   -0.032  0.145 -0.007    0.177 -0.144  0.138
 O          0.001  0.001  0.002    0.002 -0.001  0.019    0.000 -0.003  0.002
 H         -0.013 -0.004 -0.005    0.357  0.209 -0.529   -0.031  0.004  0.040
 H         -0.015 -0.008 -0.012   -0.191  0.672 -0.062    0.034 -0.038 -0.009
 C         -0.022 -0.010 -0.008   -0.018  0.005 -0.021    0.009 -0.004  0.001
 C         -0.012 -0.048 -0.019    0.009 -0.003  0.009   -0.001  0.001 -0.001
 H         -0.428  0.082 -0.040   -0.023  0.005  0.007   -0.001  0.001  0.001
 H          0.533  0.043 -0.010   -0.025 -0.007  0.008    0.004 -0.002  0.001
 H          0.106  0.622  0.343   -0.005  0.010 -0.035   -0.001  0.002  0.000
 O          0.013 -0.003 -0.001    0.012 -0.004 -0.001   -0.005  0.002  0.001
 O          0.001 -0.002  0.001   -0.000 -0.001  0.000   -0.000  0.000  0.000
 O         -0.001  0.000 -0.001   -0.000 -0.000  0.000    0.000  0.000 -0.000
 H         -0.027 -0.011  0.012   -0.000  0.000  0.000    0.000 -0.000  0.000
 TransDip  -0.077  0.074  0.029   -0.012  0.114 -0.076    0.495  1.028 -0.136

 Mode:                43                     44                     45
 Frequency:      1657.60                3060.25                3065.24
 Force Cnst:     15.5994                 5.7594                 5.8741
 Red. Mass:       9.6360                 1.0438                 1.0611
 IR Active:          YES                    YES                    YES
 IR Intens:      685.130                 25.378                 31.051
 Raman Active:       YES                    YES                    YES
               X      Y      Z        X      Y      Z        X      Y      Z
 C         -0.010  0.007 -0.010    0.001  0.004 -0.003   -0.008 -0.057  0.038
 C          0.000 -0.009  0.010    0.000  0.000  0.000   -0.001 -0.001 -0.001
 O         -0.001 -0.000 -0.002   -0.000 -0.000 -0.000    0.000  0.000  0.000
 O         -0.000  0.005 -0.004   -0.000 -0.000 -0.000    0.000  0.000  0.000
 C          0.038 -0.027  0.020   -0.001 -0.001  0.001    0.003  0.004 -0.001
 H          0.024  0.018  0.025    0.024 -0.051 -0.007   -0.313  0.655  0.083
 H          0.000 -0.022 -0.010   -0.032 -0.001  0.042    0.408  0.016 -0.533
 O         -0.048  0.028 -0.011    0.000  0.000  0.000   -0.000 -0.000 -0.001
 H          0.031 -0.021 -0.151   -0.004  0.011  0.002    0.017 -0.036 -0.007
 H         -0.169  0.156 -0.131    0.009  0.000 -0.011   -0.030 -0.001  0.036
 C          0.640 -0.331 -0.017   -0.002  0.000 -0.002   -0.001  0.000  0.000
 C         -0.088  0.049 -0.058    0.011 -0.047  0.031    0.001 -0.004  0.002
 H         -0.069  0.095  0.123    0.229  0.784 -0.166    0.018  0.063 -0.013
 H          0.197 -0.227  0.125    0.033 -0.218 -0.308    0.003 -0.018 -0.026
 H         -0.089  0.191 -0.069   -0.369 -0.012  0.126   -0.030 -0.001  0.010
 O         -0.383  0.167  0.065    0.000 -0.000  0.000    0.000  0.000  0.000
 O         -0.001  0.023 -0.000    0.000 -0.000  0.000    0.000 -0.000 -0.000
 O          0.003 -0.000 -0.002   -0.000  0.000  0.000   -0.000  0.000  0.000
 H         -0.015 -0.015  0.009   -0.000  0.001 -0.000    0.000  0.000 -0.000
 TransDip   0.778 -0.228 -0.213   -0.004 -0.139  0.082   -0.031 -0.168  0.051

 Mode:                46                     47                     48
 Frequency:      3091.74                3107.16                3140.60
 Force Cnst:      6.0004                 6.2463                 6.3455
 Red. Mass:       1.0654                 1.0981                 1.0919
 IR Active:          YES                    YES                    YES
 IR Intens:       52.014                 26.174                 22.822
 Raman Active:       YES                    YES                    YES
               X      Y      Z        X      Y      Z        X      Y      Z
 C         -0.015  0.014  0.011    0.056 -0.044 -0.051    0.000 -0.000 -0.000
 C          0.000  0.001 -0.000    0.000 -0.000 -0.001    0.000 -0.000 -0.000
 O          0.000 -0.000  0.000   -0.000  0.000  0.000    0.000  0.000  0.000
 O         -0.000 -0.001  0.000   -0.000 -0.000 -0.000   -0.000  0.000  0.000
 C          0.031  0.036 -0.049   -0.001  0.021 -0.006    0.000 -0.000 -0.000
 H          0.088 -0.192 -0.018   -0.259  0.564  0.053   -0.001  0.001  0.000
 H          0.084  0.008 -0.115   -0.423 -0.038  0.568    0.000 -0.000 -0.000
 O         -0.001 -0.000 -0.002   -0.000  0.000 -0.000    0.000  0.000 -0.000
 H          0.182 -0.386 -0.080    0.117 -0.254 -0.047   -0.002  0.003  0.000
 H         -0.528 -0.036  0.679   -0.088 -0.005  0.110   -0.003 -0.000  0.003
 C         -0.001  0.001  0.002   -0.000  0.000  0.001   -0.000 -0.002  0.001
 C          0.000 -0.001  0.000    0.000 -0.000 -0.000   -0.059 -0.063 -0.012
 H          0.003  0.010 -0.002    0.001  0.003 -0.001    0.136  0.494 -0.109
 H         -0.000 -0.002 -0.004   -0.000 -0.000 -0.001   -0.057  0.289  0.448
 H         -0.008 -0.000  0.003   -0.002 -0.000  0.001    0.622 -0.009 -0.211
 O          0.000 -0.000  0.000    0.000 -0.000 -0.000    0.000  0.000 -0.000
 O          0.000 -0.000  0.000    0.000 -0.000  0.000   -0.000 -0.000  0.000
 O         -0.000 -0.000  0.000   -0.000 -0.000  0.000    0.000 -0.000 -0.000
 H          0.000  0.000 -0.000    0.000  0.000 -0.000    0.002  0.001  0.001
 TransDip   0.051  0.123 -0.189    0.104 -0.040 -0.120   -0.108 -0.102 -0.036

 Mode:                49                     50                     51
 Frequency:      3157.66                3179.44                3801.03
 Force Cnst:      6.4902                 6.5833                 9.0950
 Red. Mass:       1.1048                 1.1053                 1.0684
 IR Active:          YES                    YES                    YES
 IR Intens:       28.884                 22.348                 33.939
 Raman Active:       YES                    YES                    YES
               X      Y      Z        X      Y      Z        X      Y      Z
 C          0.011 -0.009 -0.010    0.000 -0.000 -0.000    0.000 -0.000  0.000
 C         -0.000 -0.000  0.000    0.000 -0.000  0.000   -0.000 -0.000 -0.000
 O          0.000  0.000 -0.000   -0.000 -0.000 -0.000    0.000  0.000  0.000
 O          0.000  0.000  0.000   -0.000  0.000 -0.000    0.000  0.000  0.000
 C          0.052 -0.063 -0.043    0.000 -0.001  0.000   -0.000 -0.000 -0.000
 H         -0.052  0.122  0.013   -0.000  0.001  0.000    0.000 -0.000  0.000
 H         -0.077 -0.007  0.100   -0.000 -0.000  0.000   -0.000 -0.000  0.000
 O         -0.000 -0.000  0.001   -0.000  0.000  0.000    0.000  0.000  0.000
 H         -0.340  0.775  0.140   -0.004  0.008  0.001   -0.000  0.000  0.000
 H         -0.290 -0.029  0.369   -0.001  0.000  0.001   -0.000 -0.000  0.000
 C          0.001 -0.001 -0.000    0.002 -0.001 -0.001   -0.000 -0.000 -0.000
 C         -0.000  0.001  0.001    0.054 -0.037 -0.067    0.000  0.000  0.000
 H         -0.001 -0.005  0.001    0.019  0.031 -0.018   -0.000 -0.000 -0.000
 H          0.001 -0.005 -0.007   -0.062  0.420  0.626    0.000 -0.001 -0.001
 H          0.002  0.000 -0.001   -0.614 -0.009  0.198   -0.001 -0.001  0.001
 O         -0.001  0.000 -0.000   -0.001  0.000  0.000    0.000  0.000 -0.000
 O         -0.000 -0.000 -0.000    0.000  0.000  0.000    0.001  0.000  0.001
 O         -0.000 -0.000 -0.000   -0.000  0.000 -0.000   -0.032  0.009 -0.054
 H         -0.000  0.000 -0.000   -0.000 -0.000  0.000    0.502 -0.138  0.851
 TransDip   0.109 -0.118 -0.061    0.085 -0.078 -0.098    0.131  0.008  0.133

 STANDARD THERMODYNAMIC QUANTITIES AT   298.15 K  AND     1.00 ATM

   This Molecule has  1 Imaginary Frequencies
   Zero point vibrational energy:       85.608 kcal/mol

   Atom    1 Element C  Has Mass   12.00000
   Atom    2 Element C  Has Mass   12.00000
   Atom    3 Element O  Has Mass   15.99491
   Atom    4 Element O  Has Mass   15.99491
   Atom    5 Element C  Has Mass   12.00000
   Atom    6 Element H  Has Mass    1.00783
   Atom    7 Element H  Has Mass    1.00783
   Atom    8 Element O  Has Mass   15.99491
   Atom    9 Element H  Has Mass    1.00783
   Atom   10 Element H  Has Mass    1.00783
   Atom   11 Element C  Has Mass   12.00000
   Atom   12 Element C  Has Mass   12.00000
   Atom   13 Element H  Has Mass    1.00783
   Atom   14 Element H  Has Mass    1.00783
   Atom   15 Element H  Has Mass    1.00783
   Atom   16 Element O  Has Mass   15.99491
   Atom   17 Element O  Has Mass   15.99491
   Atom   18 Element O  Has Mass   15.99491
   Atom   19 Element H  Has Mass    1.00783
   Molecular Mass:   164.032100 amu
   Principal axes and moments of inertia in amu*Bohr^2:
                             1           2           3
    Eigenvalues --      818.43214  3827.59298  4188.41864
          X               0.65177    -0.36226    -0.66630
          Y               0.33237    -0.65325     0.68029
          Z               0.68170     0.66486     0.30536
   Rotational Symmetry Number is   1
   The Molecule is an Asymmetric Top
   Translational Enthalpy:        0.889 kcal/mol
   Rotational Enthalpy:           0.889 kcal/mol
   Vibrational Enthalpy:         91.671 kcal/mol
   gas constant (RT):             0.592 kcal/mol
   Translational Entropy:        41.193  cal/mol.K
   Rotational Entropy:           30.951  cal/mol.K
   Vibrational Entropy:          42.777  cal/mol.K

   Total Enthalpy:               94.041 kcal/mol
   Total Entropy:               114.921  cal/mol.K
Archival summary:
1\1\c4-68\FREQ\ProcedureUnspecified\BasisUnspecified\658(2-,1)\lmgong\SatApr2104:55:372018SatApr2104:55:372018\0\\#,FREQ,ProcedureUnspecified,BasisUnspecified,\\-2,1\O\C,1,1.36164\O,2,1.23119,1,122.097\C,1,1.43555,2,116.965,3,19.3145,0\H,4,1.0901,1,109.405,2,28.1668,0\H,4,1.09281,1,105.52,2,144.852,0\C,2,1.50695,1,110.005,3,156.797,0\H,7,1.08969,2,109.501,1,166.693,0\H,7,1.09038,2,111.155,1,44.8078,0\H,7,1.09645,2,108.394,1,-74.5233,0\C,4,1.51855,1,111.127,2,-95.2941,0\H,11,1.09548,4,109.876,1,-53.9335,0\H,11,1.0956,4,109.842,1,63.1099,0\C,11,1.53646,4,114.12,1,-175.619,0\O,14,1.25771,11,117.961,4,-8.35617,0\O,14,1.25935,11,116.309,4,172.019,0\O,2,2.10129,1,98.1574,3,-104.89,0\O,17,1.45247,2,114.643,1,-48.0388,0\H,18,0.965263,17,102.794,2,-86.9158,0\\\@

 Total job time:  160204.75s(wall), 617971.33s(cpu) 
 Sat Apr 21 04:55:37 2018

        *************************************************************
        *                                                           *
        *  Thank you very much for using Q-Chem.  Have a nice day.  *
        *                                                           *
        *************************************************************


