
Running Job 1 of 1 qc-freq1.in
qchem qc-freq1.in_23085.0 /scratch/lmgong/1862641/qc-freq1.d/ 1
/home/leeping/opt/qchem/5.0.2-openmp/exe/qcprog.exe_s qc-freq1.in_23085.0 /scratch/lmgong/1862641/qc-freq1.d/
Check license passed

                  Welcome to Q-Chem
     A Quantum Leap Into The Future Of Chemistry


 Q-Chem 5.0, Q-Chem, Inc., Pleasanton, CA (2017)

 Yihan Shao,  Zhengting Gan,  E. Epifanovsky,  A. T. B. Gilbert,  M. Wormit,  
 J. Kussmann,  A. W. Lange,  A. Behn,  Jia Deng,  Xintian Feng,  D. Ghosh,  
 M. Goldey,  P. R. Horn,  L. D. Jacobson,  I. Kaliman,  T. Kus,  A. Landau,  
 Jie Liu,  E. I. Proynov,  R. M. Richard,  R. P. Steele,  E. J. Sundstrom,  
 H. L. Woodcock III,  P. M. Zimmerman,  D. Zuev,  B. Albrecht,  E. Alguire,  
 S. A. Baeppler,  D. Barton,  Z. Benda,  Y. A. Bernard,  E. J. Berquist,  
 K. B. Bravaya,  H. Burton,  D. Casanova,  Chun-Min Chang,  Yunqing Chen,  
 A. Chien,  K. D. Closser,  M. P. Coons,  S. Dasgupta,  A. L. Dempwolff,  
 M. Diedenhofen,  Hainam Do,  R. G. Edgar,  Po-Tung Fang,  S. Fatehi,  
 Qingguo Feng,  J. Fosso-Tande,  Qinghui Ge,  A. Ghysels,  G. Gidofalvi,  
 J. Gomes,  J. Gonthier,  A. Gunina,  M. W. D. Hanson-Heine,  
 P. H. P. Harbach,  A. W. Hauser,  J. E. Herr,  E. G. Hohenstein,  
 Z. C. Holden,  Kerwin Hui,  T.-C. Jagau,  Hyunjun Ji,  B. Kaduk,  
 K. Khistyaev,  Jaehoon Kim,  P. Klunzinger,  K. Koh,  D. Kosenkov,  
 L. Koulias,  T. Kowalczyk,  C. M. Krauter,  A. Kunitsa,  Ka Un Lao,  
 A. Laurent,  K. V. Lawler,  Joonho Lee,  D. Lefrancois,  S. Lehtola,  
 D. S. Levine,  Yi-Pei Li,  You-Sheng Lin,  Fenglai Liu,  E. Livshits,  
 A. Luenser,  P. Manohar,  E. Mansoor,  S. F. Manzer,  Shan-Ping Mao,  
 Yuezhi Mao,  N. Mardirossian,  A. V. Marenich,  T. Markovich,  
 L. A. Martinez-Martinez,  S. A. Maurer,  N. J. Mayhall,  S. C. McKenzie,  
 J.-M. Mewes,  A. F. Morrison,  J. W. Mullinax,  K. Nanda,  
 T. S. Nguyen-Beck,  R. Olivares-Amaya,  J. A. Parkhill,  T. M. Perrine,  
 F. Plasser,  S. Prager,  A. Prociuk,  E. Ramos,  D. R. Rehn,  F. Rob,  
 M. Schneider,  N. Sergueev,  S. M. Sharada,  S. Sharma,  D. W. Small,  
 T. Stauch,  T. Stein,  Yu-Chuan Su,  A. J. W. Thom,  A. Tkatchenko,  
 T. Tsuchimochi,  L. Vogt,  O. Vydrov,  M. A. Watson,  J. Wenzel,  
 M. de Wergifosse,  T. A. Wesolowski,  A. White,  J. Witte,  A. Yamada,  
 Jun Yang,  K. Yao,  S. Yeganeh,  S. R. Yost,  Zhi-Qiang You,  A. Zech,  
 Igor Ying Zhang,  Xing Zhang,  Yan Zhao,  Ying Zhu,  B. R. Brooks,  
 G. K. L. Chan,  C. J. Cramer,  M. S. Gordon,  W. J. Hehre,  A. Klamt,  
 M. W. Schmidt,  C. D. Sherrill,  D. G. Truhlar,  A. Aspuru-Guzik,  R. Baer,  
 A. T. Bell,  N. A. Besley,  Jeng-Da Chai,  R. A. DiStasio Jr.,  A. Dreuw,  
 B. D. Dunietz,  T. R. Furlani,  Chao-Ping Hsu,  Yousung Jung,  Jing Kong,  
 D. S. Lambrecht,  WanZhen Liang,  C. Ochsenfeld,  V. A. Rassolov,  
 L. V. Slipchenko,  J. E. Subotnik,  T. Van Voorhis,  J. M. Herbert,  
 A. I. Krylov,  P. M. W. Gill,  M. Head-Gordon

 Contributors to earlier versions of Q-Chem not listed above: 
 R. D. Adamson,  B. Austin,  J. Baker,  G. J. O. Beran,  K. Brandhorst,  
 S. T. Brown,  E. F. C. Byrd,  A. K. Chakraborty,  C.-L. Cheng,  
 Siu Hung Chien,  D. M. Chipman,  D. L. Crittenden,  H. Dachsel,  
 R. J. Doerksen,  A. D. Dutoi,  L. Fusti-Molnar,  W. A. Goddard III,  
 A. Golubeva-Zadorozhnaya,  S. R. Gwaltney,  G. Hawkins,  A. Heyden,  
 S. Hirata,  G. Kedziora,  F. J. Keil,  C. Kelley,  Jihan Kim,  R. A. King,  
 R. Z. Khaliullin,  P. P. Korambath,  W. Kurlancheek,  A. M. Lee,  M. S. Lee,  
 S. V. Levchenko,  Ching Yeh Lin,  D. Liotard,  R. C. Lochan,  I. Lotan,  
 P. E. Maslen,  N. Nair,  D. P. O'Neill,  D. Neuhauser,  E. Neuscamman,  
 C. M. Oana,  R. Olson,  B. Peters,  R. Peverati,  P. A. Pieniazek,  
 Y. M. Rhee,  J. Ritchie,  M. A. Rohrdanz,  E. Rosta,  N. J. Russ,  
 H. F. Schaefer III,  N. E. Schultz,  N. Shenvi,  A. C. Simmonett,  A. Sodt,  
 D. Stuck,  K. S. Thanthiriwatte,  V. Vanovschi,  Tao Wang,  A. Warshel,  
 C. F. Williams,  Q. Wu,  X. Xu,  W. Zhang

 Please cite Q-Chem as follows:
 Y. Shao et al., Mol. Phys. 113, 184-215 (2015)
 DOI: 10.1080/00268976.2014.952696

 Q-Chem 5.0.2 for Intel X86 EM64T Linux

 Parts of Q-Chem use Armadillo 5.200.1 (Boston Tea Smuggler).
 http://arma.sourceforge.net/

 Q-Chem begins on Fri Mar 20 11:54:01 2020  

Host: 
0

     Scratch files written to /scratch/lmgong/1862641/qc-freq1.d//
 Dec517 15110_ 26548  26544 5633   
Processing $rem in /home/leeping/opt/qchem/5.0.2-openmp/config/preferences.
 MEM_STATIC 2000
 MEM_TOTAL  8000
 SYMMETRY   OFF
 SYM_IGNORE TRUE 
Symmetry turned off for PCM/SM12/SMD calculation

Checking the input file for inconsistencies... 	...done.

--------------------------------------------------------------
User input:
--------------------------------------------------------------
$molecule
-2 1
C       -1.5667699201    1.6699070658    1.0823751939
O       -2.4791137511    2.1460642168    1.7265371188
C       -0.9941201782    2.3170294822   -0.1474461410
H       -1.4832747629    3.2774229451   -0.2989794578
H        0.0844352865    2.4592155723   -0.0432756004
H       -1.1647442935    1.6759825439   -1.0170213742
C        0.0451529684   -0.1165570373    0.7725080300
H       -0.2261658558   -0.2251044109   -0.2794509673
H        0.9284401679    0.5211444238    0.8527572616
C        0.2795795670   -1.4666996395    1.4126362593
H       -0.6304017744   -2.0728268166    1.3443700679
H        0.4994836728   -1.3438427522    2.4783986951
C        1.4323957398   -2.2577974202    0.7729684103
O        2.0516353875   -1.7273512705   -0.1839680306
O        1.6649461288   -3.3896128466    1.2691068958
O       -1.0515090280    0.5042719290    1.4904416126
O       -3.2810527778   -0.9906489985   -0.7115905710
H       -2.7970833773   -0.7946228960    0.0972626283
$end

$rem
jobtype               freq
method                wb97x-v
basis                 def2-tzvpd
symmetry              off
sym_ignore            true
unrestricted          false
incdft                false
incfock               0
!scf_algorithm        diis_gdm
scf_convergence       8
thresh                14
!purecart             112
max_scf_cycles        1000
geom_opt_max_cycles   500
geom_opt_dmax         100
geom_opt_tol_gradient 10
solvent_method        pcm
ideriv                1
rpath_tol_displacement 1000
rpath_max_cycles      100
rpath_direction       1
!scf_guess            read
scf_guess             read
$end

$pcm
theory              cosmo
method              iswig
Radii               bondi
vdwScale            1.20
hpoints             110
heavypoints         110
$end

$solvent
dielectric 78.400000
$end

--------------------------------------------------------------
 ----------------------------------------------------------------
             Standard Nuclear Orientation (Angstroms)
    I     Atom           X                Y                Z
 ----------------------------------------------------------------
    1      C      -1.5667699201     1.6699070658     1.0823751939
    2      O      -2.4791137511     2.1460642168     1.7265371188
    3      C      -0.9941201782     2.3170294822    -0.1474461410
    4      H      -1.4832747629     3.2774229451    -0.2989794578
    5      H       0.0844352865     2.4592155723    -0.0432756004
    6      H      -1.1647442935     1.6759825439    -1.0170213742
    7      C       0.0451529684    -0.1165570373     0.7725080300
    8      H      -0.2261658558    -0.2251044109    -0.2794509673
    9      H       0.9284401679     0.5211444238     0.8527572616
   10      C       0.2795795670    -1.4666996395     1.4126362593
   11      H      -0.6304017744    -2.0728268166     1.3443700679
   12      H       0.4994836728    -1.3438427522     2.4783986951
   13      C       1.4323957398    -2.2577974202     0.7729684103
   14      O       2.0516353875    -1.7273512705    -0.1839680306
   15      O       1.6649461288    -3.3896128466     1.2691068958
   16      O      -1.0515090280     0.5042719290     1.4904416126
   17      O      -3.2810527778    -0.9906489985    -0.7115905710
   18      H      -2.7970833773    -0.7946228960     0.0972626283
 ----------------------------------------------------------------
 Nuclear Repulsion Energy =   515.2478982735 hartrees
 There are       40 alpha and       40 beta electrons
 Requested basis set is def2-TZVPD
 There are 175 shells and 457 basis functions

 Total QAlloc Memory Limit   8000 MB
 Mega-Array Size      1956 MB
 MEM_STATIC part      2000 MB
 Discretize the solute cavity surface with Lebedev spheres
	Using 110 Lebedev grid points for each H atom
	Using 110 Lebedev grid points for other atoms
	Atomic van der Waals radii will be scaled by 1.20
 Remove points where switching function is < 1.0e-08
 Keep 1134 surface tesserae and discard 846 interior tesserae
 Molecular Surface Area = 208.881 Angst**2
 A cutoff of  1.0D-14 yielded  13826 shell pairs
 There are     93874 function pairs (    119097 Cartesian)
 
 -------------------------------------------------------
 OpenMP Integral Computing Module                       
 Release: version 1.0, May 2013, Q-Chem Inc. Pittsburgh 
 -------------------------------------------------------
 Integral Job Info:
 Integral job number is                      11
 Integral operator is                         1
 short-range coefficients              16700000
 long-range coefficients              100000000
 Omega coefficients                         300
 if combine SR and LR in K                    1
 Integral screening is                        0
 Integral computing path is                   2
 max size of driver memory is            800000
 size of driver memory is                776718
 size of scratch memory is              4473992
 max col of scratch BK array              10000
 max len of scratch array in speh3          662
 max len of scratch index in speh4           32
 max int batch size is                      520
 min int batch size is                       52
 fixed nKL is                                52
 max L of basis functions is                  3
 order of int derivative is                   0
 number of shells is                        175
 number of basis is                         517
 number of cartesian basis is               517
 number of contracted shell pairs         13826
 number of primitive shell pairs          27833
 maxK2 (contraction) of shell pair           36
 max number of K2 of shell pair               1
 max number of CS2 of shell pair           2308
 max number of PS2 of shell pair           3198
 mem total for path MDJ                  765760
 -------------------------------------------------------
 Smallest overlap matrix eigenvalue = 3.36E-06
 Guess MOs from SCF MO coefficient file
 Reading MOs from coefficient file
 Reading MOs from coefficient file
 Long-range K will be added via erf
 Coulomb attenuation parameter = 0.3 bohr**(-1)
 A restricted hybrid HF-DFT SCF calculation will be
 performed using Pulay DIIS extrapolation
 Polarizable Continuum solvation model will be applied
 Exchange:     0.1670 Hartree-Fock + 1.0000 wB97X-V + LR-HF
 Correlation:  1.0000 wB97X-V
 Using SG-2 standard quadrature grid
 Nonlocal Correlation:  VV10 with C = 0.0100 and b = 6.00
 Grid used for NLC:  SG-1 standard quadrature
 SCF converges when DIIS error is below 1.0E-08
Using Q-Chem read-in guess as SCF_GUESS READ specified.

 using 16 threads for integral computing
 -------------------------------------------------------
 OpenMP Integral computing Module                
 Release: version 1.0, May 2013, Q-Chem Inc. Pittsburgh 
 -------------------------------------------------------
 using 16 threads for integral computing
 -------------------------------------------------------
 OpenMP Integral computing Module                
 Release: version 1.0, May 2013, Q-Chem Inc. Pittsburgh 
 -------------------------------------------------------
 -------------------------------------------------------
 OpenMP BLAS3 based DFT computing Module                
 Release: version 1.0, May 2013, Q-Chem Inc. Pittsburgh 
 -------------------------------------------------------
 -------------------------------------------------------
 OpenMP BLAS3 based DFT computing Module                
 Release: version 1.0, May 2013, Q-Chem Inc. Pittsburgh 
 -------------------------------------------------------
 -------------------------------------------------------
 OpenMP BLAS3 based DFT computing Module                
 Release: version 1.0, May 2013, Q-Chem Inc. Pittsburgh 
 -------------------------------------------------------
 ---------------------------------------
  Cycle       Energy         DIIS Error
 ---------------------------------------
    1    -571.4787876947      4.32E-04
    2    -571.7974723206      4.99E-04
    3    -571.8059354343      2.31E-04
    4    -571.8072894279      1.63E-04
    5    -571.8081771054      1.21E-04
    6    -571.8086156407      9.49E-05
    7    -571.8088998188      7.28E-05
    8    -571.8090975459      5.22E-05
    9    -571.8091869145      3.94E-05
   10    -571.8092460572      2.79E-05
   11    -571.8092678319      2.22E-05
   12    -571.8092830738      1.72E-05
   13    -571.8092911101      1.37E-05
   14    -571.8092969132      1.06E-05
   15    -571.8092998223      8.62E-06
   16    -571.8093022750      6.48E-06
   17    -571.8093054720      5.46E-09 Convergence criterion met
 ---------------------------------------

************** Final PCM Free Energy Summary **************
 G_electrostatic  =      -0.33051926 hartree =    -207.40396738 kcal/mol
 G_cavitation     =       0.00000000 hartree =       0.00000000 kcal/mol
 G_dispersion     =       0.00000000 hartree =       0.00000000 kcal/mol
 G_repulsion      =       0.00000000 hartree =       0.00000000 kcal/mol
 --------------------------------------------------
 Non-electrostatic Free Energy =       0.00000000 hartree =       0.00000000 kcal/mol
 Total                         =      -0.33051926 hartree =    -207.40396738 kcal/mol
 --------------------------------------------------
 SCF Energy (H0 + V/2)                       =    -571.80930547 
 Solute Internal Energy (H0)                 =    -571.47878621 
 Total Free Energy (H0 + V/2 + non-elec)     =    -571.80930547 hartree
                                             = -358815.75478963 kcal/mol
***********************************************************

 SCF time:  CPU 4004.51 s  wall 288.64 s
 SCF   energy in the final basis set = -571.80930547
 Total energy in the final basis set = -571.80930547
 
 --------------------------------------------------------------
 
                    Orbital Energies (a.u.)
 --------------------------------------------------------------
 
 Alpha MOs
 -- Occupied --
-19.255 -19.197 -19.144 -19.141 -19.092 -10.405 -10.347 -10.318
-10.271 -10.257  -1.236  -1.149  -1.147  -1.054  -0.965  -0.904
 -0.876  -0.777  -0.685  -0.620  -0.618  -0.606  -0.580  -0.562
 -0.535  -0.527  -0.511  -0.509  -0.488  -0.483  -0.451  -0.447
 -0.444  -0.401  -0.389  -0.350  -0.340  -0.336  -0.312  -0.312
 -- Virtual --
  0.058   0.071   0.080   0.085   0.096   0.097   0.102   0.110
  0.115   0.127   0.128   0.132   0.139   0.143   0.152   0.156
  0.162   0.170   0.178   0.179   0.190   0.203   0.206   0.214
  0.216   0.224   0.235   0.236   0.241   0.246   0.255   0.262
  0.265   0.274   0.279   0.290   0.294   0.304   0.309   0.316
  0.323   0.330   0.331   0.337   0.346   0.350   0.353   0.360
  0.361   0.370   0.376   0.379   0.386   0.393   0.398   0.410
  0.412   0.416   0.420   0.421   0.435   0.442   0.446   0.452
  0.462   0.466   0.471   0.473   0.475   0.480   0.485   0.489
  0.491   0.498   0.505   0.512   0.524   0.526   0.532   0.543
  0.545   0.551   0.557   0.563   0.566   0.571   0.575   0.578
  0.587   0.597   0.601   0.608   0.617   0.628   0.628   0.636
  0.639   0.645   0.648   0.662   0.667   0.670   0.679   0.684
  0.688   0.692   0.698   0.702   0.714   0.727   0.732   0.736
  0.748   0.749   0.752   0.767   0.770   0.776   0.782   0.791
  0.801   0.802   0.809   0.823   0.825   0.838   0.843   0.844
  0.856   0.862   0.867   0.873   0.876   0.883   0.902   0.908
  0.913   0.933   0.941   0.945   0.963   0.971   0.996   0.998
  1.014   1.024   1.028   1.040   1.066   1.067   1.073   1.086
  1.102   1.107   1.116   1.144   1.153   1.159   1.184   1.189
  1.204   1.208   1.221   1.248   1.254   1.259   1.272   1.295
  1.297   1.308   1.331   1.352   1.361   1.377   1.396   1.407
  1.415   1.423   1.440   1.446   1.457   1.476   1.494   1.508
  1.549   1.603   1.640   1.695   1.710   1.737   1.775   1.786
  1.797   1.819   1.837   1.859   1.898   1.909   1.923   1.927
  1.931   1.939   1.950   1.958   1.973   1.977   1.988   2.000
  2.003   2.014   2.030   2.037   2.054   2.061   2.083   2.106
  2.142   2.163   2.177   2.195   2.220   2.235   2.246   2.266
  2.272   2.293   2.298   2.317   2.347   2.353   2.362   2.397
  2.418   2.450   2.466   2.478   2.485   2.494   2.515   2.529
  2.552   2.569   2.585   2.599   2.613   2.637   2.689   2.700
  2.723   2.733   2.757   2.763   2.797   2.805   2.833   2.864
  2.888   2.898   2.908   2.941   2.951   2.958   2.972   2.994
  3.016   3.027   3.042   3.078   3.086   3.123   3.135   3.178
  3.196   3.207   3.226   3.242   3.246   3.253   3.298   3.306
  3.321   3.328   3.347   3.363   3.363   3.384   3.390   3.430
  3.444   3.453   3.467   3.483   3.502   3.508   3.539   3.542
  3.552   3.559   3.572   3.585   3.609   3.623   3.641   3.647
  3.659   3.681   3.693   3.698   3.705   3.729   3.736   3.752
  3.767   3.780   3.811   3.862   3.889   3.937   3.985   4.007
  4.072   4.081   4.088   4.109   4.133   4.168   4.203   4.258
  4.333   4.352   4.463   4.527   4.554   4.595   4.625   4.658
  4.685   4.710   4.802   4.812   4.820   4.851   4.878   5.023
  5.078   5.131   5.250   5.298   5.322   5.343   5.351   5.352
  5.359   5.371   5.375   5.376   5.384   5.402   5.505   5.563
  5.605   5.678   5.686   5.706   5.728   5.729   5.776   5.971
  6.011   6.071   6.092   6.252   6.273   6.311   6.320   6.331
  6.442   6.504   6.619   6.624   6.631   6.639   6.643   6.646
  6.695   6.725   6.732   6.738   6.748   6.773   6.815   6.955
  6.962   6.990   7.002   7.048   7.059   7.078   7.246   7.257
  7.287   7.341   7.366   7.414   7.417   7.497   7.673  22.699
 22.857  22.882  23.645  23.743  43.966  44.266  44.435  44.456
 44.672
 --------------------------------------------------------------
 
          Ground-State Mulliken Net Atomic Charges

     Atom                 Charge (a.u.)
  ----------------------------------------
      1 C                     0.466146
      2 O                    -0.550079
      3 C                    -0.651602
      4 H                     0.215242
      5 H                     0.293713
      6 H                     0.274367
      7 C                    -0.218258
      8 H                     0.231861
      9 H                     0.315872
     10 C                    -0.254642
     11 H                     0.241180
     12 H                     0.261494
     13 C                     0.047165
     14 O                    -0.690691
     15 O                    -0.702432
     16 O                    -0.269190
     17 O                    -1.095337
     18 H                     0.085191
  ----------------------------------------
  Sum of atomic charges =    -2.000000

 -----------------------------------------------------------------
                    Cartesian Multipole Moments
 -----------------------------------------------------------------
    Charge (ESU x 10^10)
                -9.6064
    Dipole Moment (Debye)
         X      11.0997      Y      16.4203      Z      -1.3795
       Tot      19.8679
    Quadrupole Moments (Debye-Ang)
        XX    -154.1649     XY      18.2913     YY    -113.8773
        XZ      -5.2511     YZ      -1.8406     ZZ     -79.8264
    Octopole Moments (Debye-Ang^2)
       XXX     280.6587    XXY     107.1891    XYY      -8.3416
       YYY     213.3801    XXZ     -28.9513    XYZ      52.2918
       YYZ     -96.7993    XZZ      55.2586    YZZ      29.4207
       ZZZ    -145.7554
    Hexadecapole Moments (Debye-Ang^3)
      XXXX   -2250.5498   XXXY     333.1263   XXYY    -751.5319
      XYYY     614.3048   YYYY   -1965.7338   XXXZ     -74.3683
      XXYZ     -56.6822   XYYZ     -37.1397   YYYZ     161.1024
      XXZZ    -410.7605   XYZZ     175.2519   YYZZ    -430.8928
      XZZZ      34.6835   YZZZ      33.7408   ZZZZ    -560.4743
 -----------------------------------------------------------------
 Calculating analytic gradient of the SCF energy
 Gradient of SCF Energy
            1           2           3           4           5           6
    1  -0.0467940   0.0462462   0.0146926   0.0292615  -0.0560081   0.0105447
    2  -0.0117030  -0.0273616   0.0321051  -0.0602206  -0.0036928   0.0480406
    3   0.0584261  -0.0428765  -0.0522637   0.0120505  -0.0065881   0.0536613
            7           8           9          10          11          12
    1   0.0740838   0.0221822  -0.0361231  -0.0694986   0.0542005  -0.0170891
    2  -0.0516090   0.0080051  -0.0216148   0.0218353   0.0393680  -0.0080772
    3  -0.0510647   0.0712292  -0.0046434   0.0079613   0.0141484  -0.0518610
           13          14          15          16          17          18
    1   0.0271894  -0.0316215  -0.0187363   0.0013624   0.0538559  -0.0577483
    2  -0.0243689  -0.0222694   0.0491128   0.0356204   0.0209257  -0.0240956
    3  -0.0138077   0.0391274  -0.0176576  -0.0139525   0.0502969  -0.0521859
 Max gradient component =       7.408E-02
 RMS gradient           =       3.860E-02
 Computing fast CPCM-ISWIG gradient
 Updating gradient with PCM contributions...
 -- total gradient after adding PCM contribution --
---------------------------------------------------
  Atom         X              Y              Z     
---------------------------------------------------
   1       0.000002      -0.000001      -0.000001
   2       0.000001       0.000000       0.000002
   3       0.000003      -0.000005      -0.000000
   4      -0.000001      -0.000000       0.000000
   5       0.000000       0.000001      -0.000003
   6      -0.000000       0.000001      -0.000001
   7      -0.000002       0.000006       0.000001
   8       0.000000       0.000001       0.000001
   9      -0.000001      -0.000003      -0.000002
  10       0.000005      -0.000005      -0.000002
  11      -0.000001       0.000002       0.000002
  12      -0.000002       0.000002      -0.000000
  13      -0.000006      -0.000001       0.000002
  14       0.000001       0.000002      -0.000002
  15       0.000003      -0.000001      -0.000001
  16      -0.000001       0.000002       0.000001
  17      -0.000001      -0.000003       0.000005
  18       0.000000       0.000000      -0.000000
---------------------------------------------------
 Number of fixed atoms: 0
 Gradient time:  CPU 800.44 s  wall 58.83 s
 ######################################################
 ######################################################
 # Starting finite difference calculation for IDERIV  #
 Finite diff step size:  1.88973e-03 a.u.
 ----------------------------------------------------------------
             Standard Nuclear Orientation (Angstroms)
    I     Atom           X                Y                Z
 ----------------------------------------------------------------
    1      C      -1.5657699201     1.6699070658     1.0823751939
    2      O      -2.4791137511     2.1460642168     1.7265371188
    3      C      -0.9941201782     2.3170294822    -0.1474461410
    4      H      -1.4832747629     3.2774229451    -0.2989794578
    5      H       0.0844352865     2.4592155723    -0.0432756004
    6      H      -1.1647442935     1.6759825439    -1.0170213742
    7      C       0.0451529684    -0.1165570373     0.7725080300
    8      H      -0.2261658558    -0.2251044109    -0.2794509673
    9      H       0.9284401679     0.5211444238     0.8527572616
   10      C       0.2795795670    -1.4666996395     1.4126362593
   11      H      -0.6304017744    -2.0728268166     1.3443700679
   12      H       0.4994836728    -1.3438427522     2.4783986951
   13      C       1.4323957398    -2.2577974202     0.7729684103
   14      O       2.0516353875    -1.7273512705    -0.1839680306
   15      O       1.6649461288    -3.3896128466     1.2691068958
   16      O      -1.0515090280     0.5042719290     1.4904416126
   17      O      -3.2810527778    -0.9906489985    -0.7115905710
   18      H      -2.7970833773    -0.7946228960     0.0972626283
 ----------------------------------------------------------------
 Nuclear Repulsion Energy =   515.2484128137 hartrees
 There are       40 alpha and       40 beta electrons
 Discretize the solute cavity surface with Lebedev spheres
	Using 110 Lebedev grid points for each H atom
	Using 110 Lebedev grid points for other atoms
	Atomic van der Waals radii will be scaled by 1.20
 Remove points where switching function is < 1.0e-08
 Keep 1134 surface tesserae and discard 846 interior tesserae
 Molecular Surface Area = 208.886 Angst**2
 Requested basis set is def2-TZVPD
 There are 175 shells and 457 basis functions
 A cutoff of  1.0D-14 yielded  13826 shell pairs
 There are     93874 function pairs (    119097 Cartesian)
 Smallest overlap matrix eigenvalue = 3.36E-06
 Guess MOs from SCF MO coefficient file
 Reading MOs from coefficient file
 Reading MOs from coefficient file
 Long-range K will be added via erf
 Coulomb attenuation parameter = 0.3 bohr**(-1)
 A restricted hybrid HF-DFT SCF calculation will be
 performed using Pulay DIIS extrapolation
 Polarizable Continuum solvation model will be applied
 Exchange:     0.1670 Hartree-Fock + 1.0000 wB97X-V + LR-HF
 Correlation:  1.0000 wB97X-V
 Using SG-2 standard quadrature grid
 Nonlocal Correlation:  VV10 with C = 0.0100 and b = 6.00
 Grid used for NLC:  SG-1 standard quadrature
 SCF converges when DIIS error is below 1.0E-08
Using Q-Chem read-in guess as SCF_GUESS READ specified.

 using 16 threads for integral computing
 -------------------------------------------------------
 OpenMP Integral computing Module                
 Release: version 1.0, May 2013, Q-Chem Inc. Pittsburgh 
 -------------------------------------------------------
 using 16 threads for integral computing
 -------------------------------------------------------
 OpenMP Integral computing Module                
 Release: version 1.0, May 2013, Q-Chem Inc. Pittsburgh 
 -------------------------------------------------------
 -------------------------------------------------------
 OpenMP BLAS3 based DFT computing Module                
 Release: version 1.0, May 2013, Q-Chem Inc. Pittsburgh 
 -------------------------------------------------------
 -------------------------------------------------------
 OpenMP BLAS3 based DFT computing Module                
 Release: version 1.0, May 2013, Q-Chem Inc. Pittsburgh 
 -------------------------------------------------------
 -------------------------------------------------------
 OpenMP BLAS3 based DFT computing Module                
 Release: version 1.0, May 2013, Q-Chem Inc. Pittsburgh 
 -------------------------------------------------------
 ---------------------------------------
  Cycle       Energy         DIIS Error
 ---------------------------------------
    1    -571.4783320448      4.32E-04
    2    -571.7974786381      4.99E-04
    3    -571.8059364232      2.31E-04
    4    -571.8072900416      1.63E-04
    5    -571.8081833451      1.21E-04
    6    -571.8086465397      9.26E-05
    7    -571.8089595384      6.71E-05
    8    -571.8091813940      4.01E-05
    9    -571.8092726690      2.04E-05
   10    -571.8093025281      4.90E-06
   11    -571.8093041212      1.70E-06
   12    -571.8093043318      2.81E-07
   13    -571.8093043374      5.04E-08
   14    -571.8093043376      1.25E-08
   15    -571.8093043376      4.41E-09 Convergence criterion met
 ---------------------------------------

************** Final PCM Free Energy Summary **************
 G_electrostatic  =      -0.33054279 hartree =    -207.41872986 kcal/mol
 G_cavitation     =       0.00000000 hartree =       0.00000000 kcal/mol
 G_dispersion     =       0.00000000 hartree =       0.00000000 kcal/mol
 G_repulsion      =       0.00000000 hartree =       0.00000000 kcal/mol
 --------------------------------------------------
 Non-electrostatic Free Energy =       0.00000000 hartree =       0.00000000 kcal/mol
 Total                         =      -0.33054279 hartree =    -207.41872986 kcal/mol
 --------------------------------------------------
 SCF Energy (H0 + V/2)                       =    -571.80930434 
 Solute Internal Energy (H0)                 =    -571.47876155 
 Total Free Energy (H0 + V/2 + non-elec)     =    -571.80930434 hartree
                                             = -358815.75407777 kcal/mol
***********************************************************

 SCF time:  CPU 3656.83 s  wall 262.26 s
 SCF   energy in the final basis set = -571.80930434
 Total energy in the final basis set = -571.80930434
 
 --------------------------------------------------------------
 
                    Orbital Energies (a.u.)
 --------------------------------------------------------------
 
 Alpha MOs
 -- Occupied --
-19.256 -19.197 -19.144 -19.141 -19.092 -10.405 -10.347 -10.318
-10.271 -10.257  -1.236  -1.149  -1.146  -1.054  -0.965  -0.904
 -0.876  -0.777  -0.685  -0.620  -0.618  -0.606  -0.580  -0.562
 -0.535  -0.527  -0.511  -0.509  -0.488  -0.483  -0.451  -0.447
 -0.444  -0.401  -0.388  -0.350  -0.340  -0.336  -0.312  -0.312
 -- Virtual --
  0.058   0.071   0.080   0.085   0.096   0.097   0.102   0.110
  0.115   0.127   0.128   0.132   0.139   0.143   0.152   0.156
  0.162   0.170   0.178   0.179   0.190   0.203   0.206   0.214
  0.216   0.224   0.235   0.236   0.241   0.246   0.255   0.262
  0.265   0.274   0.279   0.290   0.294   0.304   0.309   0.316
  0.323   0.330   0.331   0.337   0.346   0.350   0.353   0.360
  0.361   0.370   0.376   0.379   0.386   0.393   0.398   0.410
  0.412   0.416   0.420   0.421   0.435   0.442   0.446   0.452
  0.462   0.466   0.471   0.473   0.475   0.480   0.485   0.489
  0.491   0.498   0.505   0.512   0.524   0.526   0.532   0.543
  0.545   0.551   0.557   0.563   0.566   0.571   0.575   0.578
  0.587   0.597   0.601   0.608   0.617   0.628   0.628   0.636
  0.639   0.645   0.648   0.662   0.667   0.670   0.679   0.684
  0.688   0.692   0.698   0.702   0.714   0.727   0.732   0.736
  0.748   0.749   0.752   0.767   0.770   0.776   0.782   0.791
  0.801   0.802   0.809   0.823   0.825   0.837   0.843   0.844
  0.856   0.862   0.867   0.873   0.876   0.883   0.902   0.908
  0.913   0.933   0.941   0.945   0.963   0.971   0.996   0.998
  1.014   1.024   1.028   1.040   1.066   1.067   1.073   1.086
  1.102   1.107   1.116   1.144   1.153   1.159   1.184   1.189
  1.204   1.208   1.221   1.248   1.254   1.259   1.272   1.294
  1.297   1.308   1.331   1.352   1.361   1.377   1.396   1.407
  1.415   1.423   1.440   1.446   1.456   1.476   1.494   1.508
  1.549   1.603   1.640   1.695   1.710   1.737   1.775   1.786
  1.797   1.819   1.837   1.859   1.898   1.909   1.923   1.927
  1.931   1.939   1.950   1.958   1.973   1.977   1.988   2.000
  2.003   2.014   2.030   2.037   2.054   2.061   2.083   2.106
  2.142   2.163   2.177   2.195   2.220   2.235   2.246   2.266
  2.272   2.293   2.298   2.317   2.347   2.353   2.363   2.397
  2.418   2.450   2.466   2.478   2.485   2.493   2.515   2.529
  2.552   2.569   2.585   2.599   2.613   2.637   2.689   2.700
  2.723   2.733   2.757   2.763   2.797   2.805   2.833   2.865
  2.888   2.898   2.908   2.941   2.951   2.958   2.973   2.994
  3.016   3.026   3.042   3.078   3.086   3.123   3.135   3.177
  3.196   3.207   3.227   3.242   3.246   3.252   3.298   3.306
  3.321   3.328   3.346   3.363   3.363   3.384   3.390   3.430
  3.443   3.453   3.467   3.483   3.502   3.508   3.539   3.542
  3.552   3.559   3.572   3.585   3.609   3.623   3.641   3.647
  3.659   3.681   3.693   3.698   3.705   3.729   3.736   3.752
  3.767   3.780   3.811   3.862   3.889   3.938   3.985   4.007
  4.072   4.082   4.088   4.109   4.133   4.168   4.203   4.258
  4.333   4.352   4.463   4.527   4.555   4.595   4.625   4.658
  4.685   4.710   4.802   4.812   4.820   4.851   4.878   5.023
  5.078   5.131   5.250   5.298   5.322   5.343   5.351   5.352
  5.359   5.371   5.375   5.376   5.384   5.402   5.505   5.564
  5.604   5.678   5.686   5.706   5.728   5.729   5.776   5.971
  6.011   6.071   6.092   6.252   6.272   6.311   6.319   6.331
  6.442   6.503   6.619   6.623   6.631   6.639   6.643   6.645
  6.695   6.725   6.732   6.738   6.748   6.773   6.815   6.955
  6.962   6.990   7.002   7.048   7.059   7.077   7.246   7.256
  7.287   7.340   7.366   7.414   7.417   7.496   7.673  22.700
 22.857  22.882  23.644  23.743  43.966  44.266  44.435  44.455
 44.672
 --------------------------------------------------------------
 
          Ground-State Mulliken Net Atomic Charges

     Atom                 Charge (a.u.)
  ----------------------------------------
      1 C                     0.466704
      2 O                    -0.551169
      3 C                    -0.651614
      4 H                     0.215181
      5 H                     0.293728
      6 H                     0.274465
      7 C                    -0.218414
      8 H                     0.231987
      9 H                     0.316140
     10 C                    -0.254836
     11 H                     0.241228
     12 H                     0.261567
     13 C                     0.047135
     14 O                    -0.690691
     15 O                    -0.702425
     16 O                    -0.268856
     17 O                    -1.095338
     18 H                     0.085205
  ----------------------------------------
  Sum of atomic charges =    -2.000000

 -----------------------------------------------------------------
                    Cartesian Multipole Moments
 -----------------------------------------------------------------
    Charge (ESU x 10^10)
                -9.6064
    Dipole Moment (Debye)
         X      11.1079      Y      16.4154      Z      -1.3827
       Tot      19.8686
    Quadrupole Moments (Debye-Ang)
        XX    -154.1898     XY      18.3095     YY    -113.8859
        XZ      -5.2352     YZ      -1.8550     ZZ     -79.8308
    Octopole Moments (Debye-Ang^2)
       XXX     280.7275    XXY     107.1296    XYY      -8.3018
       YYY     213.3426    XXZ     -28.9961    XYZ      52.3302
       YYZ     -96.8345    XZZ      55.2821    YZZ      29.3945
       ZZZ    -145.7753
    Hexadecapole Moments (Debye-Ang^3)
      XXXX   -2250.6956   XXXY     333.2680   XXYY    -751.6378
      XYYY     614.3851   YYYY   -1965.7983   XXXZ     -74.2504
      XXYZ     -56.7835   XYYZ     -37.0469   YYYZ     160.9798
      XXZZ    -410.8254   XYZZ     175.3122   YYZZ    -430.9517
      XZZZ      34.7445   YZZZ      33.6607   ZZZZ    -560.5222
 -----------------------------------------------------------------
 Calculating analytic gradient of the SCF energy
 Gradient of SCF Energy
            1           2           3           4           5           6
    1  -0.0457403   0.0454577   0.0145371   0.0292728  -0.0560197   0.0105524
    2  -0.0122432  -0.0270120   0.0321532  -0.0602044  -0.0037259   0.0480356
    3   0.0577365  -0.0423288  -0.0520826   0.0120345  -0.0065522   0.0536297
            7           8           9          10          11          12
    1   0.0740451   0.0221912  -0.0361216  -0.0694804   0.0541882  -0.0170829
    2  -0.0515990   0.0080202  -0.0216149   0.0218282   0.0393663  -0.0080738
    3  -0.0510778   0.0712199  -0.0046533   0.0079803   0.0141458  -0.0518489
           13          14          15          16          17          18
    1   0.0271790  -0.0316141  -0.0187321   0.0012634   0.0538479  -0.0577438
    2  -0.0243472  -0.0222699   0.0491031   0.0357484   0.0209293  -0.0240939
    3  -0.0138031   0.0391199  -0.0176561  -0.0139803   0.0503034  -0.0521871
 Max gradient component =       7.405E-02
 RMS gradient           =       3.852E-02
 Computing fast CPCM-ISWIG gradient
 Updating gradient with PCM contributions...
 -- total gradient after adding PCM contribution --
---------------------------------------------------
  Atom         X              Y              Z     
---------------------------------------------------
   1       0.001199      -0.000358      -0.000558
   2      -0.000780       0.000303       0.000471
   3      -0.000190      -0.000056       0.000053
   4       0.000006       0.000016      -0.000028
   5      -0.000023      -0.000025       0.000054
   6       0.000002       0.000016      -0.000014
   7      -0.000057       0.000063      -0.000006
   8       0.000007      -0.000003      -0.000003
   9       0.000002      -0.000003      -0.000004
  10       0.000005      -0.000004      -0.000004
  11      -0.000001       0.000002       0.000002
  12      -0.000002       0.000002       0.000000
  13      -0.000009       0.000003       0.000004
  14       0.000004      -0.000001      -0.000004
  15       0.000005      -0.000005      -0.000001
  16      -0.000168       0.000052       0.000033
  17      -0.000003      -0.000003       0.000004
  18       0.000002       0.000000      -0.000000
---------------------------------------------------
 Number of fixed atoms: 0
 Gradient time:  CPU 794.05 s  wall 58.30 s
 ----------------------------------------------------------------
             Standard Nuclear Orientation (Angstroms)
    I     Atom           X                Y                Z
 ----------------------------------------------------------------
    1      C      -1.5677699201     1.6699070658     1.0823751939
    2      O      -2.4791137511     2.1460642168     1.7265371188
    3      C      -0.9941201782     2.3170294822    -0.1474461410
    4      H      -1.4832747629     3.2774229451    -0.2989794578
    5      H       0.0844352865     2.4592155723    -0.0432756004
    6      H      -1.1647442935     1.6759825439    -1.0170213742
    7      C       0.0451529684    -0.1165570373     0.7725080300
    8      H      -0.2261658558    -0.2251044109    -0.2794509673
    9      H       0.9284401679     0.5211444238     0.8527572616
   10      C       0.2795795670    -1.4666996395     1.4126362593
   11      H      -0.6304017744    -2.0728268166     1.3443700679
   12      H       0.4994836728    -1.3438427522     2.4783986951
   13      C       1.4323957398    -2.2577974202     0.7729684103
   14      O       2.0516353875    -1.7273512705    -0.1839680306
   15      O       1.6649461288    -3.3896128466     1.2691068958
   16      O      -1.0515090280     0.5042719290     1.4904416126
   17      O      -3.2810527778    -0.9906489985    -0.7115905710
   18      H      -2.7970833773    -0.7946228960     0.0972626283
 ----------------------------------------------------------------
 Nuclear Repulsion Energy =   515.2473844826 hartrees
 There are       40 alpha and       40 beta electrons
 Discretize the solute cavity surface with Lebedev spheres
	Using 110 Lebedev grid points for each H atom
	Using 110 Lebedev grid points for other atoms
	Atomic van der Waals radii will be scaled by 1.20
 Remove points where switching function is < 1.0e-08
 Keep 1134 surface tesserae and discard 846 interior tesserae
 Molecular Surface Area = 208.875 Angst**2
 Requested basis set is def2-TZVPD
 There are 175 shells and 457 basis functions
 A cutoff of  1.0D-14 yielded  13826 shell pairs
 There are     93874 function pairs (    119097 Cartesian)
 Smallest overlap matrix eigenvalue = 3.36E-06
 Guess MOs from SCF MO coefficient file
 Reading MOs from coefficient file
 Reading MOs from coefficient file
 Long-range K will be added via erf
 Coulomb attenuation parameter = 0.3 bohr**(-1)
 A restricted hybrid HF-DFT SCF calculation will be
 performed using Pulay DIIS extrapolation
 Polarizable Continuum solvation model will be applied
 Exchange:     0.1670 Hartree-Fock + 1.0000 wB97X-V + LR-HF
 Correlation:  1.0000 wB97X-V
 Using SG-2 standard quadrature grid
 Nonlocal Correlation:  VV10 with C = 0.0100 and b = 6.00
 Grid used for NLC:  SG-1 standard quadrature
 SCF converges when DIIS error is below 1.0E-08
Using Q-Chem read-in guess as SCF_GUESS READ specified.

 using 16 threads for integral computing
 -------------------------------------------------------
 OpenMP Integral computing Module                
 Release: version 1.0, May 2013, Q-Chem Inc. Pittsburgh 
 -------------------------------------------------------
 using 16 threads for integral computing
 -------------------------------------------------------
 OpenMP Integral computing Module                
 Release: version 1.0, May 2013, Q-Chem Inc. Pittsburgh 
 -------------------------------------------------------
 -------------------------------------------------------
 OpenMP BLAS3 based DFT computing Module                
 Release: version 1.0, May 2013, Q-Chem Inc. Pittsburgh 
 -------------------------------------------------------
 -------------------------------------------------------
 OpenMP BLAS3 based DFT computing Module                
 Release: version 1.0, May 2013, Q-Chem Inc. Pittsburgh 
 -------------------------------------------------------
 -------------------------------------------------------
 OpenMP BLAS3 based DFT computing Module                
 Release: version 1.0, May 2013, Q-Chem Inc. Pittsburgh 
 -------------------------------------------------------
 ---------------------------------------
  Cycle       Energy         DIIS Error
 ---------------------------------------
    1    -571.4796689331      4.33E-04
    2    -571.7974470116      5.00E-04
    3    -571.8059367970      2.31E-04
    4    -571.8072973326      1.63E-04
    5    -571.8082060669      1.20E-04
    6    -571.8087164807      8.76E-05
    7    -571.8090756657      5.47E-05
    8    -571.8092650570      2.27E-05
    9    -571.8093006486      6.99E-06
   10    -571.8093042964      8.15E-07
   11    -571.8093043399      2.08E-07
   12    -571.8093043422      5.11E-08
   13    -571.8093043424      1.32E-08
   14    -571.8093043424      7.26E-09 Convergence criterion met
 ---------------------------------------

************** Final PCM Free Energy Summary **************
 G_electrostatic  =      -0.33049585 hartree =    -207.38927514 kcal/mol
 G_cavitation     =       0.00000000 hartree =       0.00000000 kcal/mol
 G_dispersion     =       0.00000000 hartree =       0.00000000 kcal/mol
 G_repulsion      =       0.00000000 hartree =       0.00000000 kcal/mol
 --------------------------------------------------
 Non-electrostatic Free Energy =       0.00000000 hartree =       0.00000000 kcal/mol
 Total                         =      -0.33049585 hartree =    -207.38927514 kcal/mol
 --------------------------------------------------
 SCF Energy (H0 + V/2)                       =    -571.80930434 
 Solute Internal Energy (H0)                 =    -571.47880849 
 Total Free Energy (H0 + V/2 + non-elec)     =    -571.80930434 hartree
                                             = -358815.75408078 kcal/mol
***********************************************************

 SCF time:  CPU 3281.89 s  wall 236.32 s
 SCF   energy in the final basis set = -571.80930434
 Total energy in the final basis set = -571.80930434
 
 --------------------------------------------------------------
 
                    Orbital Energies (a.u.)
 --------------------------------------------------------------
 
 Alpha MOs
 -- Occupied --
-19.255 -19.197 -19.144 -19.141 -19.092 -10.405 -10.347 -10.318
-10.271 -10.257  -1.236  -1.150  -1.147  -1.054  -0.965  -0.904
 -0.876  -0.777  -0.685  -0.620  -0.618  -0.606  -0.580  -0.562
 -0.535  -0.527  -0.511  -0.509  -0.488  -0.483  -0.451  -0.447
 -0.444  -0.401  -0.389  -0.350  -0.340  -0.336  -0.312  -0.312
 -- Virtual --
  0.058   0.071   0.080   0.085   0.096   0.097   0.102   0.110
  0.115   0.127   0.128   0.132   0.139   0.143   0.152   0.156
  0.162   0.170   0.178   0.179   0.190   0.203   0.206   0.214
  0.216   0.224   0.235   0.236   0.241   0.246   0.255   0.262
  0.265   0.274   0.279   0.290   0.294   0.304   0.309   0.316
  0.323   0.330   0.331   0.337   0.346   0.350   0.353   0.360
  0.361   0.370   0.376   0.379   0.386   0.393   0.398   0.410
  0.412   0.416   0.420   0.421   0.435   0.442   0.446   0.452
  0.462   0.466   0.471   0.473   0.475   0.480   0.485   0.489
  0.491   0.498   0.505   0.512   0.524   0.526   0.532   0.543
  0.545   0.551   0.557   0.563   0.566   0.571   0.575   0.578
  0.587   0.597   0.601   0.608   0.617   0.628   0.628   0.636
  0.639   0.645   0.648   0.662   0.667   0.670   0.679   0.684
  0.688   0.692   0.698   0.702   0.714   0.727   0.732   0.736
  0.748   0.749   0.752   0.767   0.770   0.776   0.782   0.791
  0.801   0.802   0.809   0.823   0.825   0.838   0.843   0.844
  0.856   0.862   0.867   0.873   0.876   0.884   0.902   0.908
  0.913   0.933   0.941   0.945   0.963   0.971   0.996   0.997
  1.014   1.024   1.028   1.040   1.066   1.067   1.073   1.086
  1.102   1.107   1.116   1.144   1.153   1.159   1.184   1.189
  1.204   1.208   1.221   1.248   1.255   1.259   1.272   1.295
  1.297   1.308   1.331   1.352   1.361   1.377   1.396   1.407
  1.415   1.423   1.440   1.446   1.457   1.476   1.494   1.508
  1.549   1.603   1.641   1.695   1.710   1.737   1.775   1.786
  1.797   1.819   1.837   1.860   1.898   1.909   1.923   1.927
  1.931   1.939   1.950   1.958   1.973   1.977   1.988   2.000
  2.003   2.014   2.030   2.037   2.054   2.061   2.083   2.106
  2.142   2.163   2.177   2.195   2.220   2.235   2.246   2.266
  2.272   2.293   2.298   2.317   2.347   2.353   2.362   2.397
  2.418   2.450   2.466   2.478   2.485   2.494   2.515   2.530
  2.552   2.569   2.585   2.599   2.613   2.637   2.689   2.700
  2.723   2.733   2.757   2.763   2.797   2.805   2.833   2.864
  2.888   2.898   2.908   2.942   2.951   2.958   2.972   2.994
  3.016   3.027   3.042   3.078   3.086   3.123   3.134   3.178
  3.196   3.207   3.226   3.243   3.246   3.253   3.298   3.306
  3.321   3.328   3.347   3.363   3.363   3.384   3.390   3.430
  3.444   3.453   3.467   3.484   3.502   3.508   3.539   3.542
  3.552   3.559   3.572   3.585   3.609   3.623   3.642   3.647
  3.659   3.681   3.693   3.698   3.705   3.729   3.736   3.752
  3.767   3.780   3.811   3.862   3.889   3.937   3.984   4.007
  4.072   4.081   4.088   4.109   4.133   4.168   4.203   4.258
  4.333   4.352   4.463   4.527   4.554   4.595   4.625   4.658
  4.685   4.710   4.802   4.812   4.820   4.850   4.878   5.023
  5.078   5.131   5.249   5.298   5.322   5.343   5.351   5.352
  5.359   5.371   5.375   5.376   5.384   5.403   5.505   5.563
  5.605   5.678   5.686   5.706   5.728   5.730   5.776   5.971
  6.011   6.071   6.092   6.252   6.273   6.311   6.322   6.331
  6.442   6.505   6.620   6.624   6.631   6.639   6.643   6.646
  6.695   6.725   6.732   6.738   6.748   6.773   6.815   6.955
  6.962   6.991   7.003   7.048   7.059   7.078   7.246   7.257
  7.287   7.341   7.366   7.414   7.417   7.497   7.673  22.699
 22.857  22.882  23.646  23.743  43.966  44.266  44.435  44.456
 44.672
 --------------------------------------------------------------
 
          Ground-State Mulliken Net Atomic Charges

     Atom                 Charge (a.u.)
  ----------------------------------------
      1 C                     0.465583
      2 O                    -0.548984
      3 C                    -0.651590
      4 H                     0.215303
      5 H                     0.293697
      6 H                     0.274270
      7 C                    -0.218105
      8 H                     0.231735
      9 H                     0.315605
     10 C                    -0.254448
     11 H                     0.241133
     12 H                     0.261421
     13 C                     0.047195
     14 O                    -0.690690
     15 O                    -0.702439
     16 O                    -0.269525
     17 O                    -1.095337
     18 H                     0.085176
  ----------------------------------------
  Sum of atomic charges =    -2.000000

 -----------------------------------------------------------------
                    Cartesian Multipole Moments
 -----------------------------------------------------------------
    Charge (ESU x 10^10)
                -9.6064
    Dipole Moment (Debye)
         X      11.0915      Y      16.4252      Z      -1.3762
       Tot      19.8671
    Quadrupole Moments (Debye-Ang)
        XX    -154.1400     XY      18.2732     YY    -113.8688
        XZ      -5.2671     YZ      -1.8262     ZZ     -79.8220
    Octopole Moments (Debye-Ang^2)
       XXX     280.5898    XXY     107.2486    XYY      -8.3815
       YYY     213.4175    XXZ     -28.9064    XYZ      52.2534
       YYZ     -96.7639    XZZ      55.2352    YZZ      29.4470
       ZZZ    -145.7356
    Hexadecapole Moments (Debye-Ang^3)
      XXXX   -2250.4036   XXXY     332.9846   XXYY    -751.4257
      XYYY     614.2246   YYYY   -1965.6696   XXXZ     -74.4865
      XXYZ     -56.5809   XYYZ     -37.2326   YYYZ     161.2250
      XXZZ    -410.6955   XYZZ     175.1916   YYZZ    -430.8338
      XZZZ      34.6224   YZZZ      33.8208   ZZZZ    -560.4265
 -----------------------------------------------------------------
 Calculating analytic gradient of the SCF energy
 Gradient of SCF Energy
            1           2           3           4           5           6
    1  -0.0478501   0.0470376   0.0148482   0.0292501  -0.0559968   0.0105370
    2  -0.0111616  -0.0277134   0.0320571  -0.0602368  -0.0036596   0.0480457
    3   0.0591184  -0.0434274  -0.0524444   0.0120664  -0.0066240   0.0536928
            7           8           9          10          11          12
    1   0.0741223   0.0221731  -0.0361248  -0.0695168   0.0542129  -0.0170953
    2  -0.0516188   0.0079902  -0.0216148   0.0218424   0.0393696  -0.0080806
    3  -0.0510515   0.0712385  -0.0046336   0.0079424   0.0141510  -0.0518732
           13          14          15          16          17          18
    1   0.0271998  -0.0316289  -0.0187406   0.0014613   0.0538638  -0.0577528
    2  -0.0243908  -0.0222688   0.0491226   0.0354931   0.0209219  -0.0240972
    3  -0.0138125   0.0391350  -0.0176592  -0.0139245   0.0502903  -0.0521846
 Max gradient component =       7.412E-02
 RMS gradient           =       3.868E-02
 Computing fast CPCM-ISWIG gradient
 Updating gradient with PCM contributions...
 -- total gradient after adding PCM contribution --
---------------------------------------------------
  Atom         X              Y              Z     
---------------------------------------------------
   1      -0.001198       0.000358       0.000560
   2       0.000784      -0.000305      -0.000471
   3       0.000195       0.000045      -0.000053
   4      -0.000009      -0.000016       0.000028
   5       0.000024       0.000027      -0.000060
   6      -0.000002      -0.000014       0.000013
   7       0.000053      -0.000050       0.000007
   8      -0.000007       0.000004       0.000004
   9      -0.000005      -0.000003       0.000000
  10       0.000004      -0.000006      -0.000000
  11      -0.000001       0.000002       0.000002
  12      -0.000002       0.000003      -0.000001
  13      -0.000002      -0.000006      -0.000000
  14      -0.000002       0.000004      -0.000001
  15       0.000000       0.000004      -0.000002
  16       0.000166      -0.000046      -0.000031
  17       0.000001      -0.000003       0.000005
  18      -0.000001       0.000000      -0.000000
---------------------------------------------------
 Number of fixed atoms: 0
 Gradient time:  CPU 796.23 s  wall 58.42 s
 ----------------------------------------------------------------
             Standard Nuclear Orientation (Angstroms)
    I     Atom           X                Y                Z
 ----------------------------------------------------------------
    1      C      -1.5667699201     1.6709070658     1.0823751939
    2      O      -2.4791137511     2.1460642168     1.7265371188
    3      C      -0.9941201782     2.3170294822    -0.1474461410
    4      H      -1.4832747629     3.2774229451    -0.2989794578
    5      H       0.0844352865     2.4592155723    -0.0432756004
    6      H      -1.1647442935     1.6759825439    -1.0170213742
    7      C       0.0451529684    -0.1165570373     0.7725080300
    8      H      -0.2261658558    -0.2251044109    -0.2794509673
    9      H       0.9284401679     0.5211444238     0.8527572616
   10      C       0.2795795670    -1.4666996395     1.4126362593
   11      H      -0.6304017744    -2.0728268166     1.3443700679
   12      H       0.4994836728    -1.3438427522     2.4783986951
   13      C       1.4323957398    -2.2577974202     0.7729684103
   14      O       2.0516353875    -1.7273512705    -0.1839680306
   15      O       1.6649461288    -3.3896128466     1.2691068958
   16      O      -1.0515090280     0.5042719290     1.4904416126
   17      O      -3.2810527778    -0.9906489985    -0.7115905710
   18      H      -2.7970833773    -0.7946228960     0.0972626283
 ----------------------------------------------------------------
 Nuclear Repulsion Energy =   515.2387002723 hartrees
 There are       40 alpha and       40 beta electrons
 Discretize the solute cavity surface with Lebedev spheres
	Using 110 Lebedev grid points for each H atom
	Using 110 Lebedev grid points for other atoms
	Atomic van der Waals radii will be scaled by 1.20
 Remove points where switching function is < 1.0e-08
 Keep 1134 surface tesserae and discard 846 interior tesserae
 Molecular Surface Area = 208.884 Angst**2
 Requested basis set is def2-TZVPD
 There are 175 shells and 457 basis functions
 A cutoff of  1.0D-14 yielded  13826 shell pairs
 There are     93874 function pairs (    119097 Cartesian)
 Smallest overlap matrix eigenvalue = 3.36E-06
 Guess MOs from SCF MO coefficient file
 Reading MOs from coefficient file
 Reading MOs from coefficient file
 Long-range K will be added via erf
 Coulomb attenuation parameter = 0.3 bohr**(-1)
 A restricted hybrid HF-DFT SCF calculation will be
 performed using Pulay DIIS extrapolation
 Polarizable Continuum solvation model will be applied
 Exchange:     0.1670 Hartree-Fock + 1.0000 wB97X-V + LR-HF
 Correlation:  1.0000 wB97X-V
 Using SG-2 standard quadrature grid
 Nonlocal Correlation:  VV10 with C = 0.0100 and b = 6.00
 Grid used for NLC:  SG-1 standard quadrature
 SCF converges when DIIS error is below 1.0E-08
Using Q-Chem read-in guess as SCF_GUESS READ specified.

 using 16 threads for integral computing
 -------------------------------------------------------
 OpenMP Integral computing Module                
 Release: version 1.0, May 2013, Q-Chem Inc. Pittsburgh 
 -------------------------------------------------------
 using 16 threads for integral computing
 -------------------------------------------------------
 OpenMP Integral computing Module                
 Release: version 1.0, May 2013, Q-Chem Inc. Pittsburgh 
 -------------------------------------------------------
 -------------------------------------------------------
 OpenMP BLAS3 based DFT computing Module                
 Release: version 1.0, May 2013, Q-Chem Inc. Pittsburgh 
 -------------------------------------------------------
 -------------------------------------------------------
 OpenMP BLAS3 based DFT computing Module                
 Release: version 1.0, May 2013, Q-Chem Inc. Pittsburgh 
 -------------------------------------------------------
 -------------------------------------------------------
 OpenMP BLAS3 based DFT computing Module                
 Release: version 1.0, May 2013, Q-Chem Inc. Pittsburgh 
 -------------------------------------------------------
 ---------------------------------------
  Cycle       Energy         DIIS Error
 ---------------------------------------
    1    -571.4778152175      4.32E-04
    2    -571.7974807943      4.99E-04
    3    -571.8059361484      2.31E-04
    4    -571.8072898094      1.63E-04
    5    -571.8081838501      1.21E-04
    6    -571.8086547292      9.21E-05
    7    -571.8089707291      6.60E-05
    8    -571.8091940254      3.80E-05
    9    -571.8092797502      1.81E-05
   10    -571.8093034075      3.91E-06
   11    -571.8093044340      1.26E-06
   12    -571.8093045491      2.16E-07
   13    -571.8093045525      2.86E-08
   14    -571.8093045525      9.12E-09 Convergence criterion met
 ---------------------------------------

************** Final PCM Free Energy Summary **************
 G_electrostatic  =      -0.33054759 hartree =    -207.42174476 kcal/mol
 G_cavitation     =       0.00000000 hartree =       0.00000000 kcal/mol
 G_dispersion     =       0.00000000 hartree =       0.00000000 kcal/mol
 G_repulsion      =       0.00000000 hartree =       0.00000000 kcal/mol
 --------------------------------------------------
 Non-electrostatic Free Energy =       0.00000000 hartree =       0.00000000 kcal/mol
 Total                         =      -0.33054759 hartree =    -207.42174476 kcal/mol
 --------------------------------------------------
 SCF Energy (H0 + V/2)                       =    -571.80930455 
 Solute Internal Energy (H0)                 =    -571.47875696 
 Total Free Energy (H0 + V/2 + non-elec)     =    -571.80930455 hartree
                                             = -358815.75421262 kcal/mol
***********************************************************

 SCF time:  CPU 3269.04 s  wall 235.66 s
 SCF   energy in the final basis set = -571.80930455
 Total energy in the final basis set = -571.80930455
 
 --------------------------------------------------------------
 
                    Orbital Energies (a.u.)
 --------------------------------------------------------------
 
 Alpha MOs
 -- Occupied --
-19.255 -19.197 -19.144 -19.141 -19.092 -10.405 -10.347 -10.318
-10.271 -10.257  -1.236  -1.149  -1.147  -1.054  -0.965  -0.904
 -0.876  -0.777  -0.685  -0.620  -0.618  -0.606  -0.580  -0.562
 -0.535  -0.527  -0.511  -0.509  -0.488  -0.483  -0.451  -0.447
 -0.444  -0.401  -0.389  -0.350  -0.340  -0.336  -0.312  -0.312
 -- Virtual --
  0.058   0.071   0.080   0.085   0.096   0.097   0.102   0.110
  0.115   0.127   0.128   0.132   0.139   0.143   0.152   0.156
  0.162   0.170   0.178   0.179   0.190   0.203   0.206   0.214
  0.216   0.224   0.235   0.236   0.241   0.246   0.255   0.262
  0.265   0.274   0.279   0.290   0.294   0.304   0.309   0.316
  0.323   0.330   0.331   0.337   0.346   0.350   0.353   0.360
  0.361   0.370   0.376   0.379   0.386   0.393   0.398   0.410
  0.412   0.416   0.420   0.421   0.435   0.442   0.446   0.452
  0.462   0.466   0.471   0.473   0.475   0.480   0.485   0.489
  0.491   0.498   0.505   0.512   0.524   0.526   0.532   0.543
  0.545   0.551   0.557   0.563   0.566   0.571   0.575   0.578
  0.587   0.597   0.601   0.608   0.617   0.628   0.628   0.636
  0.639   0.645   0.648   0.662   0.667   0.670   0.679   0.684
  0.688   0.692   0.698   0.702   0.714   0.727   0.732   0.736
  0.748   0.749   0.752   0.767   0.770   0.776   0.782   0.791
  0.801   0.802   0.809   0.823   0.825   0.838   0.843   0.844
  0.856   0.862   0.867   0.873   0.876   0.883   0.902   0.908
  0.913   0.933   0.941   0.945   0.963   0.971   0.996   0.997
  1.014   1.024   1.028   1.040   1.066   1.067   1.073   1.086
  1.103   1.107   1.116   1.144   1.153   1.159   1.184   1.189
  1.204   1.208   1.221   1.248   1.255   1.259   1.272   1.295
  1.297   1.308   1.331   1.352   1.361   1.377   1.396   1.407
  1.415   1.423   1.440   1.446   1.457   1.476   1.494   1.508
  1.549   1.603   1.641   1.695   1.710   1.737   1.775   1.786
  1.797   1.819   1.837   1.859   1.898   1.909   1.923   1.927
  1.931   1.939   1.950   1.958   1.973   1.977   1.988   2.000
  2.003   2.014   2.030   2.037   2.054   2.061   2.083   2.106
  2.142   2.163   2.177   2.195   2.220   2.235   2.246   2.266
  2.272   2.293   2.298   2.317   2.347   2.353   2.362   2.397
  2.418   2.450   2.466   2.478   2.485   2.494   2.515   2.530
  2.552   2.569   2.586   2.599   2.614   2.637   2.689   2.700
  2.723   2.733   2.757   2.763   2.797   2.805   2.833   2.864
  2.888   2.898   2.908   2.942   2.951   2.958   2.972   2.994
  3.016   3.027   3.042   3.078   3.086   3.123   3.135   3.177
  3.196   3.207   3.226   3.243   3.246   3.253   3.298   3.306
  3.321   3.328   3.347   3.363   3.363   3.384   3.390   3.430
  3.444   3.453   3.467   3.483   3.502   3.508   3.539   3.542
  3.552   3.559   3.572   3.585   3.609   3.623   3.641   3.647
  3.659   3.681   3.693   3.698   3.705   3.729   3.736   3.752
  3.767   3.780   3.811   3.862   3.889   3.938   3.985   4.007
  4.072   4.082   4.088   4.109   4.133   4.168   4.203   4.258
  4.333   4.352   4.463   4.527   4.555   4.595   4.625   4.658
  4.685   4.710   4.802   4.812   4.820   4.851   4.878   5.023
  5.078   5.131   5.250   5.298   5.322   5.343   5.351   5.352
  5.359   5.371   5.375   5.376   5.384   5.402   5.505   5.563
  5.605   5.678   5.686   5.706   5.728   5.729   5.776   5.971
  6.011   6.070   6.092   6.252   6.273   6.311   6.321   6.331
  6.442   6.505   6.619   6.624   6.631   6.639   6.643   6.646
  6.695   6.725   6.732   6.738   6.748   6.773   6.815   6.955
  6.962   6.990   7.002   7.048   7.059   7.077   7.246   7.257
  7.287   7.341   7.366   7.414   7.417   7.497   7.673  22.700
 22.857  22.882  23.644  23.743  43.966  44.266  44.435  44.456
 44.672
 --------------------------------------------------------------
 
          Ground-State Mulliken Net Atomic Charges

     Atom                 Charge (a.u.)
  ----------------------------------------
      1 C                     0.465812
      2 O                    -0.549340
      3 C                    -0.651610
      4 H                     0.215248
      5 H                     0.293805
      6 H                     0.274478
      7 C                    -0.217945
      8 H                     0.231626
      9 H                     0.315783
     10 C                    -0.254677
     11 H                     0.241132
     12 H                     0.261421
     13 C                     0.047193
     14 O                    -0.690689
     15 O                    -0.702448
     16 O                    -0.269609
     17 O                    -1.095380
     18 H                     0.085201
  ----------------------------------------
  Sum of atomic charges =    -2.000000

 -----------------------------------------------------------------
                    Cartesian Multipole Moments
 -----------------------------------------------------------------
    Charge (ESU x 10^10)
                -9.6064
    Dipole Moment (Debye)
         X      11.0939      Y      16.4307      Z      -1.3797
       Tot      19.8732
    Quadrupole Moments (Debye-Ang)
        XX    -154.1514     XY      18.2725     YY    -113.8566
        XZ      -5.2602     YZ      -1.8291     ZZ     -79.8245
    Octopole Moments (Debye-Ang^2)
       XXX     280.6028    XXY     107.2397    XYY      -8.3930
       YYY     213.4423    XXZ     -28.9228    XYZ      52.2651
       YYZ     -96.7715    XZZ      55.2361    YZZ      29.4452
       ZZZ    -145.7524
    Hexadecapole Moments (Debye-Ang^3)
      XXXX   -2250.3984   XXXY     333.0087   XXYY    -751.4462
      XYYY     614.2150   YYYY   -1965.7020   XXXZ     -74.4727
      XXYZ     -56.6143   XYYZ     -37.2138   YYYZ     161.1879
      XXZZ    -410.6985   XYZZ     175.1995   YYZZ    -430.8522
      XZZZ      34.6267   YZZZ      33.7821   ZZZZ    -560.4549
 -----------------------------------------------------------------
 Calculating analytic gradient of the SCF energy
 Gradient of SCF Energy
            1           2           3           4           5           6
    1  -0.0473426   0.0466022   0.0147288   0.0292352  -0.0560146   0.0105527
    2  -0.0108620  -0.0275842   0.0319133  -0.0602227  -0.0036871   0.0480717
    3   0.0583016  -0.0431046  -0.0520872   0.0120895  -0.0065916   0.0536138
            7           8           9          10          11          12
    1   0.0741255   0.0221752  -0.0361178  -0.0695099   0.0542174  -0.0170935
    2  -0.0516672   0.0080039  -0.0216136   0.0218609   0.0393753  -0.0080824
    3  -0.0510813   0.0712253  -0.0046413   0.0079734   0.0141567  -0.0518805
           13          14          15          16          17          18
    1   0.0272047  -0.0316306  -0.0187437   0.0015040   0.0538732  -0.0577664
    2  -0.0243890  -0.0222705   0.0491262   0.0352077   0.0209217  -0.0241020
    3  -0.0138172   0.0391377  -0.0176590  -0.0137453   0.0503119  -0.0522019
 Max gradient component =       7.413E-02
 RMS gradient           =       3.861E-02
 Computing fast CPCM-ISWIG gradient
 Updating gradient with PCM contributions...
 -- total gradient after adding PCM contribution --
---------------------------------------------------
  Atom         X              Y              Z     
---------------------------------------------------
   1      -0.000355       0.000974      -0.000042
   2       0.000273      -0.000302      -0.000179
   3      -0.000044      -0.000224       0.000084
   4      -0.000026      -0.000025       0.000048
   5       0.000001      -0.000004       0.000001
   6       0.000019       0.000024      -0.000039
   7       0.000053      -0.000053      -0.000030
   8      -0.000007       0.000007       0.000009
   9      -0.000015       0.000004       0.000005
  10      -0.000001      -0.000007       0.000006
  11      -0.000001       0.000002       0.000002
  12      -0.000001       0.000003      -0.000001
  13       0.000001      -0.000007      -0.000001
  14      -0.000004       0.000006      -0.000001
  15      -0.000002       0.000007      -0.000002
  16       0.000110      -0.000400       0.000135
  17       0.000002      -0.000000       0.000005
  18      -0.000004      -0.000004      -0.000001
---------------------------------------------------
 Number of fixed atoms: 0
 Gradient time:  CPU 790.84 s  wall 58.19 s
 ----------------------------------------------------------------
             Standard Nuclear Orientation (Angstroms)
    I     Atom           X                Y                Z
 ----------------------------------------------------------------
    1      C      -1.5667699201     1.6689070658     1.0823751939
    2      O      -2.4791137511     2.1460642168     1.7265371188
    3      C      -0.9941201782     2.3170294822    -0.1474461410
    4      H      -1.4832747629     3.2774229451    -0.2989794578
    5      H       0.0844352865     2.4592155723    -0.0432756004
    6      H      -1.1647442935     1.6759825439    -1.0170213742
    7      C       0.0451529684    -0.1165570373     0.7725080300
    8      H      -0.2261658558    -0.2251044109    -0.2794509673
    9      H       0.9284401679     0.5211444238     0.8527572616
   10      C       0.2795795670    -1.4666996395     1.4126362593
   11      H      -0.6304017744    -2.0728268166     1.3443700679
   12      H       0.4994836728    -1.3438427522     2.4783986951
   13      C       1.4323957398    -2.2577974202     0.7729684103
   14      O       2.0516353875    -1.7273512705    -0.1839680306
   15      O       1.6649461288    -3.3896128466     1.2691068958
   16      O      -1.0515090280     0.5042719290     1.4904416126
   17      O      -3.2810527778    -0.9906489985    -0.7115905710
   18      H      -2.7970833773    -0.7946228960     0.0972626283
 ----------------------------------------------------------------
 Nuclear Repulsion Energy =   515.2571016434 hartrees
 There are       40 alpha and       40 beta electrons
 Discretize the solute cavity surface with Lebedev spheres
	Using 110 Lebedev grid points for each H atom
	Using 110 Lebedev grid points for other atoms
	Atomic van der Waals radii will be scaled by 1.20
 Remove points where switching function is < 1.0e-08
 Keep 1134 surface tesserae and discard 846 interior tesserae
 Molecular Surface Area = 208.877 Angst**2
 Requested basis set is def2-TZVPD
 There are 175 shells and 457 basis functions
 A cutoff of  1.0D-14 yielded  13826 shell pairs
 There are     93874 function pairs (    119097 Cartesian)
 Smallest overlap matrix eigenvalue = 3.36E-06
 Guess MOs from SCF MO coefficient file
 Reading MOs from coefficient file
 Reading MOs from coefficient file
 Long-range K will be added via erf
 Coulomb attenuation parameter = 0.3 bohr**(-1)
 A restricted hybrid HF-DFT SCF calculation will be
 performed using Pulay DIIS extrapolation
 Polarizable Continuum solvation model will be applied
 Exchange:     0.1670 Hartree-Fock + 1.0000 wB97X-V + LR-HF
 Correlation:  1.0000 wB97X-V
 Using SG-2 standard quadrature grid
 Nonlocal Correlation:  VV10 with C = 0.0100 and b = 6.00
 Grid used for NLC:  SG-1 standard quadrature
 SCF converges when DIIS error is below 1.0E-08
Using Q-Chem read-in guess as SCF_GUESS READ specified.

 using 16 threads for integral computing
 -------------------------------------------------------
 OpenMP Integral computing Module                
 Release: version 1.0, May 2013, Q-Chem Inc. Pittsburgh 
 -------------------------------------------------------
 using 16 threads for integral computing
 -------------------------------------------------------
 OpenMP Integral computing Module                
 Release: version 1.0, May 2013, Q-Chem Inc. Pittsburgh 
 -------------------------------------------------------
 -------------------------------------------------------
 OpenMP BLAS3 based DFT computing Module                
 Release: version 1.0, May 2013, Q-Chem Inc. Pittsburgh 
 -------------------------------------------------------
 -------------------------------------------------------
 OpenMP BLAS3 based DFT computing Module                
 Release: version 1.0, May 2013, Q-Chem Inc. Pittsburgh 
 -------------------------------------------------------
 -------------------------------------------------------
 OpenMP BLAS3 based DFT computing Module                
 Release: version 1.0, May 2013, Q-Chem Inc. Pittsburgh 
 -------------------------------------------------------
 ---------------------------------------
  Cycle       Energy         DIIS Error
 ---------------------------------------
    1    -571.4798402310      4.33E-04
    2    -571.7974778315      4.99E-04
    3    -571.8059444624      2.31E-04
    4    -571.8073006447      1.62E-04
    5    -571.8082090007      1.20E-04
    6    -571.8087171147      8.75E-05
    7    -571.8090744193      5.48E-05
    8    -571.8092648338      2.28E-05
    9    -571.8093005978      7.23E-06
   10    -571.8093044988      8.42E-07
   11    -571.8093045427      2.70E-07
   12    -571.8093045474      4.24E-08
   13    -571.8093045475      1.39E-08
   14    -571.8093045475      6.57E-09 Convergence criterion met
 ---------------------------------------

************** Final PCM Free Energy Summary **************
 G_electrostatic  =      -0.33049100 hartree =    -207.38623444 kcal/mol
 G_cavitation     =       0.00000000 hartree =       0.00000000 kcal/mol
 G_dispersion     =       0.00000000 hartree =       0.00000000 kcal/mol
 G_repulsion      =       0.00000000 hartree =       0.00000000 kcal/mol
 --------------------------------------------------
 Non-electrostatic Free Energy =       0.00000000 hartree =       0.00000000 kcal/mol
 Total                         =      -0.33049100 hartree =    -207.38623444 kcal/mol
 --------------------------------------------------
 SCF Energy (H0 + V/2)                       =    -571.80930455 
 Solute Internal Energy (H0)                 =    -571.47881354 
 Total Free Energy (H0 + V/2 + non-elec)     =    -571.80930455 hartree
                                             = -358815.75420948 kcal/mol
***********************************************************

 SCF time:  CPU 3270.46 s  wall 235.49 s
 SCF   energy in the final basis set = -571.80930455
 Total energy in the final basis set = -571.80930455
 
 --------------------------------------------------------------
 
                    Orbital Energies (a.u.)
 --------------------------------------------------------------
 
 Alpha MOs
 -- Occupied --
-19.256 -19.197 -19.144 -19.141 -19.092 -10.405 -10.347 -10.318
-10.271 -10.257  -1.236  -1.149  -1.146  -1.054  -0.965  -0.904
 -0.876  -0.778  -0.685  -0.620  -0.618  -0.606  -0.580  -0.562
 -0.535  -0.527  -0.511  -0.509  -0.488  -0.483  -0.451  -0.447
 -0.444  -0.401  -0.388  -0.350  -0.340  -0.336  -0.312  -0.312
 -- Virtual --
  0.058   0.071   0.080   0.085   0.096   0.097   0.102   0.110
  0.115   0.127   0.128   0.132   0.139   0.143   0.152   0.156
  0.161   0.170   0.178   0.179   0.190   0.203   0.206   0.214
  0.216   0.224   0.235   0.236   0.241   0.246   0.255   0.262
  0.265   0.274   0.279   0.290   0.294   0.304   0.309   0.316
  0.323   0.330   0.331   0.337   0.346   0.350   0.353   0.360
  0.361   0.370   0.376   0.379   0.386   0.393   0.398   0.410
  0.412   0.416   0.420   0.421   0.435   0.442   0.446   0.452
  0.462   0.466   0.471   0.473   0.475   0.480   0.485   0.489
  0.491   0.498   0.505   0.512   0.524   0.526   0.532   0.543
  0.545   0.551   0.557   0.563   0.566   0.571   0.575   0.578
  0.587   0.597   0.601   0.608   0.617   0.628   0.628   0.636
  0.639   0.645   0.648   0.662   0.667   0.670   0.679   0.684
  0.688   0.692   0.698   0.702   0.714   0.727   0.732   0.736
  0.747   0.749   0.752   0.767   0.770   0.776   0.782   0.791
  0.801   0.802   0.809   0.823   0.825   0.838   0.843   0.844
  0.856   0.862   0.867   0.873   0.876   0.883   0.902   0.908
  0.913   0.933   0.941   0.945   0.963   0.971   0.996   0.998
  1.014   1.024   1.028   1.040   1.066   1.067   1.073   1.086
  1.102   1.107   1.116   1.144   1.153   1.159   1.184   1.189
  1.204   1.208   1.221   1.248   1.254   1.259   1.271   1.295
  1.297   1.308   1.331   1.352   1.361   1.377   1.396   1.407
  1.415   1.423   1.440   1.446   1.456   1.476   1.494   1.508
  1.549   1.603   1.640   1.695   1.710   1.737   1.775   1.786
  1.797   1.819   1.837   1.859   1.898   1.909   1.923   1.927
  1.931   1.939   1.950   1.958   1.973   1.977   1.988   2.000
  2.003   2.014   2.030   2.037   2.054   2.061   2.083   2.106
  2.142   2.163   2.177   2.195   2.220   2.235   2.246   2.266
  2.272   2.293   2.298   2.317   2.347   2.353   2.362   2.397
  2.418   2.450   2.466   2.478   2.485   2.493   2.515   2.529
  2.552   2.569   2.585   2.599   2.613   2.637   2.689   2.700
  2.723   2.733   2.757   2.763   2.797   2.805   2.833   2.865
  2.888   2.898   2.908   2.941   2.951   2.958   2.973   2.994
  3.016   3.026   3.042   3.078   3.086   3.123   3.135   3.178
  3.196   3.207   3.227   3.242   3.246   3.253   3.298   3.306
  3.321   3.328   3.347   3.363   3.363   3.384   3.390   3.430
  3.444   3.453   3.467   3.483   3.502   3.508   3.539   3.542
  3.552   3.559   3.573   3.585   3.609   3.623   3.641   3.647
  3.659   3.681   3.693   3.698   3.705   3.729   3.736   3.752
  3.767   3.780   3.811   3.862   3.889   3.937   3.984   4.007
  4.072   4.081   4.088   4.109   4.133   4.167   4.203   4.258
  4.333   4.352   4.463   4.527   4.554   4.595   4.625   4.658
  4.685   4.710   4.802   4.812   4.820   4.851   4.878   5.023
  5.078   5.131   5.249   5.298   5.322   5.343   5.351   5.352
  5.359   5.371   5.375   5.376   5.384   5.403   5.505   5.564
  5.604   5.678   5.686   5.706   5.728   5.729   5.776   5.971
  6.011   6.072   6.092   6.252   6.273   6.311   6.320   6.331
  6.442   6.503   6.620   6.624   6.631   6.639   6.643   6.646
  6.695   6.725   6.732   6.738   6.748   6.773   6.815   6.955
  6.962   6.991   7.002   7.048   7.059   7.078   7.246   7.257
  7.287   7.341   7.366   7.414   7.417   7.496   7.673  22.699
 22.857  22.882  23.646  23.743  43.966  44.266  44.435  44.456
 44.673
 --------------------------------------------------------------
 
          Ground-State Mulliken Net Atomic Charges

     Atom                 Charge (a.u.)
  ----------------------------------------
      1 C                     0.466480
      2 O                    -0.550818
      3 C                    -0.651592
      4 H                     0.215235
      5 H                     0.293619
      6 H                     0.274257
      7 C                    -0.218573
      8 H                     0.232096
      9 H                     0.315961
     10 C                    -0.254606
     11 H                     0.241229
     12 H                     0.261567
     13 C                     0.047137
     14 O                    -0.690691
     15 O                    -0.702416
     16 O                    -0.268771
     17 O                    -1.095296
     18 H                     0.085181
  ----------------------------------------
  Sum of atomic charges =    -2.000000

 -----------------------------------------------------------------
                    Cartesian Multipole Moments
 -----------------------------------------------------------------
    Charge (ESU x 10^10)
                -9.6064
    Dipole Moment (Debye)
         X      11.1054      Y      16.4099      Z      -1.3792
       Tot      19.8625
    Quadrupole Moments (Debye-Ang)
        XX    -154.1785     XY      18.3101     YY    -113.8981
        XZ      -5.2421     YZ      -1.8521     ZZ     -79.8283
    Octopole Moments (Debye-Ang^2)
       XXX     280.7145    XXY     107.1384    XYY      -8.2903
       YYY     213.3179    XXZ     -28.9798    XYZ      52.3185
       YYZ     -96.8270    XZZ      55.2812    YZZ      29.3962
       ZZZ    -145.7585
    Hexadecapole Moments (Debye-Ang^3)
      XXXX   -2250.7013   XXXY     333.2442   XXYY    -751.6174
      XYYY     614.3947   YYYY   -1965.7660   XXXZ     -74.2640
      XXYZ     -56.7502   XYYZ     -37.0657   YYYZ     161.0169
      XXZZ    -410.8225   XYZZ     175.3044   YYZZ    -430.9334
      XZZZ      34.7403   YZZZ      33.6994   ZZZZ    -560.4939
 -----------------------------------------------------------------
 Calculating analytic gradient of the SCF energy
 Gradient of SCF Energy
            1           2           3           4           5           6
    1  -0.0462440   0.0458908   0.0146562   0.0292877  -0.0560016   0.0105368
    2  -0.0125474  -0.0271384   0.0322965  -0.0602185  -0.0036984   0.0480095
    3   0.0585514  -0.0426487  -0.0524395   0.0120115  -0.0065846   0.0537086
            7           8           9          10          11          12
    1   0.0740416   0.0221890  -0.0361285  -0.0694870   0.0541835  -0.0170847
    2  -0.0515503   0.0080064  -0.0216161   0.0218097   0.0393606  -0.0080720
    3  -0.0510480   0.0712330  -0.0046455   0.0079493   0.0141401  -0.0518414
           13          14          15          16          17          18
    1   0.0271740  -0.0316123  -0.0187290   0.0012192   0.0538382  -0.0577299
    2  -0.0243490  -0.0222681   0.0490993   0.0360359   0.0209293  -0.0240890
    3  -0.0137984   0.0391171  -0.0176562  -0.0141608   0.0502817  -0.0521696
 Max gradient component =       7.404E-02
 RMS gradient           =       3.859E-02
 Computing fast CPCM-ISWIG gradient
 Updating gradient with PCM contributions...
 -- total gradient after adding PCM contribution --
---------------------------------------------------
  Atom         X              Y              Z     
---------------------------------------------------
   1       0.000360      -0.000978       0.000042
   2      -0.000271       0.000303       0.000183
   3       0.000049       0.000214      -0.000084
   4       0.000024       0.000025      -0.000048
   5      -0.000001       0.000006      -0.000008
[...]
 O         -0.093 -0.145  0.186   -0.004 -0.009  0.011    0.003  0.002  0.004
 O          0.028  0.140 -0.118   -0.002  0.014 -0.005    0.003  0.001  0.003
 O          0.001  0.046 -0.033   -0.013  0.077 -0.050   -0.009 -0.016 -0.017
 O         -0.000 -0.000  0.000    0.000  0.000  0.000    0.000  0.001 -0.000
 H          0.002  0.001 -0.002    0.002  0.003 -0.002   -0.002 -0.010  0.004
 TransDip  -0.119  0.148  0.011    0.113 -0.204  0.043    0.068  0.074  0.085

 Mode:                25                     26                     27
 Frequency:      1085.87                1089.98                1128.14
 Force Cnst:      1.3396                 6.0318                 2.0923
 Red. Mass:       1.9282                 8.6170                 2.7902
 IR Active:          YES                    YES                    YES
 IR Intens:       13.672                211.812                  1.327
 Raman Active:       YES                    YES                    YES
               X      Y      Z        X      Y      Z        X      Y      Z
 C          0.013  0.011  0.021   -0.087 -0.099  0.151    0.009 -0.027  0.011
 O         -0.009  0.005 -0.000   -0.118  0.143  0.019    0.026 -0.012 -0.020
 C         -0.012 -0.014 -0.017    0.044  0.080 -0.088   -0.027  0.036  0.004
 H          0.044  0.026  0.052    0.110  0.088 -0.289    0.119  0.073 -0.211
 H         -0.020 -0.000  0.060    0.069  0.020 -0.207   -0.011 -0.115  0.045
 H          0.052  0.046 -0.071    0.075  0.024 -0.064    0.047 -0.077  0.070
 C          0.073  0.077  0.091   -0.357  0.192  0.197    0.025  0.213 -0.179
 H         -0.323 -0.210  0.217   -0.081  0.171  0.113   -0.043  0.383 -0.183
 H          0.096  0.107 -0.426   -0.207  0.022  0.169   -0.090  0.380 -0.150
 C         -0.108 -0.077 -0.098    0.013  0.042  0.016   -0.026 -0.211  0.171
 H         -0.304  0.184  0.329    0.196 -0.244 -0.013    0.106 -0.414  0.160
 H          0.447 -0.171 -0.193   -0.013 -0.197  0.054    0.065 -0.383  0.176
 C          0.110  0.072  0.110   -0.025 -0.007 -0.027   -0.014  0.008 -0.002
 O         -0.020 -0.013 -0.022    0.001  0.010  0.004    0.019  0.000 -0.017
 O         -0.020 -0.014 -0.018    0.014 -0.036  0.020   -0.016  0.026  0.001
 O         -0.006 -0.029 -0.038    0.402 -0.265 -0.214   -0.017 -0.018  0.038
 O          0.000  0.000 -0.000    0.000 -0.001  0.000   -0.000 -0.000 -0.000
 H         -0.000 -0.002  0.001    0.007  0.015 -0.009   -0.002  0.001  0.001
 TransDip   0.030  0.077  0.085   -0.354  0.257  0.162   -0.029  0.010  0.020

 Mode:                28                     29                     30
 Frequency:      1225.77                1289.20                1295.70
 Force Cnst:      1.0579                 1.8611                 2.1832
 Red. Mass:       1.1950                 1.9005                 2.2071
 IR Active:          YES                    YES                    YES
 IR Intens:        6.338                477.401                289.572
 Raman Active:       YES                    YES                    YES
               X      Y      Z        X      Y      Z        X      Y      Z
 C          0.004 -0.014  0.011   -0.032  0.151 -0.094   -0.035  0.193 -0.124
 O         -0.001  0.001 -0.002    0.004 -0.015  0.008   -0.008 -0.011  0.018
 C         -0.002  0.007 -0.003    0.026 -0.032 -0.004    0.034 -0.048  0.002
 H          0.020  0.016 -0.015   -0.154 -0.083  0.253   -0.188 -0.113  0.302
 H          0.002 -0.008 -0.014   -0.012  0.067  0.178   -0.015  0.084  0.226
 H          0.017 -0.004  0.001   -0.192 -0.044  0.055   -0.240 -0.046  0.062
 C         -0.065 -0.049 -0.062   -0.018  0.049 -0.041   -0.033  0.013  0.010
 H          0.421 -0.216 -0.179    0.265 -0.206 -0.097   -0.038  0.204 -0.017
 H         -0.361  0.302  0.283    0.259 -0.318 -0.058   -0.118  0.152 -0.035
 C          0.000  0.001 -0.002   -0.068  0.107  0.016    0.087 -0.139  0.009
 H         -0.262  0.392 -0.019    0.215 -0.304 -0.069   -0.319  0.440  0.142
 H          0.237 -0.384 -0.009    0.326 -0.457 -0.003   -0.373  0.311  0.060
 C          0.038  0.023  0.037   -0.032  0.041  0.015    0.013 -0.021  0.006
 O         -0.006 -0.004 -0.005    0.014  0.013 -0.023   -0.000 -0.004  0.002
 O         -0.006 -0.003 -0.006    0.017 -0.062  0.021   -0.017  0.049 -0.015
 O          0.027  0.024  0.024    0.014 -0.089  0.058    0.058 -0.097  0.022
 O         -0.000  0.000  0.000   -0.000  0.000 -0.000    0.000 -0.000 -0.000
 H          0.002  0.000 -0.001   -0.004 -0.004  0.004   -0.005 -0.006  0.005
 TransDip   0.005 -0.078 -0.019   -0.330  0.608 -0.105   -0.347  0.420  0.023

 Mode:                31                     32                     33
 Frequency:      1321.65                1404.17                1415.82
 Force Cnst:      1.1324                 1.6125                 1.9669
 Red. Mass:       1.1003                 1.3880                 1.6654
 IR Active:          YES                    YES                    YES
 IR Intens:        7.471                136.635                 76.300
 Raman Active:       YES                    YES                    YES
               X      Y      Z        X      Y      Z        X      Y      Z
 C          0.003 -0.016  0.011    0.017 -0.075  0.040    0.001  0.054 -0.042
 O          0.002  0.001 -0.002   -0.009  0.012  0.001   -0.008  0.000  0.009
 C         -0.001  0.003  0.005    0.055  0.064 -0.126   -0.004 -0.032  0.040
 H         -0.014 -0.017 -0.077   -0.178  0.009  0.286    0.040 -0.034 -0.129
 H          0.005 -0.024 -0.010   -0.003 -0.072  0.609   -0.015  0.084 -0.034
 H          0.005  0.035 -0.022   -0.406 -0.377  0.294   -0.049  0.138 -0.078
 C         -0.032 -0.020 -0.032    0.018 -0.027 -0.000    0.063 -0.119  0.013
 H         -0.278  0.492 -0.012   -0.151  0.109  0.036   -0.402  0.470  0.082
 H          0.284 -0.459  0.045   -0.088  0.104  0.062   -0.366  0.453  0.095
 C          0.047  0.018  0.041   -0.021  0.017  0.011   -0.040  0.033  0.020
 H         -0.199  0.401 -0.104    0.029 -0.039 -0.098    0.078 -0.096 -0.247
 H          0.126 -0.371  0.069    0.109  0.004 -0.017    0.269  0.021 -0.052
 C          0.018  0.006  0.013    0.016 -0.008 -0.010   -0.089  0.073  0.041
 O         -0.003 -0.002  0.001   -0.007 -0.004  0.009    0.036  0.019 -0.048
 O         -0.003  0.004 -0.003   -0.001  0.005 -0.002    0.023 -0.072  0.024
 O         -0.018  0.002 -0.017   -0.003  0.025 -0.019    0.030 -0.020 -0.015
 O          0.000 -0.000  0.000   -0.000 -0.000  0.000   -0.000 -0.000 -0.000
 H          0.001  0.001 -0.001    0.002  0.002 -0.002   -0.000 -0.003  0.001
 TransDip   0.061 -0.056  0.028    0.133 -0.323  0.135   -0.144  0.237 -0.038

 Mode:                34                     35                     36
 Frequency:      1433.09                1455.46                1464.45
 Force Cnst:      4.6991                 1.3542                 1.5535
 Red. Mass:       3.8834                 1.0850                 1.2295
 IR Active:          YES                    YES                    YES
 IR Intens:      285.181                 14.276                 45.488
 Raman Active:       YES                    YES                    YES
               X      Y      Z        X      Y      Z        X      Y      Z
 C         -0.008  0.069 -0.048   -0.010 -0.013  0.018    0.012  0.019 -0.018
 O         -0.002 -0.004  0.006    0.017 -0.006 -0.014   -0.014  0.004  0.011
 C         -0.008 -0.035  0.046    0.012 -0.047  0.016    0.000  0.024 -0.001
 H          0.044 -0.033 -0.123    0.309  0.059 -0.358   -0.239 -0.088  0.111
 H         -0.014  0.085 -0.085   -0.086  0.493  0.248    0.053 -0.317 -0.078
 H         -0.011  0.157 -0.094   -0.485  0.179 -0.046    0.199 -0.017 -0.016
 C          0.021 -0.032 -0.001    0.003 -0.018  0.010    0.033 -0.059  0.005
 H         -0.098  0.185  0.004    0.069  0.055 -0.015   -0.090  0.206  0.010
 H         -0.124  0.178 -0.014   -0.017  0.023 -0.089   -0.127  0.169 -0.036
 C         -0.133  0.073  0.086    0.005  0.033 -0.027   -0.011  0.085 -0.044
 H          0.085 -0.171 -0.517    0.028 -0.048  0.286    0.086 -0.144  0.546
 H          0.531  0.123 -0.066   -0.207 -0.195  0.049   -0.358 -0.439  0.099
 C          0.269 -0.174 -0.155    0.016 -0.014 -0.006    0.039 -0.033 -0.017
 O         -0.110 -0.058  0.147   -0.005 -0.002  0.007   -0.013 -0.006  0.016
 O         -0.048  0.151 -0.050   -0.003  0.010 -0.004   -0.006  0.022 -0.008
 O          0.028 -0.047  0.008   -0.003  0.007 -0.001    0.007 -0.008 -0.003
 O          0.000  0.000 -0.000    0.000 -0.000  0.000    0.000  0.000 -0.000
 H         -0.003 -0.003  0.003   -0.000  0.001 -0.000   -0.001 -0.001  0.001
 TransDip   0.402 -0.133 -0.336   -0.087  0.044  0.072    0.115 -0.179 -0.033

 Mode:                37                     38                     39
 Frequency:      1471.04                1500.11                1596.24
 Force Cnst:      1.3423                 1.4653                15.9740
 Red. Mass:       1.0528                 1.1052                10.6406
 IR Active:          YES                    YES                    YES
 IR Intens:       16.947                  6.446               1284.485
 Raman Active:       YES                    YES                    YES
               X      Y      Z        X      Y      Z        X      Y      Z
 C         -0.016 -0.003 -0.025   -0.002  0.016 -0.015   -0.002  0.001  0.001
 O         -0.002  0.002  0.005   -0.001 -0.001  0.002    0.002 -0.001 -0.001
 C         -0.039 -0.019 -0.021   -0.003 -0.012  0.007    0.000  0.000 -0.000
 H          0.453  0.298  0.421    0.065  0.023 -0.001   -0.002  0.000  0.004
 H         -0.060  0.388 -0.239   -0.015  0.088 -0.011    0.001 -0.003 -0.002
 H          0.236 -0.418  0.230   -0.023 -0.001  0.006    0.004 -0.003  0.002
 C          0.003 -0.020  0.003    0.033  0.045 -0.064    0.018  0.005 -0.022
 H         -0.014  0.135 -0.007   -0.544 -0.399  0.146   -0.049 -0.034 -0.009
 H         -0.017  0.016 -0.046    0.009 -0.046  0.693    0.015  0.013  0.058
 C         -0.002  0.016 -0.001    0.005  0.003 -0.006    0.016 -0.064  0.025
 H          0.008 -0.007  0.049    0.009 -0.019  0.095   -0.146  0.170  0.204
 H         -0.025 -0.073  0.015   -0.066 -0.071  0.020   -0.284  0.080  0.063
 C          0.006 -0.004 -0.003    0.008 -0.014  0.001    0.142  0.580 -0.514
 O         -0.002 -0.001  0.003   -0.002 -0.000  0.002   -0.144 -0.138  0.232
 O         -0.001  0.002 -0.001   -0.003  0.011 -0.004    0.045 -0.266  0.127
 O          0.005 -0.002  0.001    0.011 -0.011 -0.002   -0.005  0.000  0.005
 O         -0.000 -0.000 -0.000   -0.000 -0.000 -0.000   -0.000 -0.000 -0.000
 H          0.000  0.001 -0.000    0.002 -0.000 -0.001    0.000  0.000 -0.000
 TransDip   0.116  0.048  0.040   -0.014 -0.057  0.056    0.177  0.866 -0.732

 Mode:                40                     41                     42
 Frequency:      1764.40                3068.20                3077.36
 Force Cnst:     19.8628                 5.8869                 5.7921
 Red. Mass:      10.8292                 1.0614                 1.0381
 IR Active:          YES                    YES                    YES
 IR Intens:      729.364                 19.814                  0.512
 Raman Active:       YES                    YES                    YES
               X      Y      Z        X      Y      Z        X      Y      Z
 C          0.562 -0.227 -0.453    0.000 -0.000  0.000    0.000  0.001 -0.001
 O         -0.356  0.177  0.259   -0.000  0.000  0.000    0.000 -0.000 -0.000
 C         -0.050 -0.013  0.068   -0.000 -0.000  0.001   -0.025 -0.007  0.044
 H          0.178  0.025 -0.241   -0.003  0.006 -0.001   -0.194  0.374 -0.054
 H         -0.063  0.074  0.151    0.009  0.001  0.001    0.593  0.079  0.064
 H         -0.155  0.024  0.051   -0.001 -0.006 -0.007   -0.107 -0.386 -0.521
 C         -0.033  0.049 -0.002   -0.002 -0.004  0.003    0.005  0.005 -0.008
 H          0.119 -0.069 -0.028   -0.012 -0.004 -0.039    0.028  0.010  0.099
 H          0.076 -0.096 -0.064    0.045  0.034  0.006   -0.089 -0.064 -0.011
 C          0.006 -0.009  0.001    0.039  0.028 -0.050   -0.000 -0.000  0.000
 H         -0.006  0.007  0.000   -0.609 -0.409 -0.060    0.002  0.002  0.000
 H         -0.004  0.005  0.002    0.148  0.081  0.648   -0.001 -0.000 -0.001
 C         -0.004  0.006  0.001   -0.001  0.002 -0.000    0.000  0.000 -0.000
 O          0.002 -0.001 -0.001   -0.000 -0.000  0.000   -0.000 -0.000  0.000
 O          0.001 -0.004  0.001    0.000 -0.000  0.000   -0.000  0.000  0.000
 O         -0.017 -0.024  0.039   -0.000  0.001 -0.000    0.000 -0.000  0.000
 O         -0.000 -0.000  0.000   -0.000 -0.000 -0.000   -0.000  0.000 -0.000
 H          0.008  0.007 -0.009    0.000  0.000  0.000    0.000  0.000  0.000
 TransDip   0.643 -0.372 -0.444    0.052  0.084 -0.103    0.009  0.007 -0.020

 Mode:                43                     44                     45
 Frequency:      3092.44                3110.42                3148.91
 Force Cnst:      5.9533                 6.2847                 6.4383
 Red. Mass:       1.0566                 1.1025                 1.1020
 IR Active:          YES                    YES                    YES
 IR Intens:       33.018                 11.505                  1.956
 Raman Active:       YES                    YES                    YES
               X      Y      Z        X      Y      Z        X      Y      Z
 C          0.001 -0.001  0.001    0.000 -0.000  0.000   -0.000 -0.000 -0.001
 O         -0.000  0.000  0.000   -0.000  0.000  0.000   -0.000 -0.000 -0.000
 C         -0.002 -0.002  0.007   -0.001 -0.001 -0.000   -0.058 -0.041 -0.045
 H         -0.034  0.070 -0.011   -0.003  0.006 -0.001   -0.037  0.049 -0.016
 H          0.080  0.012  0.009    0.016  0.002  0.002    0.654  0.078  0.055
 H         -0.017 -0.063 -0.084    0.001  0.002  0.004    0.087  0.370  0.506
 C         -0.036 -0.034  0.043    0.012  0.007  0.018    0.022  0.014  0.025
 H         -0.169 -0.067 -0.593   -0.053 -0.021 -0.207   -0.076 -0.025 -0.283
 H          0.612  0.446  0.072   -0.088 -0.062 -0.006   -0.185 -0.137 -0.017
 C          0.000  0.001  0.006   -0.056 -0.036 -0.061    0.006  0.004  0.007
 H          0.015  0.012  0.001    0.541  0.360  0.032   -0.059 -0.040 -0.004
 H         -0.017 -0.009 -0.084    0.138  0.077  0.697   -0.016 -0.007 -0.075
 C         -0.001 -0.001  0.001   -0.001 -0.000 -0.000   -0.000 -0.000  0.000
 O          0.000  0.000 -0.000   -0.000 -0.000 -0.000   -0.000 -0.000 -0.000
 O          0.000 -0.000 -0.000    0.000  0.000  0.000    0.000  0.000 -0.000
 O         -0.001  0.002  0.000   -0.000  0.000  0.000   -0.000 -0.000 -0.000
 O          0.000 -0.000  0.000    0.000  0.000  0.000    0.000 -0.000 -0.000
 H         -0.000  0.000 -0.000   -0.000 -0.000 -0.000   -0.000  0.000  0.000
 TransDip  -0.117 -0.064  0.126   -0.074 -0.043 -0.067    0.017  0.008  0.041

 Mode:                46                     47                     48
 Frequency:      3155.07                3191.05                3850.84
 Force Cnst:      6.5015                 6.6250                 9.3199
 Red. Mass:       1.1085                 1.1042                 1.0667
 IR Active:          YES                    YES                    YES
 IR Intens:       32.185                  8.098                  1.599
 Raman Active:       YES                    YES                    YES
               X      Y      Z        X      Y      Z        X      Y      Z
 C          0.000  0.000 -0.000    0.002 -0.001 -0.001    0.000 -0.000  0.000
 O         -0.000 -0.000 -0.000   -0.001  0.000  0.000   -0.000  0.000  0.000
 C         -0.025 -0.017 -0.019    0.056 -0.075 -0.004    0.000  0.000 -0.000
 H         -0.011  0.012 -0.004   -0.405  0.795 -0.124    0.000 -0.000 -0.000
 H          0.275  0.033  0.022   -0.326 -0.053 -0.034   -0.000 -0.000 -0.000
 H          0.037  0.162  0.219    0.051  0.147  0.213    0.000  0.000  0.000
 C         -0.053 -0.034 -0.059   -0.000  0.000 -0.001   -0.000 -0.000  0.000
 H          0.174  0.057  0.658    0.004  0.002  0.014    0.000 -0.000 -0.000
 H          0.457  0.341  0.039   -0.006 -0.005 -0.001    0.001  0.000 -0.000
 C         -0.013 -0.008 -0.013   -0.000  0.000 -0.000   -0.000 -0.000 -0.000
 H          0.118  0.083  0.008    0.000 -0.000  0.000    0.000  0.000 -0.000
 H          0.031  0.013  0.149    0.000 -0.000  0.001    0.000 -0.000 -0.000
 C          0.000  0.000 -0.000   -0.000  0.000  0.000   -0.000  0.000  0.000
 O          0.000  0.000  0.000    0.000 -0.000 -0.000   -0.000 -0.000 -0.000
 O         -0.000 -0.000  0.000    0.000 -0.000  0.000    0.000 -0.000 -0.000
 O          0.000  0.000  0.000    0.000  0.000 -0.000   -0.000  0.000 -0.000
 O         -0.000 -0.000  0.000   -0.000 -0.000 -0.000   -0.031 -0.013 -0.053
 H          0.001  0.000 -0.001    0.000  0.000 -0.000    0.503  0.204  0.838
 TransDip  -0.115 -0.077 -0.118    0.041 -0.079  0.022   -0.001  0.012 -0.039

 STANDARD THERMODYNAMIC QUANTITIES AT   298.15 K  AND     1.00 ATM

   This Molecule has  0 Imaginary Frequencies
   Zero point vibrational energy:       82.490 kcal/mol

   Atom    1 Element C  Has Mass   12.00000
   Atom    2 Element O  Has Mass   15.99491
   Atom    3 Element C  Has Mass   12.00000
   Atom    4 Element H  Has Mass    1.00783
   Atom    5 Element H  Has Mass    1.00783
   Atom    6 Element H  Has Mass    1.00783
   Atom    7 Element C  Has Mass   12.00000
   Atom    8 Element H  Has Mass    1.00783
   Atom    9 Element H  Has Mass    1.00783
   Atom   10 Element C  Has Mass   12.00000
   Atom   11 Element H  Has Mass    1.00783
   Atom   12 Element H  Has Mass    1.00783
   Atom   13 Element C  Has Mass   12.00000
   Atom   14 Element O  Has Mass   15.99491
   Atom   15 Element O  Has Mass   15.99491
   Atom   16 Element O  Has Mass   15.99491
   Atom   17 Element O  Has Mass   15.99491
   Atom   18 Element H  Has Mass    1.00783
   Molecular Mass:   148.037190 amu
   Principal axes and moments of inertia in amu*Bohr^2:
                             1           2           3
    Eigenvalues --      965.58322  3203.11038  3505.27638
          X              -0.66841     0.70050    -0.25007
          Y               0.74379     0.63002    -0.22325
          Z              -0.00116     0.33522     0.94214
   Rotational Symmetry Number is   1
   The Molecule is an Asymmetric Top
   Translational Enthalpy:        0.889 kcal/mol
   Rotational Enthalpy:           0.889 kcal/mol
   Vibrational Enthalpy:         88.868 kcal/mol
   gas constant (RT):             0.592 kcal/mol
   Translational Entropy:        40.887  cal/mol.K
   Rotational Entropy:           30.761  cal/mol.K
   Vibrational Entropy:          46.619  cal/mol.K

   Total Enthalpy:               91.238 kcal/mol
   Total Entropy:               118.268  cal/mol.K
Archival summary:
1\1\c4-84\FREQ\ProcedureUnspecified\BasisUnspecified\558(2-,1)\lmgong\FriMar2021:33:242020FriMar2021:33:242020\0\\#,FREQ,ProcedureUnspecified,BasisUnspecified,\\-2,1\O\C,1,1.33818\O,2,1.2141,1,117.981\C,1,1.45035,2,120.868,3,-179.616,0\H,4,1.09179,1,109.366,2,-54.2576,0\H,4,1.09238,1,108.975,2,65.1142,0\C,2,1.50305,1,118.544,3,-179.722,0\H,7,1.08839,2,108.82,1,-176.558,0\H,7,1.09286,2,110.734,1,-55.5358,0\H,7,1.09372,2,109.801,1,63.4141,0\C,4,1.51248,1,106.846,2,-174.418,0\H,11,1.09513,4,110.051,1,-57.9363,0\H,11,1.0955,4,109.803,1,59.3854,0\C,11,1.53753,4,113.543,1,-179.36,0\O,14,1.2572,11,117.962,4,0.179149,0\O,14,1.25747,11,115.952,4,-179.854,0\H,1,2.58362,2,90.764,3,88.0081,0\O,17,0.962754,1,153.513,2,50.3887,0\\\@

 Total job time:  34762.61s(wall), 480672.98s(cpu) 
 Fri Mar 20 21:33:24 2020

        *************************************************************
        *                                                           *
        *  Thank you very much for using Q-Chem.  Have a nice day.  *
        *                                                           *
        *************************************************************


