11   
From 1-reactant-freq.out: Frame 1 / 67, Energy=    -417.7594967171
C       -0.4410911054    0.8373798842    0.3638802976
C        0.8387259526    0.4879819790    1.1527251392
O        0.7627302302   -0.3991102526    2.0383455964
O        1.8662897030    1.1565040314    0.8658724557
C       -1.4403408039   -0.2525494131    0.2368724036
H       -0.1578418226    1.2304603930   -0.6180790553
H       -0.8801790630    1.6983249789    0.9012285718
H       -2.1781170184   -0.2308308648   -0.5584649801
H       -1.5082292145   -1.0245933949    0.9939974437
O        1.3496353728   -1.2268217651   -2.2572743649
O        1.7521190859   -2.2111432645   -3.0457499270
