
Running Job 1 of 1 qc-freq1.in
qchem qc-freq1.in_24496.0 /scratch/leeping/1862932/qc-freq1.d/ 1
/home/leeping/opt/qchem/5.0.2-openmp/exe/qcprog.exe_s qc-freq1.in_24496.0 /scratch/leeping/1862932/qc-freq1.d/
Check license passed

                  Welcome to Q-Chem
     A Quantum Leap Into The Future Of Chemistry


 Q-Chem 5.0, Q-Chem, Inc., Pleasanton, CA (2017)

 Yihan Shao,  Zhengting Gan,  E. Epifanovsky,  A. T. B. Gilbert,  M. Wormit,  
 J. Kussmann,  A. W. Lange,  A. Behn,  Jia Deng,  Xintian Feng,  D. Ghosh,  
 M. Goldey,  P. R. Horn,  L. D. Jacobson,  I. Kaliman,  T. Kus,  A. Landau,  
 Jie Liu,  E. I. Proynov,  R. M. Richard,  R. P. Steele,  E. J. Sundstrom,  
 H. L. Woodcock III,  P. M. Zimmerman,  D. Zuev,  B. Albrecht,  E. Alguire,  
 S. A. Baeppler,  D. Barton,  Z. Benda,  Y. A. Bernard,  E. J. Berquist,  
 K. B. Bravaya,  H. Burton,  D. Casanova,  Chun-Min Chang,  Yunqing Chen,  
 A. Chien,  K. D. Closser,  M. P. Coons,  S. Dasgupta,  A. L. Dempwolff,  
 M. Diedenhofen,  Hainam Do,  R. G. Edgar,  Po-Tung Fang,  S. Fatehi,  
 Qingguo Feng,  J. Fosso-Tande,  Qinghui Ge,  A. Ghysels,  G. Gidofalvi,  
 J. Gomes,  J. Gonthier,  A. Gunina,  M. W. D. Hanson-Heine,  
 P. H. P. Harbach,  A. W. Hauser,  J. E. Herr,  E. G. Hohenstein,  
 Z. C. Holden,  Kerwin Hui,  T.-C. Jagau,  Hyunjun Ji,  B. Kaduk,  
 K. Khistyaev,  Jaehoon Kim,  P. Klunzinger,  K. Koh,  D. Kosenkov,  
 L. Koulias,  T. Kowalczyk,  C. M. Krauter,  A. Kunitsa,  Ka Un Lao,  
 A. Laurent,  K. V. Lawler,  Joonho Lee,  D. Lefrancois,  S. Lehtola,  
 D. S. Levine,  Yi-Pei Li,  You-Sheng Lin,  Fenglai Liu,  E. Livshits,  
 A. Luenser,  P. Manohar,  E. Mansoor,  S. F. Manzer,  Shan-Ping Mao,  
 Yuezhi Mao,  N. Mardirossian,  A. V. Marenich,  T. Markovich,  
 L. A. Martinez-Martinez,  S. A. Maurer,  N. J. Mayhall,  S. C. McKenzie,  
 J.-M. Mewes,  A. F. Morrison,  J. W. Mullinax,  K. Nanda,  
 T. S. Nguyen-Beck,  R. Olivares-Amaya,  J. A. Parkhill,  T. M. Perrine,  
 F. Plasser,  S. Prager,  A. Prociuk,  E. Ramos,  D. R. Rehn,  F. Rob,  
 M. Schneider,  N. Sergueev,  S. M. Sharada,  S. Sharma,  D. W. Small,  
 T. Stauch,  T. Stein,  Yu-Chuan Su,  A. J. W. Thom,  A. Tkatchenko,  
 T. Tsuchimochi,  L. Vogt,  O. Vydrov,  M. A. Watson,  J. Wenzel,  
 M. de Wergifosse,  T. A. Wesolowski,  A. White,  J. Witte,  A. Yamada,  
 Jun Yang,  K. Yao,  S. Yeganeh,  S. R. Yost,  Zhi-Qiang You,  A. Zech,  
 Igor Ying Zhang,  Xing Zhang,  Yan Zhao,  Ying Zhu,  B. R. Brooks,  
 G. K. L. Chan,  C. J. Cramer,  M. S. Gordon,  W. J. Hehre,  A. Klamt,  
 M. W. Schmidt,  C. D. Sherrill,  D. G. Truhlar,  A. Aspuru-Guzik,  R. Baer,  
 A. T. Bell,  N. A. Besley,  Jeng-Da Chai,  R. A. DiStasio Jr.,  A. Dreuw,  
 B. D. Dunietz,  T. R. Furlani,  Chao-Ping Hsu,  Yousung Jung,  Jing Kong,  
 D. S. Lambrecht,  WanZhen Liang,  C. Ochsenfeld,  V. A. Rassolov,  
 L. V. Slipchenko,  J. E. Subotnik,  T. Van Voorhis,  J. M. Herbert,  
 A. I. Krylov,  P. M. W. Gill,  M. Head-Gordon

 Contributors to earlier versions of Q-Chem not listed above: 
 R. D. Adamson,  B. Austin,  J. Baker,  G. J. O. Beran,  K. Brandhorst,  
 S. T. Brown,  E. F. C. Byrd,  A. K. Chakraborty,  C.-L. Cheng,  
 Siu Hung Chien,  D. M. Chipman,  D. L. Crittenden,  H. Dachsel,  
 R. J. Doerksen,  A. D. Dutoi,  L. Fusti-Molnar,  W. A. Goddard III,  
 A. Golubeva-Zadorozhnaya,  S. R. Gwaltney,  G. Hawkins,  A. Heyden,  
 S. Hirata,  G. Kedziora,  F. J. Keil,  C. Kelley,  Jihan Kim,  R. A. King,  
 R. Z. Khaliullin,  P. P. Korambath,  W. Kurlancheek,  A. M. Lee,  M. S. Lee,  
 S. V. Levchenko,  Ching Yeh Lin,  D. Liotard,  R. C. Lochan,  I. Lotan,  
 P. E. Maslen,  N. Nair,  D. P. O'Neill,  D. Neuhauser,  E. Neuscamman,  
 C. M. Oana,  R. Olson,  B. Peters,  R. Peverati,  P. A. Pieniazek,  
 Y. M. Rhee,  J. Ritchie,  M. A. Rohrdanz,  E. Rosta,  N. J. Russ,  
 H. F. Schaefer III,  N. E. Schultz,  N. Shenvi,  A. C. Simmonett,  A. Sodt,  
 D. Stuck,  K. S. Thanthiriwatte,  V. Vanovschi,  Tao Wang,  A. Warshel,  
 C. F. Williams,  Q. Wu,  X. Xu,  W. Zhang

 Please cite Q-Chem as follows:
 Y. Shao et al., Mol. Phys. 113, 184-215 (2015)
 DOI: 10.1080/00268976.2014.952696

 Q-Chem 5.0.2 for Intel X86 EM64T Linux

 Parts of Q-Chem use Armadillo 5.200.1 (Boston Tea Smuggler).
 http://arma.sourceforge.net/

 Q-Chem begins on Sat Mar 21 00:29:14 2020  

Host: 
0

     Scratch files written to /scratch/leeping/1862932/qc-freq1.d//
 Dec517 15110_ 26548  26544 5633   
Processing $rem in /home/leeping/opt/qchem/5.0.2-openmp/config/preferences.
 MEM_STATIC 2000
 MEM_TOTAL  8000
 SYMMETRY   OFF
 SYM_IGNORE TRUE 
Symmetry turned off for PCM/SM12/SMD calculation

Checking the input file for inconsistencies... 	...done.

--------------------------------------------------------------
User input:
--------------------------------------------------------------
$molecule
-2 1
C       -0.3393015153    0.7624825649    0.0875791043
C        0.7256308954    0.8419267390    1.1939242022
O        0.6607439319   -0.0108725973    2.1176056413
O        1.5776145266    1.7671387630    1.1149771850
C       -0.4841427891   -0.6249375374   -0.5178400676
H       -0.1111922146    1.4916915543   -0.6952185260
H       -1.3021783896    1.0419282351    0.5325794298
H       -1.3062677379   -0.6354665394   -1.2523649599
H       -0.7230999727   -1.3596108757    0.2653755154
O        0.7230094017   -0.9693673466   -1.1465872224
O        0.5791700105   -2.3053260954   -1.7001829228
$end

$rem
jobtype               freq
method                wb97x-v
basis                 def2-tzvpd
symmetry              off
sym_ignore            true
unrestricted          true
incdft                false
incfock               0
scf_convergence       8
thresh                14
!purecart             112
max_scf_cycles        1000
geom_opt_max_cycles   500
geom_opt_dmax         100
geom_opt_tol_gradient 10
solvent_method        pcm
ideriv                1
rpath_tol_displacement 1000
rpath_max_cycles      100
rpath_direction       1
!scf_guess            read
scf_guess             read
$end

$pcm
theory              cosmo
method              iswig
Radii               bondi
vdwScale            1.20
hpoints             110
heavypoints         110
$end

$solvent
dielectric 78.400000
$end

--------------------------------------------------------------
 ----------------------------------------------------------------
             Standard Nuclear Orientation (Angstroms)
    I     Atom           X                Y                Z
 ----------------------------------------------------------------
    1      C      -0.3393015153     0.7624825649     0.0875791043
    2      C       0.7256308954     0.8419267390     1.1939242022
    3      O       0.6607439319    -0.0108725973     2.1176056413
    4      O       1.5776145266     1.7671387630     1.1149771850
    5      C      -0.4841427891    -0.6249375374    -0.5178400676
    6      H      -0.1111922146     1.4916915543    -0.6952185260
    7      H      -1.3021783896     1.0419282351     0.5325794298
    8      H      -1.3062677379    -0.6354665394    -1.2523649599
    9      H      -0.7230999727    -1.3596108757     0.2653755154
   10      O       0.7230094017    -0.9693673466    -1.1465872224
   11      O       0.5791700105    -2.3053260954    -1.7001829228
 ----------------------------------------------------------------
 Nuclear Repulsion Energy =   289.6855338548 hartrees
 There are       28 alpha and       28 beta electrons
 Requested basis set is def2-TZVPD
 There are 115 shells and 307 basis functions

 Total QAlloc Memory Limit   8000 MB
 Mega-Array Size      1956 MB
 MEM_STATIC part      2000 MB
 Discretize the solute cavity surface with Lebedev spheres
	Using 110 Lebedev grid points for each H atom
	Using 110 Lebedev grid points for other atoms
	Atomic van der Waals radii will be scaled by 1.20
 Remove points where switching function is < 1.0e-08
 Keep 704 surface tesserae and discard 506 interior tesserae
 Molecular Surface Area = 140.975 Angst**2

                       Distance Matrix (Angstroms)
             C (  1)   C (  2)   O (  3)   O (  4)   C (  5)   H (  6)
   C (  2)  1.537658
   O (  3)  2.391480  1.258835
   O (  4)  2.395715  1.260209  2.237686
   C (  5)  1.520673  2.558394  2.938267  3.555132
   H (  6)  1.093870  2.165947  3.281092  2.490933  2.156542
   H (  7)  1.096926  2.142286  2.733818  3.026272  2.133308  1.768678
   H (  8)  2.164425  3.506513  3.951703  4.437747  1.102509  2.502682
   H (  9)  2.163838  2.794243  2.676728  3.973874  1.100124  3.070358
   O ( 10)  2.377178  2.959525  3.402579  3.651505  1.403984  2.637506
   O ( 11)  3.667579  4.278143  4.454961  5.050444  2.313498  3.987969
             H (  7)   H (  8)   H (  9)   O ( 10)
   H (  8)  2.449428
   H (  9)  2.484778  1.779889
   O ( 10)  3.311540  2.059282  2.058437
   O ( 11)  4.441713  2.558094  2.540414  1.453253
 
 A cutoff of  1.0D-14 yielded   6328 shell pairs
 There are     45522 function pairs (     58752 Cartesian)
 
 -------------------------------------------------------
 OpenMP Integral Computing Module                       
 Release: version 1.0, May 2013, Q-Chem Inc. Pittsburgh 
 -------------------------------------------------------
 Integral Job Info:
 Integral job number is                      11
 Integral operator is                         1
 short-range coefficients              16700000
 long-range coefficients              100000000
 Omega coefficients                         300
 if combine SR and LR in K                    1
 Integral screening is                        0
 Integral computing path is                   2
 max size of driver memory is            800000
 size of driver memory is                776718
 size of scratch memory is              4473992
 max col of scratch BK array              10000
 max len of scratch array in speh3          662
 max len of scratch index in speh4           32
 max int batch size is                      520
 min int batch size is                       52
 fixed nKL is                                52
 max L of basis functions is                  3
 order of int derivative is                   0
 number of shells is                        115
 number of basis is                         349
 number of cartesian basis is               349
 number of contracted shell pairs          6328
 number of primitive shell pairs          13483
 maxK2 (contraction) of shell pair           36
 max number of K2 of shell pair               1
 max number of CS2 of shell pair            948
 max number of PS2 of shell pair           1566
 mem total for path MDJ                  652836
 -------------------------------------------------------
 Smallest overlap matrix eigenvalue = 8.26E-06
 Guess MOs from SCF MO coefficient file
 Reading MOs from coefficient file
 Reading MOs from coefficient file
 Long-range K will be added via erf
 Coulomb attenuation parameter = 0.3 bohr**(-1)
 An unrestricted hybrid HF-DFT SCF calculation will be
 performed using Pulay DIIS extrapolation
 Polarizable Continuum solvation model will be applied
 Exchange:     0.1670 Hartree-Fock + 1.0000 wB97X-V + LR-HF
 Correlation:  1.0000 wB97X-V
 Using SG-2 standard quadrature grid
 Nonlocal Correlation:  VV10 with C = 0.0100 and b = 6.00
 Grid used for NLC:  SG-1 standard quadrature
 SCF converges when DIIS error is below 1.0E-08
Using Q-Chem read-in guess as SCF_GUESS READ specified.

 using 16 threads for integral computing
 -------------------------------------------------------
 OpenMP Integral computing Module                
 Release: version 1.0, May 2013, Q-Chem Inc. Pittsburgh 
 -------------------------------------------------------
 using 16 threads for integral computing
 -------------------------------------------------------
 OpenMP Integral computing Module                
 Release: version 1.0, May 2013, Q-Chem Inc. Pittsburgh 
 -------------------------------------------------------
 -------------------------------------------------------
 OpenMP BLAS3 based DFT computing Module                
 Release: version 1.0, May 2013, Q-Chem Inc. Pittsburgh 
 -------------------------------------------------------
 -------------------------------------------------------
 OpenMP BLAS3 based DFT computing Module                
 Release: version 1.0, May 2013, Q-Chem Inc. Pittsburgh 
 -------------------------------------------------------
 -------------------------------------------------------
 OpenMP BLAS3 based DFT computing Module                
 Release: version 1.0, May 2013, Q-Chem Inc. Pittsburgh 
 -------------------------------------------------------
 ---------------------------------------
  Cycle       Energy         DIIS Error
 ---------------------------------------
    1    -417.4956994140      5.90E-04
    2    -417.8284164037      6.86E-04
    3    -417.8363235438      3.02E-04
    4    -417.8375677414      2.19E-04
    5    -417.8383118799      1.65E-04
    6    -417.8386594219      1.33E-04
    7    -417.8389247360      1.03E-04
    8    -417.8391000037      7.61E-05
    9    -417.8392000879      5.55E-05
   10    -417.8392431397      4.37E-05
   11    -417.8392752450      3.21E-05
   12    -417.8392888977      2.57E-05
   13    -417.8392972657      2.07E-05
   14    -417.8393042285      1.55E-05
   15    -417.8393074589      1.23E-05
   16    -417.8393100247      8.95E-06
   17    -417.8393129436      6.28E-09 Convergence criterion met
 ---------------------------------------

************** Final PCM Free Energy Summary **************
 G_electrostatic  =      -0.34361444 hartree =    -215.62131618 kcal/mol
 G_cavitation     =       0.00000000 hartree =       0.00000000 kcal/mol
 G_dispersion     =       0.00000000 hartree =       0.00000000 kcal/mol
 G_repulsion      =       0.00000000 hartree =       0.00000000 kcal/mol
 --------------------------------------------------
 Non-electrostatic Free Energy =       0.00000000 hartree =       0.00000000 kcal/mol
 Total                         =      -0.34361444 hartree =    -215.62131618 kcal/mol
 --------------------------------------------------
 SCF Energy (H0 + V/2)                       =    -417.83931294 
 Solute Internal Energy (H0)                 =    -417.49569850 
 Total Free Energy (H0 + V/2 + non-elec)     =    -417.83931294 hartree
                                             = -262198.12622825 kcal/mol
***********************************************************

 <S^2> = 0.0000
 SCF time:  CPU 1327.84 s  wall 92.05 s
 SCF   energy in the final basis set = -417.83931294
 Total energy in the final basis set = -417.83931294
 
 --------------------------------------------------------------
 
                    Orbital Energies (a.u.)
 --------------------------------------------------------------
 
 Alpha MOs
 -- Occupied --
-19.204 -19.139 -19.137 -19.134 -10.339 -10.284 -10.245  -1.153
 -1.140  -1.047  -0.921  -0.835  -0.715  -0.605  -0.560  -0.555
 -0.527  -0.509  -0.500  -0.477  -0.449  -0.412  -0.391  -0.346
 -0.333  -0.328  -0.299  -0.267
 -- Virtual --
  0.065   0.078   0.091   0.093   0.108   0.126   0.128   0.131
  0.137   0.153   0.156   0.164   0.174   0.180   0.193   0.195
  0.208   0.219   0.220   0.239   0.244   0.265   0.272   0.284
  0.291   0.307   0.315   0.320   0.322   0.341   0.353   0.357
  0.363   0.371   0.378   0.382   0.386   0.407   0.411   0.418
  0.420   0.429   0.440   0.446   0.455   0.458   0.483   0.487
  0.502   0.506   0.512   0.531   0.532   0.538   0.549   0.557
  0.560   0.566   0.584   0.598   0.601   0.606   0.610   0.622
  0.629   0.643   0.653   0.660   0.676   0.683   0.693   0.698
  0.718   0.737   0.739   0.749   0.757   0.765   0.780   0.788
  0.805   0.811   0.819   0.825   0.835   0.842   0.849   0.856
  0.896   0.905   0.918   0.956   0.977   0.983   0.990   1.012
  1.036   1.065   1.073   1.095   1.113   1.129   1.159   1.166
  1.193   1.200   1.215   1.237   1.244   1.292   1.309   1.324
  1.345   1.363   1.387   1.398   1.438   1.470   1.497   1.513
  1.527   1.549   1.634   1.660   1.804   1.825   1.846   1.888
  1.894   1.906   1.931   1.937   1.953   1.956   1.981   1.995
  2.001   2.022   2.055   2.081   2.109   2.149   2.161   2.192
  2.214   2.249   2.259   2.274   2.313   2.329   2.388   2.396
  2.427   2.459   2.470   2.485   2.528   2.585   2.614   2.637
  2.668   2.716   2.728   2.779   2.793   2.824   2.843   2.872
  2.926   2.937   2.960   3.000   3.057   3.106   3.114   3.127
  3.153   3.183   3.220   3.256   3.270   3.290   3.317   3.354
  3.381   3.399   3.434   3.452   3.480   3.503   3.513   3.536
  3.555   3.577   3.583   3.608   3.615   3.656   3.682   3.701
  3.715   3.752   3.767   3.819   3.830   3.864   3.969   4.096
  4.110   4.171   4.214   4.231   4.298   4.398   4.417   4.569
  4.654   4.700   4.756   4.831   4.849   4.900   4.979   5.057
  5.111   5.149   5.232   5.299   5.325   5.354   5.365   5.369
  5.381   5.382   5.423   5.505   5.629   5.710   5.719   5.758
  5.787   5.961   5.995   6.094   6.176   6.249   6.282   6.308
  6.323   6.613   6.621   6.625   6.629   6.666   6.692   6.719
  6.756   6.772   6.860   6.916   6.954   6.976   7.051   7.081
  7.149   7.231   7.358   7.382   7.408   7.428   7.516   8.281
 22.785  22.805  23.717  43.956  44.279  44.409  44.591
 
 Beta MOs
 -- Occupied --
-19.204 -19.139 -19.137 -19.134 -10.339 -10.284 -10.245  -1.153
 -1.140  -1.047  -0.921  -0.835  -0.715  -0.605  -0.560  -0.555
 -0.527  -0.509  -0.500  -0.477  -0.449  -0.412  -0.391  -0.346
 -0.333  -0.328  -0.299  -0.267
 -- Virtual --
  0.065   0.078   0.091   0.093   0.108   0.126   0.128   0.131
  0.137   0.153   0.156   0.164   0.174   0.180   0.193   0.195
  0.208   0.219   0.220   0.239   0.244   0.265   0.272   0.284
  0.291   0.307   0.315   0.320   0.322   0.341   0.353   0.357
  0.363   0.371   0.378   0.382   0.386   0.407   0.411   0.418
  0.420   0.429   0.440   0.446   0.455   0.458   0.483   0.487
  0.502   0.506   0.512   0.531   0.532   0.538   0.549   0.557
  0.560   0.566   0.584   0.598   0.601   0.606   0.610   0.622
  0.629   0.643   0.653   0.660   0.676   0.683   0.693   0.698
  0.718   0.737   0.739   0.749   0.757   0.765   0.780   0.788
  0.805   0.811   0.819   0.825   0.835   0.842   0.849   0.856
  0.896   0.905   0.918   0.956   0.977   0.983   0.990   1.012
  1.036   1.065   1.073   1.095   1.113   1.129   1.159   1.166
  1.193   1.200   1.215   1.237   1.244   1.292   1.309   1.324
  1.345   1.363   1.387   1.398   1.438   1.470   1.497   1.513
  1.527   1.549   1.634   1.660   1.804   1.825   1.846   1.888
  1.894   1.906   1.931   1.937   1.953   1.956   1.981   1.995
  2.001   2.022   2.055   2.081   2.109   2.149   2.161   2.192
  2.214   2.249   2.259   2.274   2.313   2.329   2.388   2.396
  2.427   2.459   2.470   2.485   2.528   2.585   2.614   2.637
  2.668   2.716   2.728   2.779   2.793   2.824   2.843   2.872
  2.926   2.937   2.960   3.000   3.057   3.106   3.114   3.127
  3.153   3.183   3.220   3.256   3.270   3.290   3.317   3.354
  3.381   3.399   3.434   3.452   3.480   3.503   3.513   3.536
  3.555   3.577   3.583   3.608   3.615   3.656   3.682   3.701
  3.715   3.752   3.767   3.819   3.830   3.864   3.969   4.096
  4.110   4.171   4.214   4.231   4.298   4.398   4.417   4.569
  4.654   4.700   4.756   4.831   4.849   4.900   4.979   5.057
  5.111   5.149   5.232   5.299   5.325   5.354   5.365   5.369
  5.381   5.382   5.423   5.505   5.629   5.710   5.719   5.758
  5.787   5.961   5.995   6.094   6.176   6.249   6.282   6.308
  6.323   6.613   6.621   6.625   6.629   6.666   6.692   6.719
  6.756   6.772   6.860   6.916   6.954   6.976   7.051   7.081
  7.149   7.231   7.358   7.382   7.408   7.428   7.516   8.281
 22.785  22.805  23.717  43.956  44.279  44.409  44.591
 --------------------------------------------------------------
 
          Ground-State Mulliken Net Atomic Charges

     Atom                 Charge (a.u.)    Spin (a.u.)
  --------------------------------------------------------
      1 C                    -0.005845       0.000000
      2 C                     0.176136      -0.000000
      3 O                    -0.710835      -0.000000
      4 O                    -0.716576      -0.000000
      5 C                    -0.291130      -0.000000
      6 H                     0.166670      -0.000000
      7 H                     0.202601      -0.000000
      8 H                     0.154407      -0.000000
      9 H                     0.124841      -0.000000
     10 O                    -0.187707      -0.000000
     11 O                    -0.912561      -0.000000
  --------------------------------------------------------
  Sum of atomic charges =    -2.000000
  Sum of spin   charges =    -0.000000

 -----------------------------------------------------------------
                    Cartesian Multipole Moments
 -----------------------------------------------------------------
    Charge (ESU x 10^10)
                -9.6064
    Dipole Moment (Debye)
         X     -10.8278      Y       6.1960      Z      -0.6184
       Tot      12.4905
    Quadrupole Moments (Debye-Ang)
        XX     -58.8435     XY      -2.6820     YY     -79.8406
        XZ      -4.4172     YZ     -22.2927     ZZ     -78.7558
    Octopole Moments (Debye-Ang^2)
       XXX     -81.5158    XXY      -3.7253    XYY     -53.6362
       YYY      54.0885    XXZ     -13.5956    XYZ     -21.7798
       YYZ      23.7726    XZZ     -48.2331    YZZ      33.0051
       ZZZ     -27.3486
    Hexadecapole Moments (Debye-Ang^3)
      XXXX    -283.4895   XXXY     -48.4395   XXYY    -176.4693
      XYYY     -25.2414   YYYY    -706.0341   XXXZ     -64.8248
      XXYZ     -84.9405   XYYZ     -12.7325   YYYZ    -280.2262
      XXZZ    -161.0988   XYZZ      -2.8260   YYZZ    -257.5904
      XZZZ     -64.9501   YZZZ    -234.4185   ZZZZ    -670.5889
 -----------------------------------------------------------------
 Calculating analytic gradient of the SCF energy
 Gradient of SCF Energy
            1           2           3           4           5           6
    1  -0.0304470   0.0293380  -0.0030549  -0.0463983  -0.0737847  -0.0167796
    2   0.0798638  -0.0270273   0.0368919  -0.0485491  -0.0460743  -0.0477887
    3  -0.0623563   0.0608703  -0.0606776  -0.0036848   0.0264684   0.0606793
            7           8           9          10          11
    1   0.0610324   0.0591548   0.0132525   0.0137252  -0.0060385
    2  -0.0180584  -0.0041625   0.0596001   0.0648096  -0.0495049
    3  -0.0324737   0.0611437  -0.0594532   0.0216024  -0.0121183
 Max gradient component =       7.986E-02
 RMS gradient           =       4.529E-02
 Computing fast CPCM-ISWIG gradient
 Updating gradient with PCM contributions...
 -- total gradient after adding PCM contribution --
---------------------------------------------------
  Atom         X              Y              Z     
---------------------------------------------------
   1      -0.000015      -0.000003      -0.000005
   2      -0.000010       0.000007       0.000012
   3       0.000006       0.000001       0.000000
   4       0.000009      -0.000008      -0.000007
   5      -0.000008       0.000006      -0.000008
   6       0.000012       0.000001      -0.000003
   7       0.000008       0.000007      -0.000006
   8       0.000005      -0.000002       0.000001
   9      -0.000000       0.000004       0.000008
  10      -0.000001      -0.000020       0.000002
  11      -0.000004       0.000008       0.000006
---------------------------------------------------
 Number of fixed atoms: 0
 Gradient time:  CPU 258.91 s  wall 18.84 s
 ######################################################
 ######################################################
 # Starting finite difference calculation for IDERIV  #
 Finite diff step size:  1.88973e-03 a.u.
 ----------------------------------------------------------------
             Standard Nuclear Orientation (Angstroms)
    I     Atom           X                Y                Z
 ----------------------------------------------------------------
    1      C      -0.3383015153     0.7624825649     0.0875791043
    2      C       0.7256308954     0.8419267390     1.1939242022
    3      O       0.6607439319    -0.0108725973     2.1176056413
    4      O       1.5776145266     1.7671387630     1.1149771850
    5      C      -0.4841427891    -0.6249375374    -0.5178400676
    6      H      -0.1111922146     1.4916915543    -0.6952185260
    7      H      -1.3021783896     1.0419282351     0.5325794298
    8      H      -1.3062677379    -0.6354665394    -1.2523649599
    9      H      -0.7230999727    -1.3596108757     0.2653755154
   10      O       0.7230094017    -0.9693673466    -1.1465872224
   11      O       0.5791700105    -2.3053260954    -1.7001829228
 ----------------------------------------------------------------
 Nuclear Repulsion Energy =   289.6960218997 hartrees
 There are       28 alpha and       28 beta electrons
 Discretize the solute cavity surface with Lebedev spheres
	Using 110 Lebedev grid points for each H atom
	Using 110 Lebedev grid points for other atoms
	Atomic van der Waals radii will be scaled by 1.20
 Remove points where switching function is < 1.0e-08
 Keep 704 surface tesserae and discard 506 interior tesserae
 Molecular Surface Area = 140.969 Angst**2

                       Distance Matrix (Angstroms)
             C (  1)   C (  2)   O (  3)   O (  4)   C (  5)   H (  6)
   C (  2)  1.536966
   O (  3)  2.391062  1.258835
   O (  4)  2.394914  1.260209  2.237686
   C (  5)  1.520768  2.558394  2.938267  3.555132
   H (  6)  1.093662  2.165947  3.281092  2.490933  2.156542
   H (  7)  1.097804  2.142286  2.733818  3.026272  2.133308  1.768678
   H (  8)  2.164872  3.506513  3.951703  4.437747  1.102509  2.502682
   H (  9)  2.164015  2.794243  2.676728  3.973874  1.100124  3.070358
   O ( 10)  2.376731  2.959525  3.402579  3.651505  1.403984  2.637506
   O ( 11)  3.667328  4.278143  4.454961  5.050444  2.313498  3.987969
             H (  7)   H (  8)   H (  9)   O ( 10)
   H (  8)  2.449428
   H (  9)  2.484778  1.779889
   O ( 10)  3.311540  2.059282  2.058437
   O ( 11)  4.441713  2.558094  2.540414  1.453253
 
 Requested basis set is def2-TZVPD
 There are 115 shells and 307 basis functions
 A cutoff of  1.0D-14 yielded   6328 shell pairs
 There are     45522 function pairs (     58752 Cartesian)
 Smallest overlap matrix eigenvalue = 8.26E-06
 Guess MOs from SCF MO coefficient file
 Reading MOs from coefficient file
 Reading MOs from coefficient file
 Long-range K will be added via erf
 Coulomb attenuation parameter = 0.3 bohr**(-1)
 An unrestricted hybrid HF-DFT SCF calculation will be
 performed using Pulay DIIS extrapolation
 Polarizable Continuum solvation model will be applied
 Exchange:     0.1670 Hartree-Fock + 1.0000 wB97X-V + LR-HF
 Correlation:  1.0000 wB97X-V
 Using SG-2 standard quadrature grid
 Nonlocal Correlation:  VV10 with C = 0.0100 and b = 6.00
 Grid used for NLC:  SG-1 standard quadrature
 SCF converges when DIIS error is below 1.0E-08
Using Q-Chem read-in guess as SCF_GUESS READ specified.

 using 16 threads for integral computing
 -------------------------------------------------------
 OpenMP Integral computing Module                
 Release: version 1.0, May 2013, Q-Chem Inc. Pittsburgh 
 -------------------------------------------------------
 using 16 threads for integral computing
 -------------------------------------------------------
 OpenMP Integral computing Module                
 Release: version 1.0, May 2013, Q-Chem Inc. Pittsburgh 
 -------------------------------------------------------
 -------------------------------------------------------
 OpenMP BLAS3 based DFT computing Module                
 Release: version 1.0, May 2013, Q-Chem Inc. Pittsburgh 
 -------------------------------------------------------
 -------------------------------------------------------
 OpenMP BLAS3 based DFT computing Module                
 Release: version 1.0, May 2013, Q-Chem Inc. Pittsburgh 
 -------------------------------------------------------
 -------------------------------------------------------
 OpenMP BLAS3 based DFT computing Module                
 Release: version 1.0, May 2013, Q-Chem Inc. Pittsburgh 
 -------------------------------------------------------
 ---------------------------------------
  Cycle       Energy         DIIS Error
 ---------------------------------------
    1    -417.4954356383      5.91E-04
    2    -417.8284082176      6.86E-04
    3    -417.8363226203      3.02E-04
    4    -417.8375685253      2.18E-04
    5    -417.8383201108      1.64E-04
    6    -417.8386788194      1.31E-04
    7    -417.8389653028      9.71E-05
    8    -417.8391583867      6.47E-05
    9    -417.8392663922      3.54E-05
   10    -417.8393015997      1.70E-05
   11    -417.8393112476      4.68E-06
   12    -417.8393119886      1.12E-06
   13    -417.8393120306      2.56E-07
   14    -417.8393120328      4.39E-08
   15    -417.8393120329      1.24E-08
   16    -417.8393120329      2.78E-09 Convergence criterion met
 ---------------------------------------

************** Final PCM Free Energy Summary **************
 G_electrostatic  =      -0.34361767 hartree =    -215.62334035 kcal/mol
 G_cavitation     =       0.00000000 hartree =       0.00000000 kcal/mol
 G_dispersion     =       0.00000000 hartree =       0.00000000 kcal/mol
 G_repulsion      =       0.00000000 hartree =       0.00000000 kcal/mol
 --------------------------------------------------
 Non-electrostatic Free Energy =       0.00000000 hartree =       0.00000000 kcal/mol
 Total                         =      -0.34361767 hartree =    -215.62334035 kcal/mol
 --------------------------------------------------
 SCF Energy (H0 + V/2)                       =    -417.83931203 
 Solute Internal Energy (H0)                 =    -417.49569437 
 Total Free Energy (H0 + V/2 + non-elec)     =    -417.83931203 hartree
                                             = -262198.12565675 kcal/mol
***********************************************************

 <S^2> = 0.0000
 SCF time:  CPU 1237.18 s  wall 85.67 s
 SCF   energy in the final basis set = -417.83931203
 Total energy in the final basis set = -417.83931203
 
 --------------------------------------------------------------
 
                    Orbital Energies (a.u.)
 --------------------------------------------------------------
 
 Alpha MOs
 -- Occupied --
-19.204 -19.138 -19.137 -19.134 -10.339 -10.284 -10.245  -1.153
 -1.140  -1.047  -0.921  -0.835  -0.715  -0.605  -0.560  -0.555
 -0.527  -0.509  -0.500  -0.477  -0.449  -0.412  -0.391  -0.346
 -0.334  -0.328  -0.299  -0.267
 -- Virtual --
  0.065   0.078   0.091   0.093   0.108   0.126   0.128   0.131
  0.137   0.153   0.156   0.164   0.174   0.180   0.193   0.195
  0.208   0.219   0.220   0.239   0.244   0.265   0.272   0.284
  0.291   0.307   0.315   0.320   0.322   0.341   0.353   0.357
  0.363   0.371   0.378   0.382   0.386   0.407   0.411   0.418
  0.420   0.429   0.440   0.446   0.455   0.458   0.483   0.487
  0.502   0.506   0.512   0.531   0.532   0.538   0.549   0.557
  0.560   0.566   0.584   0.598   0.601   0.606   0.610   0.622
  0.629   0.643   0.653   0.660   0.676   0.683   0.693   0.698
  0.718   0.737   0.739   0.749   0.757   0.765   0.780   0.788
  0.805   0.811   0.819   0.825   0.835   0.842   0.849   0.856
  0.896   0.905   0.918   0.956   0.977   0.983   0.990   1.012
  1.036   1.065   1.073   1.095   1.113   1.129   1.159   1.166
  1.193   1.200   1.215   1.237   1.244   1.292   1.309   1.324
  1.345   1.363   1.387   1.398   1.438   1.470   1.497   1.513
  1.527   1.549   1.634   1.661   1.804   1.825   1.846   1.888
  1.894   1.906   1.931   1.937   1.953   1.957   1.981   1.995
  2.001   2.022   2.055   2.081   2.109   2.149   2.161   2.192
  2.214   2.249   2.259   2.275   2.313   2.330   2.388   2.396
  2.427   2.459   2.470   2.485   2.528   2.585   2.614   2.638
  2.668   2.716   2.728   2.779   2.793   2.824   2.843   2.872
  2.926   2.937   2.959   3.000   3.057   3.106   3.114   3.127
  3.153   3.183   3.220   3.256   3.270   3.290   3.317   3.354
  3.381   3.399   3.433   3.452   3.481   3.503   3.513   3.536
  3.556   3.578   3.583   3.608   3.615   3.656   3.682   3.701
  3.715   3.753   3.767   3.819   3.830   3.864   3.969   4.096
  4.110   4.171   4.215   4.232   4.299   4.398   4.418   4.568
  4.654   4.699   4.757   4.831   4.849   4.900   4.979   5.057
  5.111   5.149   5.232   5.299   5.325   5.354   5.366   5.369
  5.381   5.382   5.423   5.505   5.629   5.710   5.719   5.758
  5.787   5.961   5.995   6.094   6.176   6.249   6.282   6.308
  6.323   6.613   6.621   6.625   6.629   6.666   6.692   6.719
  6.756   6.772   6.860   6.916   6.954   6.976   7.051   7.081
  7.149   7.231   7.358   7.383   7.408   7.429   7.516   8.281
 22.785  22.804  23.718  43.956  44.279  44.409  44.591
 
 Beta MOs
 -- Occupied --
-19.204 -19.138 -19.137 -19.134 -10.339 -10.284 -10.245  -1.153
 -1.140  -1.047  -0.921  -0.835  -0.715  -0.605  -0.560  -0.555
 -0.527  -0.509  -0.500  -0.477  -0.449  -0.412  -0.391  -0.346
 -0.334  -0.328  -0.299  -0.267
 -- Virtual --
  0.065   0.078   0.091   0.093   0.108   0.126   0.128   0.131
  0.137   0.153   0.156   0.164   0.174   0.180   0.193   0.195
  0.208   0.219   0.220   0.239   0.244   0.265   0.272   0.284
  0.291   0.307   0.315   0.320   0.322   0.341   0.353   0.357
  0.363   0.371   0.378   0.382   0.386   0.407   0.411   0.418
  0.420   0.429   0.440   0.446   0.455   0.458   0.483   0.487
  0.502   0.506   0.512   0.531   0.532   0.538   0.549   0.557
  0.560   0.566   0.584   0.598   0.601   0.606   0.610   0.622
  0.629   0.643   0.653   0.660   0.676   0.683   0.693   0.698
  0.718   0.737   0.739   0.749   0.757   0.765   0.780   0.788
  0.805   0.811   0.819   0.825   0.835   0.842   0.849   0.856
  0.896   0.905   0.918   0.956   0.977   0.983   0.990   1.012
  1.036   1.065   1.073   1.095   1.113   1.129   1.159   1.166
  1.193   1.200   1.215   1.237   1.244   1.292   1.309   1.324
  1.345   1.363   1.387   1.398   1.438   1.470   1.497   1.513
  1.527   1.549   1.634   1.661   1.804   1.825   1.846   1.888
  1.894   1.906   1.931   1.937   1.953   1.957   1.981   1.995
  2.001   2.022   2.055   2.081   2.109   2.149   2.161   2.192
  2.214   2.249   2.259   2.275   2.313   2.330   2.388   2.396
  2.427   2.459   2.470   2.485   2.528   2.585   2.614   2.638
  2.668   2.716   2.728   2.779   2.793   2.824   2.843   2.872
  2.926   2.937   2.959   3.000   3.057   3.106   3.114   3.127
  3.153   3.183   3.220   3.256   3.270   3.290   3.317   3.354
  3.381   3.399   3.433   3.452   3.481   3.503   3.513   3.536
  3.556   3.578   3.583   3.608   3.615   3.656   3.682   3.701
  3.715   3.753   3.767   3.819   3.830   3.864   3.969   4.096
  4.110   4.171   4.215   4.232   4.299   4.398   4.418   4.568
  4.654   4.699   4.757   4.831   4.849   4.900   4.979   5.057
  5.111   5.149   5.232   5.299   5.325   5.354   5.366   5.369
  5.381   5.382   5.423   5.505   5.629   5.710   5.719   5.758
  5.787   5.961   5.995   6.094   6.176   6.249   6.282   6.308
  6.323   6.613   6.621   6.625   6.629   6.666   6.692   6.719
  6.756   6.772   6.860   6.916   6.954   6.976   7.051   7.081
  7.149   7.231   7.358   7.383   7.408   7.429   7.516   8.281
 22.785  22.804  23.718  43.956  44.279  44.409  44.591
 --------------------------------------------------------------
 
          Ground-State Mulliken Net Atomic Charges

     Atom                 Charge (a.u.)    Spin (a.u.)
  --------------------------------------------------------
      1 C                    -0.004855      -0.000000
      2 C                     0.175674      -0.000000
      3 O                    -0.710897       0.000000
      4 O                    -0.716604       0.000000
      5 C                    -0.291476       0.000000
      6 H                     0.166965       0.000000
      7 H                     0.202119       0.000000
      8 H                     0.154506       0.000000
      9 H                     0.124904      -0.000000
     10 O                    -0.187676      -0.000000
     11 O                    -0.912661      -0.000000
  --------------------------------------------------------
  Sum of atomic charges =    -2.000000
  Sum of spin   charges =    -0.000000

 -----------------------------------------------------------------
                    Cartesian Multipole Moments
 -----------------------------------------------------------------
    Charge (ESU x 10^10)
                -9.6064
    Dipole Moment (Debye)
         X     -10.8283      Y       6.1959      Z      -0.6197
       Tot      12.4911
    Quadrupole Moments (Debye-Ang)
        XX     -58.8448     XY      -2.6818     YY     -79.8422
        XZ      -4.4159     YZ     -22.2957     ZZ     -78.7579
    Octopole Moments (Debye-Ang^2)
       XXX     -81.5297    XXY      -3.7291    XYY     -53.6452
       YYY      54.0908    XXZ     -13.5993    XYZ     -21.7818
       YYZ      23.7705    XZZ     -48.2406    YZZ      33.0049
       ZZZ     -27.3534
    Hexadecapole Moments (Debye-Ang^3)
      XXXX    -283.4781   XXXY     -48.4494   XXYY    -176.4741
      XYYY     -25.2509   YYYY    -706.0553   XXXZ     -64.8229
      XXYZ     -84.9473   XYYZ     -12.7303   YYYZ    -280.2478
      XXZZ    -161.1000   XYZZ      -2.8307   YYZZ    -257.6015
      XZZZ     -64.9487   YZZZ    -234.4344   ZZZZ    -670.6065
 -----------------------------------------------------------------
 Calculating analytic gradient of the SCF energy
 Gradient of SCF Energy
            1           2           3           4           5           6
    1  -0.0296335   0.0291546  -0.0030364  -0.0464107  -0.0739060  -0.0168255
    2   0.0798294  -0.0271317   0.0368949  -0.0485598  -0.0460246  -0.0478595
    3  -0.0625753   0.0607928  -0.0606888  -0.0037069   0.0264645   0.0607914
            7           8           9          10          11
    1   0.0605535   0.0591560   0.0132449   0.0137440  -0.0060409
    2  -0.0178799  -0.0041576   0.0595728   0.0648170  -0.0495010
    3  -0.0322443   0.0611419  -0.0594585   0.0215962  -0.0121128
 Max gradient component =       7.983E-02
 RMS gradient           =       4.526E-02
 Computing fast CPCM-ISWIG gradient
 Updating gradient with PCM contributions...
 -- total gradient after adding PCM contribution --
---------------------------------------------------
  Atom         X              Y              Z     
---------------------------------------------------
   1       0.000979       0.000016      -0.000106
   2      -0.000244       0.000017      -0.000059
   3       0.000023      -0.000003      -0.000020
   4      -0.000034      -0.000052      -0.000058
   5      -0.000155      -0.000031      -0.000027
   6      -0.000101      -0.000068       0.000071
   7      -0.000464       0.000114       0.000167
   8       0.000003      -0.000043      -0.000014
   9      -0.000000      -0.000007       0.000003
  10       0.000002       0.000043       0.000031
  11      -0.000009       0.000013       0.000012
---------------------------------------------------
 Number of fixed atoms: 0
 Gradient time:  CPU 259.91 s  wall 18.76 s
 ----------------------------------------------------------------
             Standard Nuclear Orientation (Angstroms)
    I     Atom           X                Y                Z
 ----------------------------------------------------------------
    1      C      -0.3403015153     0.7624825649     0.0875791043
    2      C       0.7256308954     0.8419267390     1.1939242022
    3      O       0.6607439319    -0.0108725973     2.1176056413
    4      O       1.5776145266     1.7671387630     1.1149771850
    5      C      -0.4841427891    -0.6249375374    -0.5178400676
    6      H      -0.1111922146     1.4916915543    -0.6952185260
    7      H      -1.3021783896     1.0419282351     0.5325794298
    8      H      -1.3062677379    -0.6354665394    -1.2523649599
    9      H      -0.7230999727    -1.3596108757     0.2653755154
   10      O       0.7230094017    -0.9693673466    -1.1465872224
   11      O       0.5791700105    -2.3053260954    -1.7001829228
 ----------------------------------------------------------------
 Nuclear Repulsion Energy =   289.6750431182 hartrees
 There are       28 alpha and       28 beta electrons
 Discretize the solute cavity surface with Lebedev spheres
	Using 110 Lebedev grid points for each H atom
	Using 110 Lebedev grid points for other atoms
	Atomic van der Waals radii will be scaled by 1.20
 Remove points where switching function is < 1.0e-08
 Keep 704 surface tesserae and discard 506 interior tesserae
 Molecular Surface Area = 140.980 Angst**2

                       Distance Matrix (Angstroms)
             C (  1)   C (  2)   O (  3)   O (  4)   C (  5)   H (  6)
   C (  2)  1.538351
   O (  3)  2.391898  1.258835
   O (  4)  2.396515  1.260209  2.237686
   C (  5)  1.520578  2.558394  2.938267  3.555132
   H (  6)  1.094079  2.165947  3.281092  2.490933  2.156542
   H (  7)  1.096048  2.142286  2.733818  3.026272  2.133308  1.768678
   H (  8)  2.163978  3.506513  3.951703  4.437747  1.102509  2.502682
   H (  9)  2.163661  2.794243  2.676728  3.973874  1.100124  3.070358
   O ( 10)  2.377625  2.959525  3.402579  3.651505  1.403984  2.637506
   O ( 11)  3.667829  4.278143  4.454961  5.050444  2.313498  3.987969
             H (  7)   H (  8)   H (  9)   O ( 10)
   H (  8)  2.449428
   H (  9)  2.484778  1.779889
   O ( 10)  3.311540  2.059282  2.058437
   O ( 11)  4.441713  2.558094  2.540414  1.453253
 
 Requested basis set is def2-TZVPD
 There are 115 shells and 307 basis functions
 A cutoff of  1.0D-14 yielded   6328 shell pairs
 There are     45522 function pairs (     58752 Cartesian)
 Smallest overlap matrix eigenvalue = 8.27E-06
 Guess MOs from SCF MO coefficient file
 Reading MOs from coefficient file
 Reading MOs from coefficient file
 Long-range K will be added via erf
 Coulomb attenuation parameter = 0.3 bohr**(-1)
 An unrestricted hybrid HF-DFT SCF calculation will be
 performed using Pulay DIIS extrapolation
 Polarizable Continuum solvation model will be applied
 Exchange:     0.1670 Hartree-Fock + 1.0000 wB97X-V + LR-HF
 Correlation:  1.0000 wB97X-V
 Using SG-2 standard quadrature grid
 Nonlocal Correlation:  VV10 with C = 0.0100 and b = 6.00
 Grid used for NLC:  SG-1 standard quadrature
 SCF converges when DIIS error is below 1.0E-08
Using Q-Chem read-in guess as SCF_GUESS READ specified.

 using 16 threads for integral computing
 -------------------------------------------------------
 OpenMP Integral computing Module                
 Release: version 1.0, May 2013, Q-Chem Inc. Pittsburgh 
 -------------------------------------------------------
 using 16 threads for integral computing
 -------------------------------------------------------
 OpenMP Integral computing Module                
 Release: version 1.0, May 2013, Q-Chem Inc. Pittsburgh 
 -------------------------------------------------------
 -------------------------------------------------------
 OpenMP BLAS3 based DFT computing Module                
 Release: version 1.0, May 2013, Q-Chem Inc. Pittsburgh 
 -------------------------------------------------------
 -------------------------------------------------------
 OpenMP BLAS3 based DFT computing Module                
 Release: version 1.0, May 2013, Q-Chem Inc. Pittsburgh 
 -------------------------------------------------------
 -------------------------------------------------------
 OpenMP BLAS3 based DFT computing Module                
 Release: version 1.0, May 2013, Q-Chem Inc. Pittsburgh 
 -------------------------------------------------------
 ---------------------------------------
  Cycle       Energy         DIIS Error
 ---------------------------------------
    1    -417.4962215156      5.91E-04
    2    -417.8284269870      6.85E-04
    3    -417.8363307393      3.01E-04
    4    -417.8375756321      2.18E-04
    5    -417.8383341112      1.63E-04
    6    -417.8387303774      1.25E-04
    7    -417.8390616638      8.25E-05
    8    -417.8392445587      4.29E-05
    9    -417.8393042858      1.46E-05
   10    -417.8393113446      4.25E-06
   11    -417.8393119547      7.48E-07
   12    -417.8393119724      2.19E-07
   13    -417.8393119737      4.96E-08
   14    -417.8393119737      1.09E-08
   15    -417.8393119738      5.47E-09 Convergence criterion met
 ---------------------------------------

************** Final PCM Free Energy Summary **************
 G_electrostatic  =      -0.34361123 hartree =    -215.61929829 kcal/mol
 G_cavitation     =       0.00000000 hartree =       0.00000000 kcal/mol
 G_dispersion     =       0.00000000 hartree =       0.00000000 kcal/mol
 G_repulsion      =       0.00000000 hartree =       0.00000000 kcal/mol
 --------------------------------------------------
 Non-electrostatic Free Energy =       0.00000000 hartree =       0.00000000 kcal/mol
 Total                         =      -0.34361123 hartree =    -215.61929829 kcal/mol
 --------------------------------------------------
 SCF Energy (H0 + V/2)                       =    -417.83931197 
 Solute Internal Energy (H0)                 =    -417.49570075 
 Total Free Energy (H0 + V/2 + non-elec)     =    -417.83931197 hartree
                                             = -262198.12561965 kcal/mol
***********************************************************

 <S^2> = 0.0000
 SCF time:  CPU 1166.39 s  wall 81.07 s
 SCF   energy in the final basis set = -417.83931197
 Total energy in the final basis set = -417.83931197
 
 --------------------------------------------------------------
 
                    Orbital Energies (a.u.)
 --------------------------------------------------------------
 
 Alpha MOs
 -- Occupied --
-19.204 -19.139 -19.137 -19.134 -10.339 -10.284 -10.245  -1.153
 -1.140  -1.047  -0.921  -0.835  -0.715  -0.605  -0.560  -0.555
 -0.527  -0.509  -0.500  -0.477  -0.449  -0.412  -0.391  -0.346
 -0.333  -0.328  -0.299  -0.267
 -- Virtual --
  0.065   0.078   0.091   0.093   0.108   0.126   0.128   0.131
  0.137   0.153   0.156   0.164   0.174   0.180   0.193   0.195
  0.208   0.219   0.220   0.239   0.244   0.265   0.272   0.284
  0.291   0.307   0.315   0.320   0.322   0.341   0.353   0.357
  0.363   0.371   0.378   0.382   0.386   0.407   0.411   0.418
  0.420   0.429   0.440   0.446   0.455   0.458   0.483   0.487
  0.502   0.506   0.512   0.531   0.532   0.538   0.549   0.557
  0.560   0.566   0.584   0.598   0.601   0.606   0.610   0.622
  0.629   0.643   0.653   0.660   0.676   0.683   0.693   0.698
  0.718   0.737   0.739   0.749   0.757   0.765   0.780   0.788
  0.805   0.811   0.819   0.825   0.835   0.842   0.849   0.856
  0.896   0.905   0.918   0.956   0.977   0.983   0.990   1.012
  1.036   1.065   1.073   1.095   1.113   1.129   1.159   1.166
  1.193   1.200   1.215   1.237   1.244   1.292   1.309   1.323
  1.345   1.363   1.387   1.398   1.438   1.470   1.497   1.513
  1.527   1.549   1.634   1.660   1.804   1.825   1.846   1.888
  1.894   1.906   1.931   1.937   1.953   1.956   1.981   1.995
  2.001   2.022   2.055   2.081   2.109   2.149   2.161   2.192
  2.214   2.249   2.259   2.274   2.313   2.329   2.388   2.396
  2.427   2.459   2.470   2.485   2.528   2.585   2.614   2.637
  2.668   2.716   2.727   2.779   2.793   2.823   2.843   2.872
  2.926   2.937   2.960   3.000   3.057   3.106   3.114   3.127
  3.154   3.183   3.220   3.256   3.270   3.290   3.317   3.354
  3.381   3.399   3.434   3.452   3.480   3.503   3.513   3.536
  3.555   3.577   3.583   3.608   3.615   3.656   3.682   3.701
  3.715   3.752   3.767   3.819   3.830   3.864   3.969   4.096
  4.110   4.171   4.214   4.231   4.298   4.398   4.417   4.569
  4.654   4.700   4.756   4.831   4.849   4.900   4.979   5.057
  5.111   5.149   5.232   5.299   5.325   5.354   5.365   5.369
  5.381   5.382   5.423   5.505   5.629   5.709   5.719   5.758
  5.787   5.961   5.995   6.094   6.176   6.249   6.282   6.308
  6.322   6.613   6.620   6.625   6.629   6.666   6.692   6.719
  6.756   6.772   6.860   6.916   6.954   6.976   7.051   7.081
  7.149   7.231   7.358   7.382   7.407   7.428   7.516   8.281
 22.785  22.805  23.717  43.956  44.279  44.409  44.591
 
 Beta MOs
 -- Occupied --
-19.204 -19.139 -19.137 -19.134 -10.339 -10.284 -10.245  -1.153
 -1.140  -1.047  -0.921  -0.835  -0.715  -0.605  -0.560  -0.555
 -0.527  -0.509  -0.500  -0.477  -0.449  -0.412  -0.391  -0.346
 -0.333  -0.328  -0.299  -0.267
 -- Virtual --
  0.065   0.078   0.091   0.093   0.108   0.126   0.128   0.131
  0.137   0.153   0.156   0.164   0.174   0.180   0.193   0.195
  0.208   0.219   0.220   0.239   0.244   0.265   0.272   0.284
  0.291   0.307   0.315   0.320   0.322   0.341   0.353   0.357
  0.363   0.371   0.378   0.382   0.386   0.407   0.411   0.418
  0.420   0.429   0.440   0.446   0.455   0.458   0.483   0.487
  0.502   0.506   0.512   0.531   0.532   0.538   0.549   0.557
  0.560   0.566   0.584   0.598   0.601   0.606   0.610   0.622
  0.629   0.643   0.653   0.660   0.676   0.683   0.693   0.698
  0.718   0.737   0.739   0.749   0.757   0.765   0.780   0.788
  0.805   0.811   0.819   0.825   0.835   0.842   0.849   0.856
  0.896   0.905   0.918   0.956   0.977   0.983   0.990   1.012
  1.036   1.065   1.073   1.095   1.113   1.129   1.159   1.166
  1.193   1.200   1.215   1.237   1.244   1.292   1.309   1.323
  1.345   1.363   1.387   1.398   1.438   1.470   1.497   1.513
  1.527   1.549   1.634   1.660   1.804   1.825   1.846   1.888
  1.894   1.906   1.931   1.937   1.953   1.956   1.981   1.995
  2.001   2.022   2.055   2.081   2.109   2.149   2.161   2.192
  2.214   2.249   2.259   2.274   2.313   2.329   2.388   2.396
  2.427   2.459   2.470   2.485   2.528   2.585   2.614   2.637
  2.668   2.716   2.727   2.779   2.793   2.823   2.843   2.872
  2.926   2.937   2.960   3.000   3.057   3.106   3.114   3.127
  3.154   3.183   3.220   3.256   3.270   3.290   3.317   3.354
  3.381   3.399   3.434   3.452   3.480   3.503   3.513   3.536
  3.555   3.577   3.583   3.608   3.615   3.656   3.682   3.701
  3.715   3.752   3.767   3.819   3.830   3.864   3.969   4.096
  4.110   4.171   4.214   4.231   4.298   4.398   4.417   4.569
  4.654   4.700   4.756   4.831   4.849   4.900   4.979   5.057
  5.111   5.149   5.232   5.299   5.325   5.354   5.365   5.369
  5.381   5.382   5.423   5.505   5.629   5.709   5.719   5.758
  5.787   5.961   5.995   6.094   6.176   6.249   6.282   6.308
  6.322   6.613   6.620   6.625   6.629   6.666   6.692   6.719
  6.756   6.772   6.860   6.916   6.954   6.976   7.051   7.081
  7.149   7.231   7.358   7.382   7.407   7.428   7.516   8.281
 22.785  22.805  23.717  43.956  44.279  44.409  44.591
 --------------------------------------------------------------
 
          Ground-State Mulliken Net Atomic Charges

     Atom                 Charge (a.u.)    Spin (a.u.)
  --------------------------------------------------------
      1 C                    -0.006847       0.000000
      2 C                     0.176598      -0.000000
      3 O                    -0.710772      -0.000000
      4 O                    -0.716548      -0.000000
      5 C                    -0.290781      -0.000000
      6 H                     0.166376      -0.000000
      7 H                     0.203086      -0.000000
      8 H                     0.154310      -0.000000
      9 H                     0.124778      -0.000000
     10 O                    -0.187739      -0.000000
     11 O                    -0.912460      -0.000000
  --------------------------------------------------------
  Sum of atomic charges =    -2.000000
  Sum of spin   charges =     0.000000

 -----------------------------------------------------------------
                    Cartesian Multipole Moments
 -----------------------------------------------------------------
    Charge (ESU x 10^10)
                -9.6064
    Dipole Moment (Debye)
         X     -10.8272      Y       6.1961      Z      -0.6171
       Tot      12.4900
    Quadrupole Moments (Debye-Ang)
        XX     -58.8422     XY      -2.6822     YY     -79.8389
        XZ      -4.4185     YZ     -22.2896     ZZ     -78.7536
    Octopole Moments (Debye-Ang^2)
       XXX     -81.5019    XXY      -3.7216    XYY     -53.6271
       YYY      54.0862    XXZ     -13.5920    XYZ     -21.7778
       YYZ      23.7746    XZZ     -48.2257    YZZ      33.0052
       ZZZ     -27.3438
    Hexadecapole Moments (Debye-Ang^3)
      XXXX    -283.5009   XXXY     -48.4296   XXYY    -176.4645
      XYYY     -25.2319   YYYY    -706.0127   XXXZ     -64.8267
      XXYZ     -84.9336   XYYZ     -12.7346   YYYZ    -280.2045
      XXZZ    -161.0975   XYZZ      -2.8213   YYZZ    -257.5791
      XZZZ     -64.9514   YZZZ    -234.4025   ZZZZ    -670.5710
 -----------------------------------------------------------------
 Calculating analytic gradient of the SCF energy
 Gradient of SCF Energy
            1           2           3           4           5           6
    1  -0.0312629   0.0295220  -0.0030733  -0.0463861  -0.0736638  -0.0167334
    2   0.0798994  -0.0269232   0.0368890  -0.0485385  -0.0461243  -0.0477177
    3  -0.0621345   0.0609468  -0.0606665  -0.0036629   0.0264721   0.0605672
            7           8           9          10          11
    1   0.0615133   0.0591539   0.0132601   0.0137063  -0.0060362
    2  -0.0182379  -0.0041677   0.0596276   0.0648023  -0.0495090
    3  -0.0327045   0.0611455  -0.0594480   0.0216086  -0.0121238
 Max gradient component =       7.990E-02
 RMS gradient           =       4.532E-02
 Computing fast CPCM-ISWIG gradient
 Updating gradient with PCM contributions...
 -- total gradient after adding PCM contribution --
---------------------------------------------------
  Atom         X              Y              Z     
---------------------------------------------------
   1      -0.001012      -0.000020       0.000097
   2       0.000223      -0.000004       0.000083
   3      -0.000012       0.000005       0.000021
   4       0.000051       0.000036       0.000044
   5       0.000139       0.000043       0.000010
   6       0.000126       0.000069      -0.000076
   7       0.000482      -0.000101      -0.000181
   8       0.000006       0.000040       0.000016
   9      -0.000001       0.000014       0.000013
  10      -0.000004      -0.000083      -0.000028
  11       0.000001       0.000002      -0.000000
---------------------------------------------------
 Number of fixed atoms: 0
 Gradient time:  CPU 257.82 s  wall 18.57 s
 ----------------------------------------------------------------
             Standard Nuclear Orientation (Angstroms)
    I     Atom           X                Y                Z
 ----------------------------------------------------------------
    1      C      -0.3393015153     0.7634825649     0.0875791043
    2      C       0.7256308954     0.8419267390     1.1939242022
    3      O       0.6607439319    -0.0108725973     2.1176056413
    4      O       1.5776145266     1.7671387630     1.1149771850
    5      C      -0.4841427891    -0.6249375374    -0.5178400676
    6      H      -0.1111922146     1.4916915543    -0.6952185260
    7      H      -1.3021783896     1.0419282351     0.5325794298
    8      H      -1.3062677379    -0.6354665394    -1.2523649599
    9      H      -0.7230999727    -1.3596108757     0.2653755154
   10      O       0.7230094017    -0.9693673466    -1.1465872224
   11      O       0.5791700105    -2.3053260954    -1.7001829228
 ----------------------------------------------------------------
 Nuclear Repulsion Energy =   289.6753386630 hartrees
 There are       28 alpha and       28 beta electrons
 Discretize the solute cavity surface with Lebedev spheres
	Using 110 Lebedev grid points for each H atom
	Using 110 Lebedev grid points for other atoms
	Atomic van der Waals radii will be scaled by 1.20
 Remove points where switching function is < 1.0e-08
 Keep 704 surface tesserae and discard 506 interior tesserae
 Molecular Surface Area = 140.977 Angst**2

                       Distance Matrix (Angstroms)
             C (  1)   C (  2)   O (  3)   O (  4)   C (  5)   H (  6)
   C (  2)  1.537607
   O (  3)  2.391804  1.258835
   O (  4)  2.395295  1.260209  2.237686
   C (  5)  1.521585  2.558394  2.938267  3.555132
   H (  6)  1.093204  2.165947  3.281092  2.490933  2.156542
   H (  7)  1.096672  2.142286  2.733818  3.026272  2.133308  1.768678
   H (  8)  2.165071  3.506513  3.951703  4.437747  1.102509  2.502682
   H (  9)  2.164818  2.794243  2.676728  3.973874  1.100124  3.070358
   O ( 10)  2.377907  2.959525  3.402579  3.651505  1.403984  2.637506
   O ( 11)  3.668415  4.278143  4.454961  5.050444  2.313498  3.987969
             H (  7)   H (  8)   H (  9)   O ( 10)
   H (  8)  2.449428
   H (  9)  2.484778  1.779889
   O ( 10)  3.311540  2.059282  2.058437
   O ( 11)  4.441713  2.558094  2.540414  1.453253
 
 Requested basis set is def2-TZVPD
 There are 115 shells and 307 basis functions
 A cutoff of  1.0D-14 yielded   6328 shell pairs
 There are     45522 function pairs (     58752 Cartesian)
 Smallest overlap matrix eigenvalue = 8.27E-06
 Guess MOs from SCF MO coefficient file
 Reading MOs from coefficient file
 Reading MOs from coefficient file
 Long-range K will be added via erf
 Coulomb attenuation parameter = 0.3 bohr**(-1)
 An unrestricted hybrid HF-DFT SCF calculation will be
 performed using Pulay DIIS extrapolation
 Polarizable Continuum solvation model will be applied
 Exchange:     0.1670 Hartree-Fock + 1.0000 wB97X-V + LR-HF
 Correlation:  1.0000 wB97X-V
 Using SG-2 standard quadrature grid
 Nonlocal Correlation:  VV10 with C = 0.0100 and b = 6.00
 Grid used for NLC:  SG-1 standard quadrature
 SCF converges when DIIS error is below 1.0E-08
Using Q-Chem read-in guess as SCF_GUESS READ specified.

 using 16 threads for integral computing
 -------------------------------------------------------
 OpenMP Integral computing Module                
 Release: version 1.0, May 2013, Q-Chem Inc. Pittsburgh 
 -------------------------------------------------------
 using 16 threads for integral computing
 -------------------------------------------------------
 OpenMP Integral computing Module                
 Release: version 1.0, May 2013, Q-Chem Inc. Pittsburgh 
 -------------------------------------------------------
 -------------------------------------------------------
 OpenMP BLAS3 based DFT computing Module                
 Release: version 1.0, May 2013, Q-Chem Inc. Pittsburgh 
 -------------------------------------------------------
 -------------------------------------------------------
 OpenMP BLAS3 based DFT computing Module                
 Release: version 1.0, May 2013, Q-Chem Inc. Pittsburgh 
 -------------------------------------------------------
 -------------------------------------------------------
 OpenMP BLAS3 based DFT computing Module                
 Release: version 1.0, May 2013, Q-Chem Inc. Pittsburgh 
 -------------------------------------------------------
 ---------------------------------------
  Cycle       Energy         DIIS Error
 ---------------------------------------
    1    -417.4955397335      5.91E-04
    2    -417.8284200157      6.86E-04
    3    -417.8363263755      3.02E-04
    4    -417.8375713848      2.18E-04
    5    -417.8383255642      1.64E-04
    6    -417.8386965048      1.29E-04
    7    -417.8390021234      9.18E-05
    8    -417.8391988893      5.55E-05
    9    -417.8392900424      2.46E-05
   10    -417.8393089914      9.17E-06
   11    -417.8393118839      1.85E-06
   12    -417.8393119974      4.36E-07
   13    -417.8393120034      9.23E-08
   14    -417.8393120036      1.34E-08
   15    -417.8393120036      3.99E-09 Convergence criterion met
 ---------------------------------------

************** Final PCM Free Energy Summary **************
 G_electrostatic  =      -0.34361642 hartree =    -215.62255652 kcal/mol
 G_cavitation     =       0.00000000 hartree =       0.00000000 kcal/mol
 G_dispersion     =       0.00000000 hartree =       0.00000000 kcal/mol
 G_repulsion      =       0.00000000 hartree =       0.00000000 kcal/mol
 --------------------------------------------------
 Non-electrostatic Free Energy =       0.00000000 hartree =       0.00000000 kcal/mol
 Total                         =      -0.34361642 hartree =    -215.62255652 kcal/mol
 --------------------------------------------------
 SCF Energy (H0 + V/2)                       =    -417.83931200 
 Solute Internal Energy (H0)                 =    -417.49569559 
 Total Free Energy (H0 + V/2 + non-elec)     =    -417.83931200 hartree
                                             = -262198.12563841 kcal/mol
***********************************************************

 <S^2> = 0.0000
 SCF time:  CPU 1166.61 s  wall 81.16 s
 SCF   energy in the final basis set = -417.83931200
 Total energy in the final basis set = -417.83931200
 
 --------------------------------------------------------------
 
                    Orbital Energies (a.u.)
 --------------------------------------------------------------
 
 Alpha MOs
 -- Occupied --
-19.204 -19.138 -19.137 -19.134 -10.339 -10.284 -10.245  -1.153
 -1.140  -1.047  -0.921  -0.835  -0.715  -0.605  -0.560  -0.555
 -0.527  -0.509  -0.500  -0.477  -0.449  -0.412  -0.391  -0.346
 -0.333  -0.328  -0.299  -0.267
 -- Virtual --
  0.065   0.078   0.091   0.093   0.108   0.126   0.128   0.131
  0.137   0.153   0.156   0.164   0.174   0.180   0.193   0.195
  0.208   0.219   0.220   0.239   0.244   0.265   0.272   0.284
  0.291   0.307   0.315   0.320   0.322   0.341   0.353   0.357
  0.363   0.371   0.378   0.382   0.386   0.407   0.411   0.418
  0.420   0.429   0.440   0.446   0.455   0.458   0.483   0.487
  0.502   0.506   0.512   0.531   0.532   0.538   0.549   0.557
  0.560   0.566   0.584   0.598   0.601   0.606   0.610   0.622
  0.629   0.643   0.653   0.660   0.676   0.683   0.693   0.698
  0.718   0.737   0.739   0.749   0.757   0.765   0.780   0.788
  0.805   0.811   0.819   0.825   0.835   0.842   0.849   0.856
  0.896   0.905   0.918   0.956   0.977   0.983   0.990   1.012
  1.036   1.065   1.073   1.095   1.113   1.129   1.159   1.166
  1.193   1.200   1.215   1.237   1.244   1.292   1.309   1.323
  1.345   1.363   1.387   1.398   1.438   1.470   1.497   1.513
  1.527   1.549   1.634   1.660   1.804   1.825   1.846   1.889
  1.894   1.906   1.931   1.937   1.953   1.956   1.981   1.995
  2.001   2.022   2.055   2.081   2.109   2.149   2.161   2.192
  2.214   2.249   2.259   2.274   2.313   2.329   2.388   2.396
  2.427   2.459   2.470   2.485   2.528   2.585   2.614   2.637
  2.668   2.716   2.728   2.779   2.793   2.823   2.843   2.872
  2.926   2.937   2.960   3.000   3.057   3.106   3.114   3.127
  3.153   3.183   3.219   3.256   3.270   3.290   3.317   3.354
  3.381   3.399   3.434   3.452   3.481   3.503   3.513   3.536
  3.555   3.577   3.583   3.608   3.615   3.656   3.682   3.701
  3.715   3.752   3.767   3.819   3.830   3.864   3.969   4.096
  4.110   4.170   4.214   4.231   4.298   4.398   4.417   4.569
  4.653   4.699   4.756   4.831   4.849   4.900   4.979   5.057
  5.111   5.149   5.232   5.298   5.325   5.354   5.365   5.369
  5.381   5.382   5.423   5.505   5.629   5.710   5.719   5.758
  5.787   5.961   5.995   6.094   6.176   6.249   6.282   6.308
  6.323   6.613   6.621   6.625   6.629   6.666   6.692   6.719
  6.756   6.772   6.860   6.916   6.954   6.976   7.051   7.081
  7.149   7.231   7.358   7.382   7.407   7.428   7.516   8.281
 22.785  22.804  23.717  43.956  44.279  44.409  44.591
 
 Beta MOs
 -- Occupied --
-19.204 -19.138 -19.137 -19.134 -10.339 -10.284 -10.245  -1.153
 -1.140  -1.047  -0.921  -0.835  -0.715  -0.605  -0.560  -0.555
 -0.527  -0.509  -0.500  -0.477  -0.449  -0.412  -0.391  -0.346
 -0.333  -0.328  -0.299  -0.267
 -- Virtual --
  0.065   0.078   0.091   0.093   0.108   0.126   0.128   0.131
  0.137   0.153   0.156   0.164   0.174   0.180   0.193   0.195
  0.208   0.219   0.220   0.239   0.244   0.265   0.272   0.284
  0.291   0.307   0.315   0.320   0.322   0.341   0.353   0.357
  0.363   0.371   0.378   0.382   0.386   0.407   0.411   0.418
  0.420   0.429   0.440   0.446   0.455   0.458   0.483   0.487
  0.502   0.506   0.512   0.531   0.532   0.538   0.549   0.557
  0.560   0.566   0.584   0.598   0.601   0.606   0.610   0.622
  0.629   0.643   0.653   0.660   0.676   0.683   0.693   0.698
  0.718   0.737   0.739   0.749   0.757   0.765   0.780   0.788
  0.805   0.811   0.819   0.825   0.835   0.842   0.849   0.856
  0.896   0.905   0.918   0.956   0.977   0.983   0.990   1.012
  1.036   1.065   1.073   1.095   1.113   1.129   1.159   1.166
  1.193   1.200   1.215   1.237   1.244   1.292   1.309   1.323
  1.345   1.363   1.387   1.398   1.438   1.470   1.497   1.513
  1.527   1.549   1.634   1.660   1.804   1.825   1.846   1.889
  1.894   1.906   1.931   1.937   1.953   1.956   1.981   1.995
  2.001   2.022   2.055   2.081   2.109   2.149   2.161   2.192
  2.214   2.249   2.259   2.274   2.313   2.329   2.388   2.396
  2.427   2.459   2.470   2.485   2.528   2.585   2.614   2.637
  2.668   2.716   2.728   2.779   2.793   2.823   2.843   2.872
  2.926   2.937   2.960   3.000   3.057   3.106   3.114   3.127
  3.153   3.183   3.219   3.256   3.270   3.290   3.317   3.354
  3.381   3.399   3.434   3.452   3.481   3.503   3.513   3.536
  3.555   3.577   3.583   3.608   3.615   3.656   3.682   3.701
  3.715   3.752   3.767   3.819   3.830   3.864   3.969   4.096
  4.110   4.170   4.214   4.231   4.298   4.398   4.417   4.569
  4.653   4.699   4.756   4.831   4.849   4.900   4.979   5.057
  5.111   5.149   5.232   5.298   5.325   5.354   5.365   5.369
  5.381   5.382   5.423   5.505   5.629   5.710   5.719   5.758
  5.787   5.961   5.995   6.094   6.176   6.249   6.282   6.308
  6.323   6.613   6.621   6.625   6.629   6.666   6.692   6.719
  6.756   6.772   6.860   6.916   6.954   6.976   7.051   7.081
  7.149   7.231   7.358   7.382   7.407   7.428   7.516   8.281
 22.785  22.804  23.717  43.956  44.279  44.409  44.591
 --------------------------------------------------------------
 
          Ground-State Mulliken Net Atomic Charges

     Atom                 Charge (a.u.)    Spin (a.u.)
  --------------------------------------------------------
      1 C                    -0.005997      -0.000000
      2 C                     0.176351      -0.000000
      3 O                    -0.710849       0.000000
      4 O                    -0.716579       0.000000
      5 C                    -0.291527       0.000000
      6 H                     0.166908      -0.000000
      7 H                     0.202478       0.000000
      8 H                     0.154491      -0.000000
      9 H                     0.125020      -0.000000
     10 O                    -0.187757       0.000000
     11 O                    -0.912540      -0.000000
  --------------------------------------------------------
  Sum of atomic charges =    -2.000000
  Sum of spin   charges =     0.000000

 -----------------------------------------------------------------
                    Cartesian Multipole Moments
 -----------------------------------------------------------------
    Charge (ESU x 10^10)
                -9.6064
    Dipole Moment (Debye)
         X     -10.8279      Y       6.1961      Z      -0.6191
       Tot      12.4907
    Quadrupole Moments (Debye-Ang)
        XX     -58.8452     XY      -2.6826     YY     -79.8404
        XZ      -4.4186     YZ     -22.2949     ZZ     -78.7540
    Octopole Moments (Debye-Ang^2)
       XXX     -81.5214    XXY      -3.7327    XYY     -53.6367
       YYY      54.0733    XXZ     -13.5974    XYZ     -21.7806
       YYZ      23.7686    XZZ     -48.2327    YZZ      33.0017
       ZZZ     -27.3463
    Hexadecapole Moments (Debye-Ang^3)
      XXXX    -283.5051   XXXY     -48.4436   XXYY    -176.4834
      XYYY     -25.2392   YYYY    -706.0781   XXXZ     -64.8354
      XXYZ     -84.9469   XYYZ     -12.7359   YYYZ    -280.2359
      XXZZ    -161.1017   XYZZ      -2.8279   YYZZ    -257.5954
      XZZZ     -64.9515   YZZZ    -234.4245   ZZZZ    -670.5692
 -----------------------------------------------------------------
 Calculating analytic gradient of the SCF energy
 Gradient of SCF Energy
            1           2           3           4           5           6
    1  -0.0305321   0.0293477  -0.0030395  -0.0464342  -0.0738290  -0.0168330
    2   0.0806558  -0.0271501   0.0369114  -0.0485270  -0.0464528  -0.0480759
    3  -0.0624702   0.0608731  -0.0606490  -0.0037007   0.0262515   0.0610026
            7           8           9          10          11
    1   0.0612016   0.0591590   0.0132722   0.0137241  -0.0060368
    2  -0.0181052  -0.0041478   0.0596037   0.0647926  -0.0495049
    3  -0.0325023   0.0611815  -0.0594620   0.0215920  -0.0121164
 Max gradient component =       8.066E-02
 RMS gradient           =       4.539E-02
 Computing fast CPCM-ISWIG gradient
 Updating gradient with PCM contributions...
 -- total gradient after adding PCM contribution --
---------------------------------------------------
  Atom         X              Y              Z     
---------------------------------------------------
   1       0.000003       0.000998      -0.000109
   2       0.000013      -0.000149       0.000007
   3       0.000025       0.000005       0.000059
   4      -0.000070      -0.000011      -0.000032
   5      -0.000041      -0.000347      -0.000089
   6      -0.000062      -0.000310       0.000233
   7       0.000124      -0.000106      -0.000053
   8       0.000004      -0.000005       0.000004
   9      -0.000004      -0.000036      -0.000009
  10       0.000007      -0.000048      -0.000015
  11       0.000000       0.000010       0.000003
---------------------------------------------------
 Number of fixed atoms: 0
 Gradient time:  CPU 262.39 s  wall 18.91 s
 ----------------------------------------------------------------
             Standard Nuclear Orientation (Angstroms)
    I     Atom           X                Y                Z
 ----------------------------------------------------------------
    1      C      -0.3393015153     0.7614825649     0.0875791043
    2      C       0.7256308954     0.8419267390     1.1939242022
    3      O       0.6607439319    -0.0108725973     2.1176056413
    4      O       1.5776145266     1.7671387630     1.1149771850
    5      C      -0.4841427891    -0.6249375374    -0.5178400676
    6      H      -0.1111922146     1.4916915543    -0.6952185260
    7      H      -1.3021783896     1.0419282351     0.5325794298
    8      H      -1.3062677379    -0.6354665394    -1.2523649599
    9      H      -0.7230999727    -1.3596108757     0.2653755154
   10      O       0.7230094017    -0.9693673466    -1.1465872224
   11      O       0.5791700105    -2.3053260954    -1.7001829228
 ----------------------------------------------------------------
 Nuclear Repulsion Energy =   289.6957310393 hartrees
 There are       28 alpha and       28 beta electrons
 Discretize the solute cavity surface with Lebedev spheres
	Using 110 Lebedev grid points for each H atom
	Using 110 Lebedev grid points for other atoms
	Atomic van der Waals radii will be scaled by 1.20
 Remove points where switching function is < 1.0e-08
 Keep 704 surface tesserae and discard 506 interior tesserae
 Molecular Surface Area = 140.972 Angst**2

                       Distance Matrix (Angstroms)
             C (  1)   C (  2)   O (  3)   O (  4)   C (  5)   H (  6)
   C (  2)  1.537710
   O (  3)  2.391157  1.258835
   O (  4)  2.396134  1.260209  2.237686
   C (  5)  1.519761  2.558394  2.938267  3.555132
   H (  6)  1.094537  2.165947  3.281092  2.490933  2.156542
   H (  7)  1.097181  2.142286  2.733818  3.026272  2.133308  1.768678
   H (  8)  2.163779  3.506513  3.951703  4.437747  1.102509  2.502682
   H (  9)  2.162857  2.794243  2.676728  3.973874  1.100124  3.070358
   O ( 10)  2.376450  2.959525  3.402579  3.651505  1.403984  2.637506
   O ( 11)  3.666742  4.278143  4.454961  5.050444  2.313498  3.987969
             H (  7)   H (  8)   H (  9)   O ( 10)
   H (  8)  2.449428
   H (  9)  2.484778  1.779889
   O ( 10)  3.311540  2.059282  2.058437
   O ( 11)  4.441713  2.558094  2.540414  1.453253
 
 Requested basis set is def2-TZVPD
 There are 115 shells and 307 basis functions
 A cutoff of  1.0D-14 yielded   6328 shell pairs
 There are     45522 function pairs (     58752 Cartesian)
 Smallest overlap matrix eigenvalue = 8.25E-06
 Guess MOs from SCF MO coefficient file
 Reading MOs from coefficient file
 Reading MOs from coefficient file
 Long-range K will be added via erf
 Coulomb attenuation parameter = 0.3 bohr**(-1)
 An unrestricted hybrid HF-DFT SCF calculation will be
 performed using Pulay DIIS extrapolation
 Polarizable Continuum solvation model will be applied
 Exchange:     0.1670 Hartree-Fock + 1.0000 wB97X-V + LR-HF
 Correlation:  1.0000 wB97X-V
 Using SG-2 standard quadrature grid
 Nonlocal Correlation:  VV10 with C = 0.0100 and b = 6.00
 Grid used for NLC:  SG-1 standard quadrature
 SCF converges when DIIS error is below 1.0E-08
Using Q-Chem read-in guess as SCF_GUESS READ specified.

 using 16 threads for integral computing
 -------------------------------------------------------
 OpenMP Integral computing Module                
 Release: version 1.0, May 2013, Q-Chem Inc. Pittsburgh 
 -------------------------------------------------------
 using 16 threads for integral computing
 -------------------------------------------------------
 OpenMP Integral computing Module                
 Release: version 1.0, May 2013, Q-Chem Inc. Pittsburgh 
 -------------------------------------------------------
 -------------------------------------------------------
 OpenMP BLAS3 based DFT computing Module                
 Release: version 1.0, May 2013, Q-Chem Inc. Pittsburgh 
 -------------------------------------------------------
 -------------------------------------------------------
 OpenMP BLAS3 based DFT computing Module                
 Release: version 1.0, May 2013, Q-Chem Inc. Pittsburgh 
 -------------------------------------------------------
 -------------------------------------------------------
 OpenMP BLAS3 based DFT computing Module                
 Release: version 1.0, May 2013, Q-Chem Inc. Pittsburgh 
 -------------------------------------------------------
 ---------------------------------------
  Cycle       Energy         DIIS Error
 ---------------------------------------
    1    -417.4955006299      5.93E-04
    2    -417.8283975778      6.87E-04
    3    -417.8363262710      3.02E-04
    4    -417.8375752773      2.18E-04
    5    -417.8383436274      1.62E-04
    6    -417.8387381102      1.25E-04
    7    -417.8390660415      8.19E-05
    8    -417.8392472678      4.20E-05
    9    -417.8393050171      1.39E-05
   10    -417.8393114207      4.05E-06
   11    -417.8393119744      7.10E-07
   12    -417.8393119906      1.84E-07
   13    -417.8393119915      3.55E-08
   14    -417.8393119915      1.10E-08
   15    -417.8393119915      4.69E-09 Convergence criterion met
 ---------------------------------------

************** Final PCM Free Energy Summary **************
 G_electrostatic  =      -0.34361250 hartree =    -215.62009504 kcal/mol
 G_cavitation     =       0.00000000 hartree =       0.00000000 kcal/mol
 G_dispersion     =       0.00000000 hartree =       0.00000000 kcal/mol
 G_repulsion      =       0.00000000 hartree =       0.00000000 kcal/mol
 --------------------------------------------------
 Non-electrostatic Free Energy =       0.00000000 hartree =       0.00000000 kcal/mol
 Total                         =      -0.34361250 hartree =    -215.62009504 kcal/mol
 --------------------------------------------------
 SCF Energy (H0 + V/2)                       =    -417.83931199 
 Solute Internal Energy (H0)                 =    -417.49569950 
 Total Free Energy (H0 + V/2 + non-elec)     =    -417.83931199 hartree
                                             = -262198.12563081 kcal/mol
***********************************************************

 <S^2> = 0.0000
 SCF time:  CPU 1166.49 s  wall 81.07 s
 SCF   energy in the final basis set = -417.83931199
 Total energy in the final basis set = -417.83931199
 
 --------------------------------------------------------------
 
                    Orbital Energies (a.u.)
 --------------------------------------------------------------
 
 Alpha MOs
 -- Occupied --
-19.204 -19.139 -19.137 -19.134 -10.339 -10.284 -10.245  -1.153
 -1.140  -1.047  -0.921  -0.835  -0.715  -0.605  -0.560  -0.555
 -0.527  -0.509  -0.500  -0.477  -0.449  -0.412  -0.391  -0.346
 -0.333  -0.328  -0.299  -0.267
 -- Virtual --
  0.065   0.078   0.091   0.093   0.108   0.126   0.128   0.131
  0.137   0.153   0.156   0.164   0.174   0.180   0.193   0.195
  0.208   0.219   0.220   0.239   0.244   0.265   0.272   0.284
  0.291   0.307   0.315   0.320   0.322   0.341   0.353   0.357
  0.363   0.371   0.378   0.382   0.386   0.407   0.411   0.418
  0.420   0.429   0.441   0.446   0.455   0.458   0.483   0.487
  0.502   0.506   0.512   0.531   0.532   0.538   0.549   0.557
  0.560   0.566   0.584   0.598   0.601   0.606   0.610   0.622
  0.629   0.643   0.653   0.660   0.676   0.683   0.693   0.698
  0.718   0.737   0.739   0.749   0.757   0.765   0.780   0.788
  0.805   0.811   0.819   0.825   0.835   0.842   0.849   0.856
  0.896   0.905   0.918   0.956   0.977   0.983   0.990   1.012
  1.036   1.065   1.073   1.095   1.113   1.129   1.159   1.166
  1.193   1.200   1.215   1.237   1.244   1.292   1.309   1.324
  1.345   1.363   1.387   1.398   1.438   1.470   1.497   1.513
  1.527   1.549   1.634   1.661   1.804   1.825   1.847   1.888
  1.894   1.906   1.931   1.937   1.953   1.956   1.981   1.995
  2.001   2.022   2.055   2.081   2.109   2.149   2.161   2.192
  2.214   2.249   2.259   2.274   2.313   2.330   2.388   2.396
  2.427   2.459   2.470   2.485   2.528   2.585   2.614   2.637
  2.668   2.716   2.727   2.780   2.793   2.824   2.843   2.872
  2.926   2.937   2.959   3.000   3.057   3.106   3.114   3.127
  3.154   3.183   3.220   3.256   3.270   3.290   3.317   3.354
  3.381   3.399   3.434   3.452   3.480   3.503   3.513   3.536
  3.555   3.578   3.583   3.608   3.615   3.656   3.682   3.701
  3.715   3.753   3.767   3.819   3.830   3.864   3.969   4.096
  4.110   4.171   4.214   4.232   4.298   4.398   4.417   4.568
  4.655   4.700   4.756   4.831   4.850   4.900   4.979   5.057
  5.111   5.149   5.232   5.299   5.325   5.354   5.365   5.369
  5.381   5.382   5.423   5.505   5.629   5.710   5.719   5.758
  5.787   5.961   5.995   6.094   6.176   6.249   6.282   6.308
  6.323   6.613   6.620   6.625   6.629   6.666   6.692   6.719
  6.756   6.772   6.860   6.916   6.954   6.976   7.051   7.081
  7.149   7.231   7.358   7.382   7.408   7.429   7.516   8.281
 22.785  22.805  23.717  43.956  44.279  44.409  44.591
 
 Beta MOs
 -- Occupied --
-19.204 -19.139 -19.137 -19.134 -10.339 -10.284 -10.245  -1.153
 -1.140  -1.047  -0.921  -0.835  -0.715  -0.605  -0.560  -0.555
 -0.527  -0.509  -0.500  -0.477  -0.449  -0.412  -0.391  -0.346
 -0.333  -0.328  -0.299  -0.267
 -- Virtual --
  0.065   0.078   0.091   0.093   0.108   0.126   0.128   0.131
  0.137   0.153   0.156   0.164   0.174   0.180   0.193   0.195
  0.208   0.219   0.220   0.239   0.244   0.265   0.272   0.284
  0.291   0.307   0.315   0.320   0.322   0.341   0.353   0.357
  0.363   0.371   0.378   0.382   0.386   0.407   0.411   0.418
  0.420   0.429   0.441   0.446   0.455   0.458   0.483   0.487
  0.502   0.506   0.512   0.531   0.532   0.538   0.549   0.557
  0.560   0.566   0.584   0.598   0.601   0.606   0.610   0.622
[...]
    11   -7.024256223286115e-03  -9.209297565533783e-02  -4.719479821162034e-02


    11 Order 1, Length 33
    Atom      X          Y          Z
     1   -2.745239081560221e-03   2.366169014888914e-03   3.438765637805926e-03
     2   -1.803343315975634e-03   7.009909492856881e-04  -8.311559589009923e-04
     3    3.820966379416053e-04  -2.902157416378305e-04   6.178643140907589e-04
     4    1.109674778143956e-03   2.566956421472559e-04   2.461244417772259e-04
     5    7.695420434334495e-03   3.210582697072739e-02   1.078385525199825e-02
     6   -1.238379571193885e-05   3.975390387790801e-04   5.633216596221288e-06
     7    6.233777359385157e-05   9.768532045805632e-04   7.055629933067340e-04
     8    4.223774456441207e-03   2.254256190798119e-04   5.375233167906990e-04
     9    1.502949691151261e-03   9.802976814710269e-04  -2.003166113607250e-03
    10   -4.628084356453492e-02  -4.900311604471061e-02  -7.024256223286115e-03
    11    3.589172650856328e-02   1.130549126064509e-02  -6.453670523323301e-03

Order 1, Length 33
    Atom      X          Y          Z
     1    2.938522395482653e-03   1.013241739158735e-03  -1.902283818179521e-03
     2    1.510110604196034e-03   3.523675204382324e-05   1.588934829537919e-03
     3   -2.948607747384489e-04   3.550341019001020e-04  -8.867232217076454e-04
     4   -7.550961069452968e-04  -4.454865309547590e-04  -3.035451001735481e-04
     5   -6.210751093903471e-03  -2.801325294833446e-02  -1.102715508766925e-02
     6    1.144456395132943e-04   1.284569057248688e-04   2.305224535548620e-05
     7   -4.374751289093684e-04  -8.696154698036899e-04  -5.111234020983645e-04
     8   -1.676634328329295e-03   2.125559379254942e-03   3.660250523974307e-03
     9   -1.103620441450438e-03   4.241660101653806e-03   2.442226877754079e-04
    10   -5.307238169498526e-03  -2.139095664824452e-01  -9.209297565533783e-02
    11    1.130549126064509e-02   2.353770790633369e-01   1.012829392646205e-01

Order 1, Length 33
    Atom      X          Y          Z
     1    3.102727391533617e-03  -1.233862254143764e-03  -4.270976140912549e-04
     2    1.289915391539277e-03   4.936337222578107e-04   1.525726991111072e-03
     3   -2.542970101906510e-04   2.183444531325072e-04  -6.127205636558288e-04
     4   -6.471429812383905e-04  -3.650462473316764e-04  -2.794409511430016e-04
     5   -5.983509198973383e-03  -2.604867401740992e-02  -1.113669228223148e-02
     6   -1.479411425427027e-05  -7.607114930227334e-04  -2.016996994321504e-04
     7    2.748377990137461e-05  -1.094801160308451e-03   4.842904425441744e-05
     8    7.626869236678442e-04   1.847665648341098e-03   1.061099960723758e-03
     9   -4.216592920362936e-03   3.245247207079074e-04   1.965581719479306e-03
    10    1.240675747285646e-02  -7.465295130177922e-02  -4.719479821162034e-02
    11   -6.453670523323301e-03   1.012829392646205e-01   5.527180897812903e-02




 # Finishing finite difference calculation for IDERIV #
 ######################################################
 ######################################################
 Requested basis set is def2-TZVPD
 There are 115 shells and 307 basis functions
 **********************************************************************
 **                                                                  **
 **                       VIBRATIONAL ANALYSIS                       **
 **                       --------------------                       **
 **                                                                  **
 **        VIBRATIONAL FREQUENCIES (CM**-1) AND NORMAL MODES         **
 **     FORCE CONSTANTS (mDYN/ANGSTROM) AND REDUCED MASSES (AMU)     **
 **                  INFRARED INTENSITIES (KM/MOL)                   **
 **                                                                  **
 **********************************************************************
 

 Mode:                 1                      2                      3
 Frequency:        60.11                 107.13                 143.55
 Force Cnst:      0.0211                 0.0625                 0.0798
 Red. Mass:       9.9270                 9.2380                 6.5695
 IR Active:          YES                    YES                    YES
 IR Intens:        8.064                 16.052                  1.098
 Raman Active:       YES                    YES                    YES
               X      Y      Z        X      Y      Z        X      Y      Z
 C          0.188  0.067 -0.136   -0.169  0.123  0.021   -0.067  0.006  0.009
 C          0.050  0.052  0.003   -0.011 -0.101 -0.118   -0.011 -0.001 -0.049
 O          0.210 -0.215 -0.236    0.098 -0.276 -0.272    0.080 -0.026 -0.067
 O         -0.242  0.353  0.361    0.028 -0.137 -0.092   -0.041  0.024 -0.092
 C          0.020  0.057 -0.060   -0.152  0.180 -0.102   -0.049  0.026 -0.042
 H          0.375 -0.013 -0.156   -0.246  0.231  0.100   -0.100  0.035  0.028
 H          0.184  0.266 -0.265   -0.123  0.050  0.163   -0.060 -0.030  0.047
 H          0.030  0.125 -0.073   -0.039  0.240 -0.233    0.279  0.200 -0.407
 H         -0.085  0.129 -0.027   -0.283  0.143 -0.181   -0.542  0.043 -0.169
 O         -0.018 -0.137 -0.027   -0.041  0.185  0.109    0.156 -0.172  0.465
 O         -0.175 -0.164  0.080    0.208  0.035  0.413   -0.074  0.136 -0.213
 TransDip   0.067  0.041 -0.046   -0.094  0.065 -0.059   -0.018 -0.014  0.025

 Mode:                 4                      5                      6
 Frequency:       249.76                 322.37                 423.32
 Force Cnst:      0.1033                 0.2532                 0.3878
 Red. Mass:       2.8098                 4.1348                 3.6729
 IR Active:          YES                    YES                    YES
 IR Intens:        6.377                  8.233                 15.003
 Raman Active:       YES                    YES                    YES
               X      Y      Z        X      Y      Z        X      Y      Z
 C          0.038  0.040 -0.097   -0.103  0.041  0.059   -0.124  0.060  0.111
 C         -0.003  0.015 -0.071   -0.068  0.037 -0.021    0.050  0.139 -0.023
 O         -0.090 -0.056 -0.145   -0.070 -0.058 -0.109   -0.079  0.038 -0.139
 O          0.043 -0.020  0.028   -0.004 -0.028 -0.029    0.170  0.054  0.145
 C         -0.002 -0.092  0.242    0.274  0.017  0.056   -0.046  0.004  0.010
 H          0.186 -0.181 -0.261   -0.395  0.217  0.139   -0.615  0.257  0.147
 H          0.064  0.280 -0.197   -0.168 -0.369  0.174   -0.089 -0.340  0.444
 H         -0.131 -0.371  0.394    0.231 -0.214  0.115   -0.061  0.078  0.024
 H          0.270  0.059  0.464    0.466  0.038  0.129   -0.099  0.019  0.006
 O         -0.050  0.030  0.084    0.223  0.027 -0.043   -0.059 -0.112 -0.016
 O          0.048  0.087 -0.048   -0.235  0.009  0.075    0.112 -0.133 -0.102
 TransDip   0.009 -0.023  0.077    0.084  0.016  0.033   -0.089  0.048  0.071

 Mode:                 7                      8                      9
 Frequency:       533.41                 617.25                 721.33
 Force Cnst:      0.7820                 1.0208                 0.7593
 Red. Mass:       4.6648                 4.5476                 2.4769
 IR Active:          YES                    YES                    YES
 IR Intens:       47.938                 33.844                 12.035
 Raman Active:       YES                    YES                    YES
               X      Y      Z        X      Y      Z        X      Y      Z
 C         -0.050  0.279  0.039   -0.252  0.034 -0.189    0.006 -0.072  0.140
 C         -0.163  0.036  0.139   -0.143  0.108  0.042   -0.090  0.178  0.151
 O          0.089 -0.086  0.058    0.220  0.090  0.036   -0.037 -0.073 -0.088
 O         -0.081 -0.080 -0.131    0.119 -0.126  0.179    0.083  0.040 -0.073
 C          0.059  0.182  0.104   -0.034 -0.108 -0.083    0.001 -0.073  0.017
 H          0.285  0.279  0.143   -0.021 -0.127 -0.279    0.371 -0.380 -0.048
 H         -0.179  0.327 -0.272   -0.380  0.139 -0.535   -0.113  0.263 -0.334
 H         -0.034  0.044  0.218    0.012 -0.390 -0.127    0.098  0.314 -0.108
 H          0.132  0.386  0.317    0.077 -0.065 -0.006   -0.191 -0.368 -0.328
 O         -0.003 -0.106 -0.038    0.038  0.017 -0.001    0.015  0.018 -0.029
 O          0.099 -0.167 -0.126   -0.035  0.021  0.019   -0.010  0.000  0.011
 TransDip  -0.069  0.176  0.116   -0.137 -0.021 -0.125   -0.012  0.000  0.110

 Mode:                10                     11                     12
 Frequency:       870.17                 882.66                 985.63
 Force Cnst:      1.3969                 1.9077                 2.9123
 Red. Mass:       3.1312                 4.1559                 5.0880
 IR Active:          YES                    YES                    YES
 IR Intens:       13.341                 17.737                  4.180
 Raman Active:       YES                    YES                    YES
               X      Y      Z        X      Y      Z        X      Y      Z
 C         -0.102  0.034  0.136   -0.166  0.100 -0.047    0.083 -0.142 -0.156
 C          0.049 -0.111 -0.169    0.216 -0.045  0.122   -0.037  0.063  0.080
 O          0.006  0.103 -0.030   -0.098 -0.158  0.114    0.008 -0.050  0.023
 O         -0.053 -0.041  0.068    0.082  0.190 -0.084    0.031  0.011 -0.021
 C         -0.064  0.018  0.095   -0.123 -0.077 -0.102   -0.014  0.077  0.036
 H          0.259 -0.318 -0.089    0.015  0.053 -0.049   -0.326 -0.074 -0.210
 H          0.098  0.700  0.131   -0.049  0.414  0.015   -0.064 -0.638 -0.152
 H          0.080  0.162 -0.049   -0.072 -0.706 -0.135   -0.061  0.226  0.089
 H         -0.078 -0.255 -0.191    0.206  0.030  0.100   -0.077  0.189  0.116
 O          0.136  0.113 -0.015    0.090  0.047  0.010    0.004  0.328  0.148
 O         -0.024 -0.149 -0.057   -0.026 -0.049 -0.016   -0.034 -0.269 -0.110
 TransDip  -0.110 -0.027 -0.030    0.080 -0.011  0.108   -0.049 -0.043  0.001

 Mode:                13                     14                     15
 Frequency:      1027.81                1083.03                1135.49
 Force Cnst:      1.2671                 1.2936                 3.0535
 Red. Mass:       2.0358                 1.8718                 4.0196
 IR Active:          YES                    YES                    YES
 IR Intens:        7.335                 13.253                 94.608
 Raman Active:       YES                    YES                    YES
               X      Y      Z        X      Y      Z        X      Y      Z
 C         -0.129 -0.011 -0.074    0.077  0.146 -0.100   -0.021  0.181  0.045
 C          0.105 -0.068 -0.028   -0.041  0.043  0.038    0.051 -0.067 -0.060
 O         -0.022 -0.043  0.065    0.017 -0.039  0.041   -0.011  0.013  0.008
 O          0.017  0.054  0.000   -0.025 -0.030 -0.019   -0.016  0.012  0.006
 C          0.095  0.087  0.125   -0.043 -0.119  0.093    0.275 -0.198 -0.071
 H         -0.221 -0.312 -0.391   -0.467  0.117 -0.283    0.247  0.325  0.257
 H         -0.287 -0.133 -0.351    0.294  0.082  0.433   -0.195 -0.020 -0.217
 H          0.162  0.545  0.032    0.153  0.158 -0.135    0.375 -0.046 -0.237
 H         -0.222 -0.057 -0.115   -0.280 -0.367 -0.229   -0.038 -0.381 -0.303
 O         -0.029 -0.052 -0.041    0.039  0.010 -0.041   -0.228  0.104  0.107
 O          0.016  0.032  0.011   -0.007  0.007  0.009    0.002 -0.059 -0.026
 TransDip   0.063  0.059  0.009   -0.026  0.112 -0.017    0.221 -0.156 -0.154

 Mode:                16                     17                     18
 Frequency:      1226.06                1254.13                1332.50
 Force Cnst:      1.1427                 1.2154                 1.6902
 Red. Mass:       1.2902                 1.3115                 1.6157
 IR Active:          YES                    YES                    YES
 IR Intens:       39.141                 26.863                 42.411
 Raman Active:       YES                    YES                    YES
               X      Y      Z        X      Y      Z        X      Y      Z
 C         -0.005  0.005  0.009   -0.041 -0.078 -0.008   -0.092 -0.087 -0.121
 C         -0.007  0.024  0.011   -0.020  0.034  0.025   -0.081 -0.004 -0.043
 O          0.004 -0.012  0.012    0.004 -0.007 -0.001    0.002 -0.036  0.038
 O         -0.011 -0.015 -0.003    0.002 -0.009 -0.003    0.063  0.055  0.000
 C          0.056  0.056 -0.096    0.094  0.050 -0.002    0.047 -0.024  0.020
 H         -0.238 -0.280 -0.335   -0.044 -0.246 -0.165    0.311  0.371  0.430
 H          0.153  0.244  0.194    0.269  0.332  0.394    0.231  0.284  0.342
 H         -0.290  0.103  0.275    0.411 -0.266 -0.346   -0.164  0.435  0.245
 H          0.568 -0.249 -0.231   -0.197  0.337  0.190    0.002 -0.042 -0.020
 O         -0.042 -0.020  0.062   -0.066  0.007 -0.009    0.005 -0.000  0.007
 O          0.005 -0.005 -0.007    0.007 -0.006 -0.003   -0.000  0.001 -0.000
 TransDip   0.122  0.091 -0.130    0.158  0.036  0.037   -0.142 -0.104 -0.111

 Mode:                19                     20                     21
 Frequency:      1384.15                1441.20                1456.22
 Force Cnst:      1.7147                 2.5661                 2.0730
 Red. Mass:       1.5191                 2.0969                 1.6592
 IR Active:          YES                    YES                    YES
 IR Intens:       36.112                175.881                164.863
 Raman Active:       YES                    YES                    YES
               X      Y      Z        X      Y      Z        X      Y      Z
 C          0.006  0.053  0.070   -0.018 -0.083 -0.046   -0.083  0.055 -0.063
 C         -0.010  0.007 -0.038    0.161  0.016  0.161    0.101  0.004  0.130
 O          0.000 -0.016  0.022   -0.009  0.069 -0.088   -0.004  0.052 -0.068
 O         -0.001  0.003  0.001   -0.085 -0.080 -0.008   -0.054 -0.049 -0.006
 C          0.033 -0.150 -0.104    0.034 -0.027  0.000    0.018 -0.017 -0.011
 H         -0.125 -0.197 -0.208   -0.459  0.400  0.247    0.608 -0.239 -0.125
 H         -0.018  0.090 -0.001    0.027  0.559 -0.313    0.036 -0.441  0.484
 H         -0.242  0.451  0.192   -0.083  0.177  0.122   -0.154  0.079  0.160
 H         -0.230  0.532  0.462   -0.104  0.051  0.038   -0.130  0.002 -0.029
 O          0.026  0.020 -0.004    0.002  0.007  0.002    0.010  0.002 -0.000
 O         -0.008  0.007  0.007   -0.001  0.001  0.000   -0.002  0.002  0.002
 TransDip  -0.002 -0.063 -0.182    0.282  0.113  0.297    0.278 -0.083  0.292

 Mode:                22                     23                     24
 Frequency:      1500.43                1583.74                2978.57
 Force Cnst:      1.4636                14.4518                 5.5576
 Red. Mass:       1.1034                 9.7792                 1.0632
 IR Active:          YES                    YES                    YES
 IR Intens:       23.305               1286.566                148.186
 Raman Active:       YES                    YES                    YES
               X      Y      Z        X      Y      Z        X      Y      Z
 C         -0.010  0.004 -0.014   -0.042 -0.054  0.005    0.004 -0.002  0.000
 C          0.020  0.001  0.022    0.310  0.599 -0.340    0.001  0.000  0.001
 O         -0.001  0.009 -0.011   -0.026 -0.202  0.204   -0.000  0.000 -0.000
 O         -0.009 -0.008 -0.001   -0.186 -0.212  0.030   -0.000 -0.000 -0.000
 C         -0.072 -0.039  0.013   -0.016  0.015  0.010   -0.058 -0.021 -0.034
 H          0.071  0.020  0.026    0.391  0.124  0.264    0.011  0.026 -0.030
 H         -0.011 -0.058  0.030   -0.063 -0.099 -0.045   -0.062  0.013  0.027
 H          0.350  0.444 -0.425   -0.007 -0.064 -0.006    0.683  0.000  0.636
 H          0.639  0.041  0.266    0.011 -0.035 -0.045    0.053  0.222 -0.256
 O         -0.010 -0.004  0.003    0.002 -0.001  0.000   -0.004  0.000  0.001
 O          0.001  0.001  0.000    0.000 -0.001 -0.000    0.001  0.001  0.000
 TransDip   0.027  0.095  0.119    0.483  0.915 -0.500   -0.374 -0.033 -0.105

 Mode:                25                     26                     27
 Frequency:      3021.18                3061.81                3112.87
 Force Cnst:      5.8904                 5.8706                 6.2900
 Red. Mass:       1.0953                 1.0629                 1.1017
 IR Active:          YES                    YES                    YES
 IR Intens:      113.136                 43.002                 60.942
 Raman Active:       YES                    YES                    YES
               X      Y      Z        X      Y      Z        X      Y      Z
 C         -0.002 -0.004  0.004   -0.052  0.047 -0.003    0.052  0.035 -0.068
 C         -0.000  0.001 -0.001    0.002  0.001  0.002    0.002  0.002 -0.001
 O         -0.000 -0.001  0.000   -0.000 -0.000 -0.000   -0.000 -0.000  0.000
 O          0.000 -0.000  0.000   -0.000 -0.000 -0.000   -0.000 -0.001  0.000
 C         -0.005  0.052 -0.072   -0.006 -0.001 -0.006    0.001  0.004 -0.006
 H          0.017  0.054 -0.062   -0.123 -0.345  0.378   -0.179 -0.567  0.601
 H          0.005 -0.001  0.001    0.739 -0.208 -0.348   -0.458  0.139  0.206
 H          0.241  0.018  0.210    0.062  0.004  0.059    0.015  0.002  0.016
 H         -0.192 -0.635  0.665   -0.002 -0.007  0.007   -0.013 -0.048  0.048
 O          0.001  0.000 -0.001    0.000  0.000  0.000   -0.000 -0.000  0.000
 O         -0.000 -0.000  0.000   -0.000  0.000  0.000   -0.000  0.000  0.000
 TransDip   0.023  0.163 -0.298   -0.139  0.151 -0.042    0.092  0.127 -0.194

 STANDARD THERMODYNAMIC QUANTITIES AT   298.15 K  AND     1.00 ATM

   This Molecule has  0 Imaginary Frequencies
   Zero point vibrational energy:       46.484 kcal/mol

   Atom    1 Element C  Has Mass   12.00000
   Atom    2 Element C  Has Mass   12.00000
   Atom    3 Element O  Has Mass   15.99491
   Atom    4 Element O  Has Mass   15.99491
   Atom    5 Element C  Has Mass   12.00000
   Atom    6 Element H  Has Mass    1.00783
   Atom    7 Element H  Has Mass    1.00783
   Atom    8 Element H  Has Mass    1.00783
   Atom    9 Element H  Has Mass    1.00783
   Atom   10 Element O  Has Mass   15.99491
   Atom   11 Element O  Has Mass   15.99491
   Molecular Mass:   104.010960 amu
   Principal axes and moments of inertia in amu*Bohr^2:
                             1           2           3
    Eigenvalues --      323.21545  1270.33497  1285.98011
          X               0.14431    -0.27703     0.94996
          Y               0.69194     0.71454     0.10326
          Z               0.70739    -0.64241    -0.29480
   Rotational Symmetry Number is   1
   The Molecule is an Asymmetric Top
   Translational Enthalpy:        0.889 kcal/mol
   Rotational Enthalpy:           0.889 kcal/mol
   Vibrational Enthalpy:         49.067 kcal/mol
   gas constant (RT):             0.592 kcal/mol
   Translational Entropy:        39.835  cal/mol.K
   Rotational Entropy:           27.759  cal/mol.K
   Vibrational Entropy:          16.496  cal/mol.K

   Total Enthalpy:               51.437 kcal/mol
   Total Entropy:                84.090  cal/mol.K
Archival summary:
1\1\c4-88\FREQ\ProcedureUnspecified\BasisUnspecified\434(2-,1)\leeping\SatMar2102:26:022020SatMar2102:26:022020\0\\#,FREQ,ProcedureUnspecified,BasisUnspecified,\\-2,1\O\C,1,1.40398\H,2,1.10012,1,109.984\H,2,1.10251,1,109.904,3,-118.549,0\O,1,1.45325,2,108.12,3,58.2126,0\C,2,1.52067,1,108.676,3,120.808,0\H,6,1.09387,2,110.07,1,59.9091,0\H,6,1.09693,2,108.079,1,177.246,0\C,6,1.53766,2,113.55,1,-63.4235,0\O,9,1.25883,6,117.209,2,-50.9551,0\O,9,1.26021,6,117.457,2,130.202,0\\\@

 Total job time:  7008.22s(wall), 100382.70s(cpu) 
 Sat Mar 21 02:26:02 2020

        *************************************************************
        *                                                           *
        *  Thank you very much for using Q-Chem.  Have a nice day.  *
        *                                                           *
        *************************************************************


