18   
From 1-reactant-freq.out: Frame 1 / 109, Energy=    -571.7275124994
C        1.2836670405    1.4242314854   -2.2990456193
O        0.8658385245    2.0574475026   -3.3083747615
O        2.4839566008    1.1037980152   -2.0949722887
C        0.2332275176    1.0635692173   -1.2385114939
H       -2.3137283706    0.1531037750    1.3526927440
H       -0.7072657195    0.8460624129   -1.7526878586
C        0.6095893544   -0.0722631477   -0.2998234484
H        0.7495686913   -1.0013535988   -0.8684841538
H        1.5718628313    0.1461339290    0.1760534161
C       -0.4060567244   -0.3283104495    0.8235947008
O       -1.5877193859   -0.9316100365    0.0690561985
H        0.0548856417    1.9731753468   -0.6520262280
O       -0.8359466653    0.7551060175    1.4801807836
O       -2.7384643076   -0.6308455132    0.8671183063
C        0.0949384267   -1.4393279024    1.7572018855
H       -0.7000622838   -1.7101896922    2.4586741678
H        0.3973420304   -2.3323174170    1.1998405687
H        0.9545651778   -1.0762719561    2.3302132488
