
Running Job 1 of 1 qc-3-tshess.in
qchem qc-3-tshess.in_26477.0 ./qc-3-tshess.d/ 1
/home/leeping/opt/qchem/5.0.2-openmp/exe/qcprog.exe_s qc-3-tshess.in_26477.0 ./qc-3-tshess.d/
Check license passed

                  Welcome to Q-Chem
     A Quantum Leap Into The Future Of Chemistry


 Q-Chem 5.0, Q-Chem, Inc., Pleasanton, CA (2017)

 Yihan Shao,  Zhengting Gan,  E. Epifanovsky,  A. T. B. Gilbert,  M. Wormit,  
 J. Kussmann,  A. W. Lange,  A. Behn,  Jia Deng,  Xintian Feng,  D. Ghosh,  
 M. Goldey,  P. R. Horn,  L. D. Jacobson,  I. Kaliman,  T. Kus,  A. Landau,  
 Jie Liu,  E. I. Proynov,  R. M. Richard,  R. P. Steele,  E. J. Sundstrom,  
 H. L. Woodcock III,  P. M. Zimmerman,  D. Zuev,  B. Albrecht,  E. Alguire,  
 S. A. Baeppler,  D. Barton,  Z. Benda,  Y. A. Bernard,  E. J. Berquist,  
 K. B. Bravaya,  H. Burton,  D. Casanova,  Chun-Min Chang,  Yunqing Chen,  
 A. Chien,  K. D. Closser,  M. P. Coons,  S. Dasgupta,  A. L. Dempwolff,  
 M. Diedenhofen,  Hainam Do,  R. G. Edgar,  Po-Tung Fang,  S. Fatehi,  
 Qingguo Feng,  J. Fosso-Tande,  Qinghui Ge,  A. Ghysels,  G. Gidofalvi,  
 J. Gomes,  J. Gonthier,  A. Gunina,  M. W. D. Hanson-Heine,  
 P. H. P. Harbach,  A. W. Hauser,  J. E. Herr,  E. G. Hohenstein,  
 Z. C. Holden,  Kerwin Hui,  T.-C. Jagau,  Hyunjun Ji,  B. Kaduk,  
 K. Khistyaev,  Jaehoon Kim,  P. Klunzinger,  K. Koh,  D. Kosenkov,  
 L. Koulias,  T. Kowalczyk,  C. M. Krauter,  A. Kunitsa,  Ka Un Lao,  
 A. Laurent,  K. V. Lawler,  Joonho Lee,  D. Lefrancois,  S. Lehtola,  
 D. S. Levine,  Yi-Pei Li,  You-Sheng Lin,  Fenglai Liu,  E. Livshits,  
 A. Luenser,  P. Manohar,  E. Mansoor,  S. F. Manzer,  Shan-Ping Mao,  
 Yuezhi Mao,  N. Mardirossian,  A. V. Marenich,  T. Markovich,  
 L. A. Martinez-Martinez,  S. A. Maurer,  N. J. Mayhall,  S. C. McKenzie,  
 J.-M. Mewes,  A. F. Morrison,  J. W. Mullinax,  K. Nanda,  
 T. S. Nguyen-Beck,  R. Olivares-Amaya,  J. A. Parkhill,  T. M. Perrine,  
 F. Plasser,  S. Prager,  A. Prociuk,  E. Ramos,  D. R. Rehn,  F. Rob,  
 M. Schneider,  N. Sergueev,  S. M. Sharada,  S. Sharma,  D. W. Small,  
 T. Stauch,  T. Stein,  Yu-Chuan Su,  A. J. W. Thom,  A. Tkatchenko,  
 T. Tsuchimochi,  L. Vogt,  O. Vydrov,  M. A. Watson,  J. Wenzel,  
 M. de Wergifosse,  T. A. Wesolowski,  A. White,  J. Witte,  A. Yamada,  
 Jun Yang,  K. Yao,  S. Yeganeh,  S. R. Yost,  Zhi-Qiang You,  A. Zech,  
 Igor Ying Zhang,  Xing Zhang,  Yan Zhao,  Ying Zhu,  B. R. Brooks,  
 G. K. L. Chan,  C. J. Cramer,  M. S. Gordon,  W. J. Hehre,  A. Klamt,  
 M. W. Schmidt,  C. D. Sherrill,  D. G. Truhlar,  A. Aspuru-Guzik,  R. Baer,  
 A. T. Bell,  N. A. Besley,  Jeng-Da Chai,  R. A. DiStasio Jr.,  A. Dreuw,  
 B. D. Dunietz,  T. R. Furlani,  Chao-Ping Hsu,  Yousung Jung,  Jing Kong,  
 D. S. Lambrecht,  WanZhen Liang,  C. Ochsenfeld,  V. A. Rassolov,  
 L. V. Slipchenko,  J. E. Subotnik,  T. Van Voorhis,  J. M. Herbert,  
 A. I. Krylov,  P. M. W. Gill,  M. Head-Gordon

 Contributors to earlier versions of Q-Chem not listed above: 
 R. D. Adamson,  B. Austin,  J. Baker,  G. J. O. Beran,  K. Brandhorst,  
 S. T. Brown,  E. F. C. Byrd,  A. K. Chakraborty,  C.-L. Cheng,  
 Siu Hung Chien,  D. M. Chipman,  D. L. Crittenden,  H. Dachsel,  
 R. J. Doerksen,  A. D. Dutoi,  L. Fusti-Molnar,  W. A. Goddard III,  
 A. Golubeva-Zadorozhnaya,  S. R. Gwaltney,  G. Hawkins,  A. Heyden,  
 S. Hirata,  G. Kedziora,  F. J. Keil,  C. Kelley,  Jihan Kim,  R. A. King,  
 R. Z. Khaliullin,  P. P. Korambath,  W. Kurlancheek,  A. M. Lee,  M. S. Lee,  
 S. V. Levchenko,  Ching Yeh Lin,  D. Liotard,  R. C. Lochan,  I. Lotan,  
 P. E. Maslen,  N. Nair,  D. P. O'Neill,  D. Neuhauser,  E. Neuscamman,  
 C. M. Oana,  R. Olson,  B. Peters,  R. Peverati,  P. A. Pieniazek,  
 Y. M. Rhee,  J. Ritchie,  M. A. Rohrdanz,  E. Rosta,  N. J. Russ,  
 H. F. Schaefer III,  N. E. Schultz,  N. Shenvi,  A. C. Simmonett,  A. Sodt,  
 D. Stuck,  K. S. Thanthiriwatte,  V. Vanovschi,  Tao Wang,  A. Warshel,  
 C. F. Williams,  Q. Wu,  X. Xu,  W. Zhang

 Please cite Q-Chem as follows:
 Y. Shao et al., Mol. Phys. 113, 184-215 (2015)
 DOI: 10.1080/00268976.2014.952696

 Q-Chem 5.0.2 for Intel X86 EM64T Linux

 Parts of Q-Chem use Armadillo 5.200.1 (Boston Tea Smuggler).
 http://arma.sourceforge.net/

 Q-Chem begins on Thu Sep  6 11:50:32 2018  

Host: 
0

     Scratch files written to ./qc-3-tshess.d//
 Dec517 15110_ 26548  26544 5633   
Processing $rem in /home/leeping/opt/qchem/5.0.2-openmp/config/preferences.
 MEM_STATIC 2000
 MEM_TOTAL  8000
 SYMMETRY   OFF
 SYM_IGNORE TRUE 
Symmetry turned off for PCM/SM12/SMD calculation

Checking the input file for inconsistencies... 	...done.

--------------------------------------------------------------
User input:
--------------------------------------------------------------
$molecule
-2 1
C        1.0542098780    1.4093348854   -2.4609990292
O        0.6036938542    1.7683528642   -3.5827264951
O        2.2580844331    1.4876111962   -2.1027759950
C        0.0251855184    0.8726969202   -1.4524913993
H       -2.1803786246    0.1479946665    1.7632684629
H       -0.7803647401    0.3883460127   -2.0100673339
C        0.6005430419   -0.0579785768   -0.3993664586
H        0.9228844130   -1.0044246716   -0.8432137420
H        1.4675022561    0.4020597454    0.0824073554
C       -0.3854855232   -0.3584631541    0.8242841566
O       -1.3976464514   -1.0263614423    0.1712526517
H       -0.4143793443    1.7482557895   -0.9592048503
O       -0.7897459289    0.7603211960    1.4554789522
O       -2.9566712547   -0.5334984300    1.7288739715
C        0.3619572226   -1.3309467084    1.7689124846
H       -0.3096800854   -1.6145035323    2.5845142020
H        0.6853323031   -2.2319302513    1.2398441914
H        1.2349590314   -0.8268665085    2.1920088747
$end

$rem
jobtype               freq
method                wb97x-v
basis                 def2-tzvpd
symmetry              off
sym_ignore            true
unrestricted          true
incdft                false
incfock               0
!scf_algorithm        diis_gdm
scf_convergence       8
thresh                14
!purecart             112
max_scf_cycles        1000
geom_opt_max_cycles   500
geom_opt_dmax         100
geom_opt_tol_gradient 10
solvent_method        pcm
ideriv                1
rpath_tol_displacement 1000
rpath_max_cycles      100
rpath_direction       1
scf_guess             read
$end

$pcm
theory              cosmo
method              iswig
Radii               bondi
vdwScale            1.20
hpoints             110
heavypoints         110
$end

$solvent
dielectric 78.400000
$end

--------------------------------------------------------------
 ----------------------------------------------------------------
             Standard Nuclear Orientation (Angstroms)
    I     Atom           X                Y                Z
 ----------------------------------------------------------------
    1      C       1.0542098780     1.4093348854    -2.4609990292
    2      O       0.6036938542     1.7683528642    -3.5827264951
    3      O       2.2580844331     1.4876111962    -2.1027759950
    4      C       0.0251855184     0.8726969202    -1.4524913993
    5      H      -2.1803786246     0.1479946665     1.7632684629
    6      H      -0.7803647401     0.3883460127    -2.0100673339
    7      C       0.6005430419    -0.0579785768    -0.3993664586
    8      H       0.9228844130    -1.0044246716    -0.8432137420
    9      H       1.4675022561     0.4020597454     0.0824073554
   10      C      -0.3854855232    -0.3584631541     0.8242841566
   11      O      -1.3976464514    -1.0263614423     0.1712526517
   12      H      -0.4143793443     1.7482557895    -0.9592048503
   13      O      -0.7897459289     0.7603211960     1.4554789522
   14      O      -2.9566712547    -0.5334984300     1.7288739715
   15      C       0.3619572226    -1.3309467084     1.7689124846
   16      H      -0.3096800854    -1.6145035323     2.5845142020
   17      H       0.6853323031    -2.2319302513     1.2398441914
   18      H       1.2349590314    -0.8268665085     2.1920088747
 ----------------------------------------------------------------
 Nuclear Repulsion Energy =   533.7291330313 hartrees
 There are       40 alpha and       40 beta electrons
 Requested basis set is def2-TZVPD
 There are 175 shells and 457 basis functions

 Total QAlloc Memory Limit   8000 MB
 Mega-Array Size      1956 MB
 MEM_STATIC part      2000 MB
 Discretize the solute cavity surface with Lebedev spheres
	Using 110 Lebedev grid points for each H atom
	Using 110 Lebedev grid points for other atoms
	Atomic van der Waals radii will be scaled by 1.20
 Remove points where switching function is < 1.0e-08
 Keep 1058 surface tesserae and discard 922 interior tesserae
 Molecular Surface Area = 193.917 Angst**2
 A cutoff of  1.0D-14 yielded  13982 shell pairs
 There are     95156 function pairs (    120901 Cartesian)
 
 -------------------------------------------------------
 OpenMP Integral Computing Module                       
 Release: version 1.0, May 2013, Q-Chem Inc. Pittsburgh 
 -------------------------------------------------------
 Integral Job Info:
 Integral job number is                      11
 Integral operator is                         1
 short-range coefficients              16700000
 long-range coefficients              100000000
 Omega coefficients                         300
 if combine SR and LR in K                    1
 Integral screening is                        0
 Integral computing path is                   2
 max size of driver memory is            800000
 size of driver memory is                776718
 size of scratch memory is              4473992
 max col of scratch BK array              10000
 max len of scratch array in speh3          662
 max len of scratch index in speh4           32
 max int batch size is                      520
 min int batch size is                       52
 fixed nKL is                                52
 max L of basis functions is                  3
 order of int derivative is                   0
 number of shells is                        175
 number of basis is                         517
 number of cartesian basis is               517
 number of contracted shell pairs         13982
 number of primitive shell pairs          28364
 maxK2 (contraction) of shell pair           36
 max number of K2 of shell pair               1
 max number of CS2 of shell pair           2313
 max number of PS2 of shell pair           3204
 mem total for path MDJ                  773012
 -------------------------------------------------------
 Smallest overlap matrix eigenvalue = 3.00E-06
 Guess MOs from SCF MO coefficient file
 Reading MOs from coefficient file
 Reading MOs from coefficient file
 Long-range K will be added via erf
 Coulomb attenuation parameter = 0.3 bohr**(-1)
 An unrestricted hybrid HF-DFT SCF calculation will be
 performed using Pulay DIIS extrapolation
 Polarizable Continuum solvation model will be applied
 Exchange:     0.1670 Hartree-Fock + 1.0000 wB97X-V + LR-HF
 Correlation:  1.0000 wB97X-V
 Using SG-2 standard quadrature grid
 Nonlocal Correlation:  VV10 with C = 0.0100 and b = 6.00
 Grid used for NLC:  SG-1 standard quadrature
 SCF converges when DIIS error is below 1.0E-08
Using Q-Chem read-in guess as SCF_GUESS READ specified.

 using 16 threads for integral computing
 -------------------------------------------------------
 OpenMP Integral computing Module                
 Release: version 1.0, May 2013, Q-Chem Inc. Pittsburgh 
 -------------------------------------------------------
 using 16 threads for integral computing
 -------------------------------------------------------
 OpenMP Integral computing Module                
 Release: version 1.0, May 2013, Q-Chem Inc. Pittsburgh 
 -------------------------------------------------------
 -------------------------------------------------------
 OpenMP BLAS3 based DFT computing Module                
 Release: version 1.0, May 2013, Q-Chem Inc. Pittsburgh 
 -------------------------------------------------------
 -------------------------------------------------------
 OpenMP BLAS3 based DFT computing Module                
 Release: version 1.0, May 2013, Q-Chem Inc. Pittsburgh 
 -------------------------------------------------------
 -------------------------------------------------------
 OpenMP BLAS3 based DFT computing Module                
 Release: version 1.0, May 2013, Q-Chem Inc. Pittsburgh 
 -------------------------------------------------------
 ---------------------------------------
  Cycle       Energy         DIIS Error
 ---------------------------------------
    1    -571.3687117150      3.13E-04
    2    -571.6628967855      3.26E-04
    3    -571.6669897611      1.53E-04
    4    -571.6676624329      1.13E-04
    5    -571.6680917938      8.63E-05
    6    -571.6683143826      6.90E-05
    7    -571.6684747541      5.32E-05
    8    -571.6685729180      4.06E-05
    9    -571.6686432815      2.84E-05
   10    -571.6686768279      2.02E-05
   11    -571.6686910175      1.54E-05
   12    -571.6686964521      1.31E-05
   13    -571.6686994245      1.17E-05
   14    -571.6687020448      1.03E-05
   15    -571.6687037849      9.23E-06
   16    -571.6687046308      8.67E-06
   17    -571.6687109783      6.24E-08
   18    -571.6687109839      4.16E-08
   19    -571.6687109856      2.30E-08
   20    -571.6687109864      1.32E-08
   21    -571.6687109865      9.36E-09 Convergence criterion met
 ---------------------------------------

************** Final PCM Free Energy Summary **************
 G_electrostatic  =      -0.29999924 hartree =    -188.25236459 kcal/mol
 G_cavitation     =       0.00000000 hartree =       0.00000000 kcal/mol
 G_dispersion     =       0.00000000 hartree =       0.00000000 kcal/mol
 G_repulsion      =       0.00000000 hartree =       0.00000000 kcal/mol
 --------------------------------------------------
 Non-electrostatic Free Energy =       0.00000000 hartree =       0.00000000 kcal/mol
 Total                         =      -0.29999924 hartree =    -188.25236459 kcal/mol
 --------------------------------------------------
 SCF Energy (H0 + V/2)                       =    -571.66871099 
 Solute Internal Energy (H0)                 =    -571.36871175 
 Total Free Energy (H0 + V/2 + non-elec)     =    -571.66871099 hartree
                                             = -358727.53041841 kcal/mol
***********************************************************

 <S^2> = 0.8926
 SCF time:  CPU 5775.72 s  wall 422.01 s
 SCF   energy in the final basis set = -571.66871099
 Total energy in the final basis set = -571.66871099
 
 --------------------------------------------------------------
 
                    Orbital Energies (a.u.)
 --------------------------------------------------------------
 
 Alpha MOs
 -- Occupied --
-19.220 -19.203 -19.139 -19.137 -19.116 -10.340 -10.337 -10.258
-10.244 -10.240  -1.142  -1.130  -1.066  -1.047  -1.016  -0.883
 -0.831  -0.749  -0.623  -0.604  -0.573  -0.554  -0.545  -0.533
 -0.522  -0.509  -0.502  -0.484  -0.481  -0.455  -0.441  -0.439
 -0.423  -0.409  -0.357  -0.347  -0.336  -0.330  -0.323  -0.310
 -- Virtual --
 -0.025   0.060   0.075   0.082   0.088   0.098   0.104   0.110
  0.123   0.127   0.130   0.136   0.144   0.150   0.154   0.162
  0.171   0.175   0.181   0.185   0.195   0.210   0.212   0.221
  0.229   0.235   0.240   0.249   0.256   0.266   0.269   0.270
  0.278   0.287   0.295   0.296   0.304   0.311   0.323   0.325
  0.337   0.343   0.348   0.353   0.355   0.358   0.366   0.372
  0.379   0.384   0.390   0.397   0.398   0.406   0.407   0.414
  0.418   0.427   0.432   0.435   0.436   0.440   0.443   0.454
  0.461   0.468   0.474   0.481   0.485   0.491   0.499   0.502
  0.505   0.513   0.517   0.526   0.527   0.537   0.539   0.543
  0.549   0.560   0.565   0.569   0.573   0.580   0.593   0.596
  0.603   0.611   0.616   0.620   0.629   0.638   0.641   0.646
  0.653   0.665   0.675   0.680   0.683   0.687   0.696   0.705
  0.713   0.718   0.731   0.735   0.743   0.755   0.765   0.768
  0.780   0.781   0.786   0.788   0.799   0.804   0.809   0.814
  0.822   0.831   0.832   0.836   0.843   0.847   0.858   0.862
  0.878   0.887   0.889   0.898   0.903   0.906   0.918   0.931
  0.934   0.951   0.959   0.962   0.969   0.997   1.009   1.020
  1.026   1.048   1.055   1.062   1.073   1.090   1.111   1.113
  1.119   1.137   1.148   1.162   1.173   1.182   1.194   1.204
  1.218   1.239   1.239   1.248   1.270   1.285   1.288   1.303
  1.339   1.349   1.355   1.361   1.386   1.392   1.412   1.425
  1.451   1.470   1.490   1.510   1.523   1.542   1.571   1.587
  1.598   1.617   1.654   1.675   1.699   1.743   1.758   1.811
  1.842   1.864   1.886   1.906   1.908   1.936   1.942   1.947
  1.956   1.967   1.970   1.974   2.004   2.013   2.023   2.038
  2.048   2.054   2.068   2.095   2.101   2.122   2.141   2.155
  2.177   2.190   2.197   2.234   2.240   2.246   2.260   2.295
  2.301   2.307   2.327   2.349   2.359   2.392   2.404   2.435
  2.460   2.462   2.479   2.486   2.493   2.497   2.535   2.558
  2.575   2.587   2.623   2.641   2.664   2.687   2.696   2.719
  2.750   2.764   2.788   2.802   2.851   2.867   2.881   2.896
  2.920   2.928   2.943   2.962   2.980   2.999   3.013   3.021
  3.034   3.054   3.074   3.097   3.112   3.137   3.176   3.223
  3.231   3.256   3.269   3.275   3.305   3.310   3.336   3.347
  3.355   3.360   3.403   3.413   3.419   3.458   3.462   3.477
  3.486   3.502   3.521   3.539   3.565   3.573   3.600   3.608
  3.622   3.629   3.644   3.676   3.682   3.689   3.711   3.718
  3.734   3.743   3.751   3.772   3.781   3.786   3.807   3.832
  3.851   3.878   3.919   3.929   3.967   3.990   4.001   4.091
  4.110   4.134   4.159   4.210   4.235   4.257   4.282   4.298
  4.372   4.455   4.481   4.574   4.625   4.632   4.698   4.741
  4.766   4.773   4.824   4.860   4.910   4.990   5.046   5.066
  5.080   5.189   5.243   5.250   5.274   5.283   5.310   5.324
  5.356   5.362   5.372   5.385   5.397   5.407   5.466   5.500
  5.507   5.566   5.572   5.618   5.660   5.718   5.721   5.753
  5.785   5.881   6.003   6.077   6.168   6.235   6.248   6.303
  6.306   6.340   6.407   6.460   6.513   6.548   6.599   6.614
  6.620   6.640   6.702   6.754   6.768   6.778   6.829   6.869
  6.960   6.974   7.005   7.056   7.059   7.081   7.190   7.241
  7.303   7.346   7.369   7.389   7.411   7.420   7.508  22.721
 22.878  22.929  23.248  23.732  43.942  44.307  44.424  44.483
 44.613
 
 Beta MOs
 -- Occupied --
-19.217 -19.201 -19.139 -19.138 -19.117 -10.340 -10.337 -10.261
-10.244 -10.241  -1.150  -1.142  -1.047  -1.035  -1.006  -0.889
 -0.836  -0.756  -0.634  -0.606  -0.574  -0.564  -0.546  -0.534
 -0.518  -0.514  -0.502  -0.488  -0.475  -0.461  -0.442  -0.425
 -0.400  -0.388  -0.372  -0.347  -0.337  -0.331  -0.326  -0.305
 -- Virtual --
 -0.015   0.060   0.076   0.082   0.088   0.099   0.104   0.111
  0.123   0.127   0.130   0.137   0.144   0.151   0.154   0.162
  0.171   0.175   0.181   0.186   0.195   0.210   0.212   0.221
  0.230   0.235   0.240   0.248   0.256   0.266   0.269   0.270
  0.278   0.286   0.294   0.296   0.304   0.310   0.323   0.323
  0.337   0.343   0.347   0.352   0.355   0.358   0.366   0.371
  0.379   0.384   0.391   0.395   0.397   0.405   0.406   0.414
  0.417   0.426   0.432   0.435   0.436   0.438   0.444   0.455
  0.462   0.468   0.474   0.483   0.485   0.491   0.495   0.501
  0.505   0.512   0.516   0.525   0.527   0.536   0.540   0.543
  0.548   0.559   0.565   0.569   0.574   0.580   0.592   0.597
  0.604   0.612   0.616   0.620   0.629   0.637   0.641   0.646
  0.652   0.664   0.675   0.681   0.683   0.687   0.696   0.704
  0.714   0.718   0.731   0.736   0.742   0.755   0.765   0.767
  0.779   0.781   0.786   0.788   0.798   0.804   0.809   0.814
  0.822   0.831   0.832   0.837   0.843   0.847   0.857   0.861
  0.877   0.887   0.889   0.898   0.903   0.905   0.917   0.930
  0.933   0.952   0.959   0.961   0.970   0.998   1.009   1.022
  1.025   1.048   1.055   1.062   1.075   1.090   1.110   1.111
  1.118   1.136   1.154   1.162   1.177   1.182   1.193   1.206
  1.217   1.237   1.241   1.249   1.270   1.282   1.287   1.303
  1.338   1.349   1.354   1.359   1.386   1.391   1.415   1.426
  1.449   1.467   1.490   1.509   1.521   1.541   1.569   1.585
  1.597   1.616   1.653   1.674   1.697   1.747   1.761   1.811
  1.852   1.864   1.886   1.909   1.929   1.938   1.944   1.950
  1.958   1.968   1.969   1.973   2.004   2.013   2.035   2.037
  2.047   2.059   2.067   2.089   2.099   2.115   2.138   2.154
  2.174   2.186   2.196   2.229   2.242   2.248   2.257   2.293
  2.301   2.304   2.326   2.347   2.360   2.390   2.403   2.435
  2.458   2.461   2.477   2.484   2.492   2.496   2.536   2.558
  2.579   2.585   2.622   2.639   2.663   2.687   2.695   2.717
  2.747   2.763   2.787   2.801   2.850   2.866   2.881   2.892
  2.918   2.930   2.943   2.960   2.981   2.996   3.014   3.021
  3.037   3.062   3.076   3.099   3.110   3.134   3.174   3.222
  3.246   3.266   3.269   3.290   3.306   3.307   3.336   3.344
  3.357   3.361   3.404   3.416   3.418   3.456   3.460   3.477
  3.484   3.499   3.521   3.538   3.563   3.570   3.599   3.607
  3.621   3.626   3.642   3.674   3.675   3.686   3.709   3.714
  3.730   3.742   3.751   3.770   3.779   3.785   3.807   3.828
  3.849   3.873   3.916   3.924   3.962   3.986   3.999   4.089
  4.108   4.131   4.158   4.207   4.231   4.266   4.281   4.297
  4.371   4.453   4.479   4.572   4.622   4.628   4.697   4.738
  4.765   4.770   4.823   4.859   4.908   4.987   5.037   5.061
  5.076   5.186   5.264   5.293   5.298   5.320   5.328   5.331
  5.349   5.363   5.367   5.378   5.389   5.403   5.468   5.492
  5.508   5.550   5.580   5.632   5.667   5.718   5.719   5.742
  5.784   5.872   6.003   6.045   6.168   6.226   6.248   6.303
  6.317   6.341   6.406   6.454   6.591   6.599   6.619   6.632
  6.641   6.654   6.699   6.722   6.758   6.776   6.817   6.865
  6.960   6.974   7.000   7.033   7.058   7.081   7.185   7.240
  7.295   7.340   7.368   7.389   7.406   7.411   7.508  22.720
 22.877  22.928  23.248  23.732  43.965  44.307  44.423  44.468
 44.610
 --------------------------------------------------------------
 
          Ground-State Mulliken Net Atomic Charges

     Atom                 Charge (a.u.)    Spin (a.u.)
  --------------------------------------------------------
      1 C                     0.036348      -0.006273
      2 O                    -0.709382      -0.001748
      3 O                    -0.699437      -0.001315
      4 C                    -0.322641      -0.006300
      5 H                     0.351524      -0.024867
      6 H                     0.230435      -0.000338
      7 C                    -0.608118      -0.117807
      8 H                     0.316738       0.005249
      9 H                     0.200556      -0.013558
     10 C                     1.446024       0.062544
     11 O                    -0.535579      -0.692793
     12 H                     0.222728      -0.004648
     13 O                    -0.942318      -0.048369
     14 O                    -0.494889       0.921770
     15 C                    -1.214590      -0.077383
     16 H                     0.225026       0.000725
     17 H                     0.254654       0.003593
     18 H                     0.242921       0.001517
  --------------------------------------------------------
  Sum of atomic charges =    -2.000000
  Sum of spin   charges =     0.000000

 -----------------------------------------------------------------
                    Cartesian Multipole Moments
 -----------------------------------------------------------------
    Charge (ESU x 10^10)
                -9.6064
    Dipole Moment (Debye)
         X       1.6472      Y      -8.4892      Z       8.6987
       Tot      12.2657
    Quadrupole Moments (Debye-Ang)
        XX    -104.6667     XY     -17.9640     YY     -85.2630
        XZ      29.7442     YZ      25.5807     ZZ    -124.5770
    Octopole Moments (Debye-Ang^2)
       XXX      31.0670    XXY     -29.9766    XYY      -8.5551
       YYY     -76.3249    XXZ      35.9915    XYZ      27.9919
       YYZ      63.1476    XZZ     -33.0759    YZZ    -112.4989
       ZZZ     226.9361
    Hexadecapole Moments (Debye-Ang^3)
      XXXX   -1120.1693   XXXY    -251.8580   XXYY    -292.5510
      XYYY    -183.1125   YYYY    -616.7067   XXXZ     480.3714
      XXYZ     200.2124   XYYZ     161.7587   YYYZ     415.0673
      XXZZ    -511.5901   XYZZ    -148.4338   YYZZ    -515.5067
      XZZZ     473.5772   YZZZ     656.7657   ZZZZ   -2117.0943
 -----------------------------------------------------------------
 Calculating analytic gradient of the SCF energy
 Gradient of SCF Energy
            1           2           3           4           5           6
    1   0.0365411   0.0134621  -0.0606599  -0.0936954  -0.0520123   0.0469420
    2   0.0125667  -0.0151856  -0.0019750   0.0156960  -0.0229595   0.0262672
    3  -0.0237559   0.0544207  -0.0110057   0.0281293   0.0062238   0.0300903
            7           8           9          10          11          12
    1   0.0918059  -0.0116983  -0.0493390   0.0268377  -0.0005040   0.0243280
    2  -0.0080785   0.0422494  -0.0359809   0.0092979   0.0173903  -0.0481815
    3  -0.0226629   0.0309665  -0.0390507  -0.0402089  -0.0039611  -0.0314267
           13          14          15          16          17          18
    1   0.0077398   0.0216475   0.0325630   0.0444062  -0.0181572  -0.0602071
    2   0.0152608   0.0275723  -0.0741852   0.0231361   0.0589478  -0.0418383
    3  -0.0085103   0.0024436   0.0739603  -0.0586715   0.0401108  -0.0270915
 Max gradient component =       9.370E-02
 RMS gradient           =       3.873E-02
 Computing fast CPCM-ISWIG gradient
 Updating gradient with PCM contributions...
 -- total gradient after adding PCM contribution --
---------------------------------------------------
  Atom         X              Y              Z     
---------------------------------------------------
   1      -0.000023      -0.000002      -0.000011
   2      -0.000035      -0.000000      -0.000006
   3      -0.000019      -0.000006      -0.000025
   4      -0.000014       0.000001       0.000000
   5       0.000019       0.000005       0.000025
   6      -0.000022       0.000004       0.000009
   7      -0.000004      -0.000002      -0.000008
   8      -0.000013      -0.000002      -0.000011
   9       0.000002      -0.000005      -0.000016
  10       0.000005       0.000001       0.000004
  11       0.000002       0.000004       0.000015
  12      -0.000005       0.000002       0.000006
  13       0.000019       0.000001       0.000009
  14       0.000019       0.000011       0.000034
  15       0.000016      -0.000003      -0.000005
  16       0.000024      -0.000001       0.000002
  17       0.000007      -0.000003      -0.000009
  18       0.000022      -0.000005      -0.000015
---------------------------------------------------
 Number of fixed atoms: 0
 Gradient time:  CPU 897.40 s  wall 64.67 s
 ######################################################
 ######################################################
 # Starting finite difference calculation for IDERIV  #
 Finite diff step size:  1.88973e-03 a.u.
 ----------------------------------------------------------------
             Standard Nuclear Orientation (Angstroms)
    I     Atom           X                Y                Z
 ----------------------------------------------------------------
    1      C       1.0552098780     1.4093348854    -2.4609990292
    2      O       0.6036938542     1.7683528642    -3.5827264951
    3      O       2.2580844331     1.4876111962    -2.1027759950
    4      C       0.0251855184     0.8726969202    -1.4524913993
    5      H      -2.1803786246     0.1479946665     1.7632684629
    6      H      -0.7803647401     0.3883460127    -2.0100673339
    7      C       0.6005430419    -0.0579785768    -0.3993664586
    8      H       0.9228844130    -1.0044246716    -0.8432137420
    9      H       1.4675022561     0.4020597454     0.0824073554
   10      C      -0.3854855232    -0.3584631541     0.8242841566
   11      O      -1.3976464514    -1.0263614423     0.1712526517
   12      H      -0.4143793443     1.7482557895    -0.9592048503
   13      O      -0.7897459289     0.7603211960     1.4554789522
   14      O      -2.9566712547    -0.5334984300     1.7288739715
   15      C       0.3619572226    -1.3309467084     1.7689124846
   16      H      -0.3096800854    -1.6145035323     2.5845142020
   17      H       0.6853323031    -2.2319302513     1.2398441914
   18      H       1.2349590314    -0.8268665085     2.1920088747
 ----------------------------------------------------------------
 Nuclear Repulsion Energy =   533.7294674783 hartrees
 There are       40 alpha and       40 beta electrons
 Discretize the solute cavity surface with Lebedev spheres
	Using 110 Lebedev grid points for each H atom
	Using 110 Lebedev grid points for other atoms
	Atomic van der Waals radii will be scaled by 1.20
 Remove points where switching function is < 1.0e-08
 Keep 1058 surface tesserae and discard 922 interior tesserae
 Molecular Surface Area = 193.919 Angst**2
 Requested basis set is def2-TZVPD
 There are 175 shells and 457 basis functions
 A cutoff of  1.0D-14 yielded  13982 shell pairs
 There are     95156 function pairs (    120901 Cartesian)
 Smallest overlap matrix eigenvalue = 3.00E-06
 Guess MOs from SCF MO coefficient file
 Reading MOs from coefficient file
 Reading MOs from coefficient file
 Long-range K will be added via erf
 Coulomb attenuation parameter = 0.3 bohr**(-1)
 An unrestricted hybrid HF-DFT SCF calculation will be
 performed using Pulay DIIS extrapolation
 Polarizable Continuum solvation model will be applied
 Exchange:     0.1670 Hartree-Fock + 1.0000 wB97X-V + LR-HF
 Correlation:  1.0000 wB97X-V
 Using SG-2 standard quadrature grid
 Nonlocal Correlation:  VV10 with C = 0.0100 and b = 6.00
 Grid used for NLC:  SG-1 standard quadrature
 SCF converges when DIIS error is below 1.0E-08
Using Q-Chem read-in guess as SCF_GUESS READ specified.

 using 16 threads for integral computing
 -------------------------------------------------------
 OpenMP Integral computing Module                
 Release: version 1.0, May 2013, Q-Chem Inc. Pittsburgh 
 -------------------------------------------------------
 using 16 threads for integral computing
 -------------------------------------------------------
 OpenMP Integral computing Module                
 Release: version 1.0, May 2013, Q-Chem Inc. Pittsburgh 
 -------------------------------------------------------
 -------------------------------------------------------
 OpenMP BLAS3 based DFT computing Module                
 Release: version 1.0, May 2013, Q-Chem Inc. Pittsburgh 
 -------------------------------------------------------
 -------------------------------------------------------
 OpenMP BLAS3 based DFT computing Module                
 Release: version 1.0, May 2013, Q-Chem Inc. Pittsburgh 
 -------------------------------------------------------
 -------------------------------------------------------
 OpenMP BLAS3 based DFT computing Module                
 Release: version 1.0, May 2013, Q-Chem Inc. Pittsburgh 
 -------------------------------------------------------
 ---------------------------------------
  Cycle       Energy         DIIS Error
 ---------------------------------------
    1    -571.3692283153      3.14E-04
    2    -571.6628920169      3.26E-04
    3    -571.6669908442      1.53E-04
    4    -571.6676656051      1.13E-04
    5    -571.6681031268      8.54E-05
    6    -571.6683506479      6.56E-05
    7    -571.6685514007      4.35E-05
    8    -571.6686632916      2.34E-05
    9    -571.6687030211      8.73E-06
   10    -571.6687089275      2.63E-06
   11    -571.6687094249      1.26E-06
   12    -571.6687095390      8.69E-07
   13    -571.6687096209      6.03E-07
   14    -571.6687096741      4.68E-07
   15    -571.6687097138      3.23E-07
   16    -571.6687097313      2.23E-07
   17    -571.6687097479      5.13E-08
   18    -571.6687097533      3.48E-08
   19    -571.6687097544      1.93E-08
   20    -571.6687097547      1.07E-08
   21    -571.6687097548      8.84E-09 Convergence criterion met
 ---------------------------------------

************** Final PCM Free Energy Summary **************
 G_electrostatic  =      -0.29998352 hartree =    -188.24250200 kcal/mol
 G_cavitation     =       0.00000000 hartree =       0.00000000 kcal/mol
 G_dispersion     =       0.00000000 hartree =       0.00000000 kcal/mol
 G_repulsion      =       0.00000000 hartree =       0.00000000 kcal/mol
 --------------------------------------------------
 Non-electrostatic Free Energy =       0.00000000 hartree =       0.00000000 kcal/mol
 Total                         =      -0.29998352 hartree =    -188.24250200 kcal/mol
 --------------------------------------------------
 SCF Energy (H0 + V/2)                       =    -571.66870975 
 Solute Internal Energy (H0)                 =    -571.36872623 
 Total Free Energy (H0 + V/2 + non-elec)     =    -571.66870975 hartree
                                             = -358727.52964548 kcal/mol
***********************************************************

 <S^2> = 0.8926
 SCF time:  CPU 5799.74 s  wall 422.64 s
 SCF   energy in the final basis set = -571.66870975
 Total energy in the final basis set = -571.66870975
 
 --------------------------------------------------------------
 
                    Orbital Energies (a.u.)
 --------------------------------------------------------------
 
 Alpha MOs
 -- Occupied --
-19.220 -19.203 -19.139 -19.137 -19.116 -10.339 -10.337 -10.258
-10.244 -10.240  -1.142  -1.130  -1.066  -1.047  -1.016  -0.883
 -0.831  -0.749  -0.623  -0.604  -0.573  -0.554  -0.545  -0.533
 -0.522  -0.509  -0.502  -0.484  -0.481  -0.455  -0.441  -0.439
 -0.423  -0.409  -0.357  -0.347  -0.336  -0.330  -0.323  -0.310
 -- Virtual --
 -0.025   0.060   0.075   0.082   0.088   0.098   0.104   0.110
  0.123   0.127   0.130   0.136   0.144   0.150   0.154   0.163
  0.171   0.175   0.181   0.185   0.195   0.210   0.212   0.221
  0.229   0.235   0.240   0.249   0.256   0.266   0.269   0.270
  0.278   0.287   0.295   0.296   0.304   0.311   0.323   0.325
  0.337   0.343   0.348   0.353   0.355   0.358   0.366   0.372
  0.379   0.384   0.390   0.397   0.398   0.406   0.407   0.414
  0.418   0.427   0.432   0.435   0.436   0.440   0.443   0.454
  0.461   0.468   0.474   0.481   0.485   0.491   0.499   0.502
  0.505   0.513   0.517   0.526   0.527   0.537   0.539   0.543
  0.549   0.560   0.565   0.569   0.573   0.580   0.594   0.596
  0.603   0.611   0.616   0.620   0.629   0.638   0.641   0.646
  0.653   0.665   0.675   0.680   0.683   0.687   0.696   0.705
  0.713   0.718   0.731   0.735   0.743   0.755   0.765   0.768
  0.780   0.781   0.786   0.788   0.799   0.804   0.809   0.814
  0.822   0.831   0.832   0.836   0.843   0.847   0.858   0.862
  0.878   0.887   0.889   0.898   0.903   0.906   0.918   0.931
  0.934   0.951   0.959   0.962   0.969   0.997   1.009   1.020
  1.026   1.048   1.055   1.062   1.073   1.090   1.111   1.113
  1.119   1.137   1.148   1.163   1.173   1.182   1.194   1.204
  1.218   1.239   1.239   1.248   1.270   1.285   1.288   1.303
  1.339   1.349   1.355   1.361   1.386   1.392   1.412   1.425
  1.451   1.470   1.490   1.510   1.523   1.542   1.571   1.587
  1.598   1.617   1.654   1.675   1.699   1.743   1.758   1.811
  1.842   1.864   1.886   1.906   1.908   1.936   1.942   1.947
  1.956   1.967   1.970   1.974   2.004   2.013   2.023   2.038
  2.048   2.054   2.068   2.095   2.101   2.122   2.141   2.155
  2.177   2.190   2.197   2.234   2.240   2.245   2.260   2.295
  2.301   2.307   2.327   2.349   2.358   2.392   2.404   2.435
  2.460   2.462   2.479   2.486   2.494   2.497   2.535   2.558
  2.575   2.587   2.623   2.641   2.664   2.687   2.696   2.719
  2.750   2.764   2.788   2.802   2.851   2.867   2.881   2.896
  2.920   2.928   2.943   2.962   2.980   2.999   3.013   3.021
  3.034   3.054   3.074   3.097   3.112   3.137   3.175   3.224
  3.231   3.256   3.269   3.275   3.305   3.310   3.336   3.347
  3.355   3.360   3.403   3.413   3.419   3.458   3.462   3.477
  3.485   3.502   3.521   3.539   3.565   3.573   3.600   3.608
  3.622   3.629   3.644   3.676   3.682   3.689   3.711   3.718
  3.734   3.743   3.751   3.772   3.781   3.786   3.807   3.832
  3.851   3.878   3.919   3.929   3.967   3.990   4.001   4.090
  4.110   4.134   4.159   4.210   4.235   4.257   4.282   4.298
  4.372   4.455   4.481   4.574   4.625   4.631   4.698   4.741
  4.766   4.773   4.824   4.859   4.910   4.990   5.046   5.066
  5.080   5.189   5.243   5.250   5.274   5.283   5.310   5.324
  5.356   5.362   5.372   5.385   5.397   5.407   5.466   5.500
  5.507   5.566   5.572   5.618   5.660   5.718   5.722   5.753
  5.785   5.881   6.004   6.077   6.168   6.235   6.249   6.303
  6.306   6.340   6.407   6.460   6.513   6.548   6.599   6.614
  6.621   6.640   6.701   6.754   6.768   6.778   6.829   6.869
  6.960   6.974   7.005   7.056   7.059   7.081   7.190   7.241
  7.303   7.346   7.369   7.390   7.412   7.420   7.508  22.721
 22.878  22.929  23.248  23.733  43.942  44.307  44.424  44.483
 44.613
 
 Beta MOs
 -- Occupied --
-19.217 -19.201 -19.139 -19.137 -19.117 -10.340 -10.337 -10.261
-10.244 -10.241  -1.150  -1.142  -1.048  -1.035  -1.006  -0.889
 -0.836  -0.755  -0.634  -0.606  -0.574  -0.564  -0.546  -0.534
 -0.518  -0.514  -0.502  -0.488  -0.475  -0.461  -0.442  -0.425
 -0.400  -0.388  -0.372  -0.347  -0.337  -0.331  -0.326  -0.305
 -- Virtual --
 -0.015   0.060   0.076   0.082   0.088   0.099   0.104   0.111
  0.123   0.127   0.130   0.137   0.144   0.151   0.154   0.163
  0.171   0.175   0.181   0.186   0.195   0.210   0.212   0.221
  0.230   0.235   0.240   0.248   0.256   0.266   0.269   0.270
  0.278   0.286   0.294   0.296   0.304   0.310   0.323   0.323
  0.337   0.343   0.347   0.352   0.355   0.358   0.366   0.371
  0.379   0.384   0.391   0.395   0.397   0.405   0.406   0.414
  0.417   0.426   0.432   0.435   0.436   0.438   0.444   0.455
  0.462   0.468   0.474   0.482   0.484   0.491   0.495   0.501
  0.505   0.512   0.516   0.525   0.527   0.536   0.540   0.543
  0.548   0.559   0.565   0.569   0.574   0.580   0.592   0.597
  0.604   0.612   0.616   0.620   0.629   0.637   0.641   0.646
  0.652   0.664   0.675   0.681   0.683   0.687   0.696   0.704
  0.714   0.718   0.731   0.736   0.742   0.755   0.765   0.767
  0.779   0.781   0.786   0.788   0.798   0.804   0.809   0.814
  0.822   0.831   0.832   0.837   0.843   0.847   0.857   0.861
  0.877   0.887   0.889   0.898   0.903   0.905   0.917   0.930
  0.933   0.952   0.959   0.961   0.970   0.998   1.009   1.022
  1.025   1.048   1.055   1.062   1.075   1.090   1.110   1.111
  1.118   1.136   1.154   1.162   1.177   1.182   1.193   1.206
  1.217   1.237   1.241   1.249   1.270   1.282   1.287   1.303
  1.338   1.349   1.354   1.359   1.386   1.391   1.415   1.426
  1.449   1.467   1.490   1.509   1.521   1.541   1.569   1.585
  1.597   1.616   1.653   1.674   1.697   1.747   1.761   1.811
  1.852   1.864   1.886   1.909   1.929   1.938   1.944   1.950
  1.957   1.968   1.969   1.973   2.004   2.013   2.035   2.037
  2.047   2.059   2.067   2.089   2.099   2.115   2.138   2.154
  2.174   2.186   2.196   2.229   2.242   2.247   2.257   2.293
  2.300   2.304   2.326   2.347   2.360   2.390   2.403   2.435
  2.458   2.461   2.477   2.484   2.492   2.496   2.536   2.557
  2.579   2.585   2.622   2.639   2.663   2.687   2.695   2.717
  2.747   2.763   2.787   2.801   2.850   2.866   2.881   2.892
  2.918   2.930   2.943   2.960   2.981   2.996   3.014   3.021
  3.037   3.062   3.076   3.099   3.110   3.134   3.174   3.222
  3.246   3.266   3.269   3.290   3.306   3.307   3.336   3.343
  3.357   3.361   3.404   3.416   3.418   3.456   3.460   3.477
  3.484   3.499   3.521   3.538   3.563   3.570   3.599   3.607
  3.621   3.626   3.642   3.674   3.675   3.686   3.709   3.714
  3.730   3.742   3.751   3.770   3.779   3.785   3.807   3.828
  3.849   3.873   3.916   3.924   3.962   3.986   3.999   4.089
  4.108   4.131   4.158   4.207   4.231   4.266   4.281   4.297
  4.371   4.453   4.479   4.572   4.622   4.628   4.697   4.738
  4.765   4.770   4.823   4.858   4.908   4.986   5.037   5.061
  5.076   5.186   5.265   5.293   5.298   5.320   5.328   5.331
  5.349   5.363   5.367   5.378   5.388   5.403   5.468   5.493
  5.508   5.550   5.580   5.632   5.667   5.718   5.720   5.742
  5.784   5.872   6.003   6.045   6.168   6.226   6.249   6.303
  6.317   6.341   6.406   6.454   6.591   6.599   6.621   6.632
  6.641   6.654   6.699   6.722   6.758   6.776   6.817   6.865
  6.960   6.974   7.000   7.033   7.058   7.081   7.185   7.240
  7.295   7.340   7.369   7.390   7.406   7.412   7.508  22.720
 22.877  22.927  23.248  23.733  43.965  44.307  44.424  44.468
 44.610
 --------------------------------------------------------------
 
          Ground-State Mulliken Net Atomic Charges

     Atom                 Charge (a.u.)    Spin (a.u.)
  --------------------------------------------------------
      1 C                     0.037255      -0.006261
      2 O                    -0.709940      -0.001753
      3 O                    -0.698413      -0.001302
      4 C                    -0.323827      -0.006302
      5 H                     0.351527      -0.024867
      6 H                     0.230476      -0.000339
      7 C                    -0.608230      -0.117836
      8 H                     0.316747       0.005245
      9 H                     0.200613      -0.013552
     10 C                     1.445866       0.062544
     11 O                    -0.535592      -0.692751
     12 H                     0.222711      -0.004649
     13 O                    -0.942320      -0.048376
     14 O                    -0.494899       0.921765
     15 C                    -1.214560      -0.077402
     16 H                     0.225022       0.000725
     17 H                     0.254646       0.003593
     18 H                     0.242917       0.001518
  --------------------------------------------------------
  Sum of atomic charges =    -2.000000
  Sum of spin   charges =     0.000000

 -----------------------------------------------------------------
                    Cartesian Multipole Moments
 -----------------------------------------------------------------
    Charge (ESU x 10^10)
                -9.6064
    Dipole Moment (Debye)
         X       1.6591      Y      -8.4885      Z       8.7018
       Tot      12.2690
    Quadrupole Moments (Debye-Ang)
        XX    -104.6371     XY     -17.9474     YY     -85.2642
        XZ      29.7234     YZ      25.5890     ZZ    -124.6035
    Octopole Moments (Debye-Ang^2)
       XXX      31.1447    XXY     -29.9306    XYY      -8.5255
       YYY     -76.3260    XXZ      35.9272    XYZ      27.9646
       YYZ      63.1684    XZZ     -33.0412    YZZ    -112.5481
       ZZZ     227.0661
    Hexadecapole Moments (Debye-Ang^3)
      XXXX   -1119.9845   XXXY    -251.7516   XXYY    -292.4708
      XYYY    -183.0552   YYYY    -616.7245   XXXZ     480.2264
      XXYZ     200.1286   XYYZ     161.7205   YYYZ     415.1320
      XXZZ    -511.4672   XYZZ    -148.4030   YYZZ    -515.6362
      XZZZ     473.5734   YZZZ     657.0213   ZZZZ   -2117.7631
 -----------------------------------------------------------------
 Calculating analytic gradient of the SCF energy
 Gradient of SCF Energy
            1           2           3           4           5           6
    1   0.0378595   0.0132949  -0.0616278  -0.0939017  -0.0520166   0.0469424
    2   0.0126299  -0.0151219  -0.0020554   0.0156876  -0.0229608   0.0262654
    3  -0.0233823   0.0541614  -0.0112377   0.0281837   0.0062266   0.0301454
            7           8           9          10          11          12
    1   0.0918001  -0.0117134  -0.0493343   0.0268792  -0.0005080   0.0243382
    2  -0.0081264   0.0422606  -0.0359701   0.0093282   0.0173893  -0.0482176
    3  -0.0226146   0.0309623  -0.0390759  -0.0402121  -0.0039630  -0.0314292
           13          14          15          16          17          18
    1   0.0077357   0.0216488   0.0325575   0.0444069  -0.0181565  -0.0602048
    2   0.0152573   0.0275743  -0.0741872   0.0231374   0.0589465  -0.0418369
    3  -0.0085157   0.0024429   0.0739609  -0.0586735   0.0401116  -0.0270908
 Max gradient component =       9.390E-02
 RMS gradient           =       3.879E-02
 Computing fast CPCM-ISWIG gradient
 Updating gradient with PCM contributions...
 -- total gradient after adding PCM contribution --
---------------------------------------------------
  Atom         X              Y              Z     
---------------------------------------------------
   1       0.001328       0.000061       0.000221
   2      -0.000274       0.000039      -0.000151
   3      -0.000889      -0.000069      -0.000198
   4      -0.000230      -0.000031       0.000070
   5       0.000018       0.000005       0.000025
   6      -0.000053      -0.000003       0.000034
   7       0.000028      -0.000005      -0.000009
   8      -0.000013       0.000001      -0.000012
   9      -0.000002      -0.000006      -0.000021
  10       0.000007       0.000009       0.000001
  11      -0.000004       0.000003       0.000010
  12      -0.000024      -0.000006       0.000019
  13       0.000019       0.000001       0.000006
  14       0.000019       0.000011       0.000034
  15       0.000018      -0.000002      -0.000008
  16       0.000024       0.000000       0.000001
  17       0.000007      -0.000003      -0.000009
  18       0.000022      -0.000005      -0.000015
---------------------------------------------------
 Number of fixed atoms: 0
 Gradient time:  CPU 897.90 s  wall 65.47 s
 ----------------------------------------------------------------
             Standard Nuclear Orientation (Angstroms)
    I     Atom           X                Y                Z
 ----------------------------------------------------------------
    1      C       1.0532098780     1.4093348854    -2.4609990292
    2      O       0.6036938542     1.7683528642    -3.5827264951
    3      O       2.2580844331     1.4876111962    -2.1027759950
    4      C       0.0251855184     0.8726969202    -1.4524913993
    5      H      -2.1803786246     0.1479946665     1.7632684629
    6      H      -0.7803647401     0.3883460127    -2.0100673339
    7      C       0.6005430419    -0.0579785768    -0.3993664586
    8      H       0.9228844130    -1.0044246716    -0.8432137420
    9      H       1.4675022561     0.4020597454     0.0824073554
   10      C      -0.3854855232    -0.3584631541     0.8242841566
   11      O      -1.3976464514    -1.0263614423     0.1712526517
   12      H      -0.4143793443     1.7482557895    -0.9592048503
   13      O      -0.7897459289     0.7603211960     1.4554789522
   14      O      -2.9566712547    -0.5334984300     1.7288739715
   15      C       0.3619572226    -1.3309467084     1.7689124846
   16      H      -0.3096800854    -1.6145035323     2.5845142020
   17      H       0.6853323031    -2.2319302513     1.2398441914
   18      H       1.2349590314    -0.8268665085     2.1920088747
 ----------------------------------------------------------------
 Nuclear Repulsion Energy =   533.7288135517 hartrees
 There are       40 alpha and       40 beta electrons
 Discretize the solute cavity surface with Lebedev spheres
	Using 110 Lebedev grid points for each H atom
	Using 110 Lebedev grid points for other atoms
	Atomic van der Waals radii will be scaled by 1.20
 Remove points where switching function is < 1.0e-08
 Keep 1058 surface tesserae and discard 922 interior tesserae
 Molecular Surface Area = 193.914 Angst**2
 Requested basis set is def2-TZVPD
 There are 175 shells and 457 basis functions
 A cutoff of  1.0D-14 yielded  13982 shell pairs
 There are     95156 function pairs (    120901 Cartesian)
 Smallest overlap matrix eigenvalue = 3.00E-06
 Guess MOs from SCF MO coefficient file
 Reading MOs from coefficient file
 Reading MOs from coefficient file
 Long-range K will be added via erf
 Coulomb attenuation parameter = 0.3 bohr**(-1)
 An unrestricted hybrid HF-DFT SCF calculation will be
 performed using Pulay DIIS extrapolation
 Polarizable Continuum solvation model will be applied
 Exchange:     0.1670 Hartree-Fock + 1.0000 wB97X-V + LR-HF
 Correlation:  1.0000 wB97X-V
 Using SG-2 standard quadrature grid
 Nonlocal Correlation:  VV10 with C = 0.0100 and b = 6.00
 Grid used for NLC:  SG-1 standard quadrature
 SCF converges when DIIS error is below 1.0E-08
Using Q-Chem read-in guess as SCF_GUESS READ specified.

 using 16 threads for integral computing
 -------------------------------------------------------
 OpenMP Integral computing Module                
 Release: version 1.0, May 2013, Q-Chem Inc. Pittsburgh 
 -------------------------------------------------------
 using 16 threads for integral computing
 -------------------------------------------------------
 OpenMP Integral computing Module                
 Release: version 1.0, May 2013, Q-Chem Inc. Pittsburgh 
 -------------------------------------------------------
 -------------------------------------------------------
 OpenMP BLAS3 based DFT computing Module                
 Release: version 1.0, May 2013, Q-Chem Inc. Pittsburgh 
 -------------------------------------------------------
 -------------------------------------------------------
 OpenMP BLAS3 based DFT computing Module                
 Release: version 1.0, May 2013, Q-Chem Inc. Pittsburgh 
 -------------------------------------------------------
 -------------------------------------------------------
 OpenMP BLAS3 based DFT computing Module                
 Release: version 1.0, May 2013, Q-Chem Inc. Pittsburgh 
 -------------------------------------------------------
 ---------------------------------------
  Cycle       Energy         DIIS Error
 ---------------------------------------
    1    -571.3676980254      3.15E-04
    2    -571.6628998359      3.25E-04
    3    -571.6669963375      1.52E-04
    4    -571.6676729262      1.13E-04
    5    -571.6681319843      8.32E-05
    6    -571.6684336091      5.75E-05
    7    -571.6686424057      2.82E-05
    8    -571.6687007263      1.00E-05
    9    -571.6687088811      2.34E-06
   10    -571.6687093916      7.46E-07
   11    -571.6687094695      4.23E-07
   12    -571.6687095186      3.28E-07
   13    -571.6687095691      2.38E-07
   14    -571.6687096076      1.86E-07
   15    -571.6687096324      1.31E-07
   16    -571.6687096486      9.96E-08
   17    -571.6687096625      5.64E-08
   18    -571.6687096683      3.67E-08
   19    -571.6687096704      1.71E-08
   20    -571.6687096707      1.04E-08
   21    -571.6687096708      8.58E-09 Convergence criterion met
 ---------------------------------------

************** Final PCM Free Energy Summary **************
 G_electrostatic  =      -0.30001517 hartree =    -188.26235936 kcal/mol
 G_cavitation     =       0.00000000 hartree =       0.00000000 kcal/mol
 G_dispersion     =       0.00000000 hartree =       0.00000000 kcal/mol
 G_repulsion      =       0.00000000 hartree =       0.00000000 kcal/mol
 --------------------------------------------------
 Non-electrostatic Free Energy =       0.00000000 hartree =       0.00000000 kcal/mol
 Total                         =      -0.30001517 hartree =    -188.26235936 kcal/mol
 --------------------------------------------------
 SCF Energy (H0 + V/2)                       =    -571.66870967 
 Solute Internal Energy (H0)                 =    -571.36869450 
 Total Free Energy (H0 + V/2 + non-elec)     =    -571.66870967 hartree
                                             = -358727.52959277 kcal/mol
***********************************************************

 <S^2> = 0.8926
 SCF time:  CPU 5866.42 s  wall 427.28 s
 SCF   energy in the final basis set = -571.66870967
 Total energy in the final basis set = -571.66870967
 
 --------------------------------------------------------------
 
                    Orbital Energies (a.u.)
 --------------------------------------------------------------
 
 Alpha MOs
 -- Occupied --
-19.220 -19.203 -19.139 -19.138 -19.116 -10.340 -10.337 -10.258
-10.244 -10.240  -1.142  -1.130  -1.066  -1.047  -1.016  -0.883
 -0.831  -0.749  -0.623  -0.604  -0.573  -0.554  -0.545  -0.533
 -0.522  -0.509  -0.502  -0.484  -0.481  -0.455  -0.441  -0.439
 -0.423  -0.409  -0.357  -0.347  -0.336  -0.330  -0.323  -0.310
 -- Virtual --
 -0.025   0.060   0.075   0.082   0.088   0.098   0.104   0.110
  0.123   0.127   0.130   0.136   0.144   0.150   0.154   0.162
  0.171   0.175   0.181   0.185   0.195   0.210   0.212   0.221
  0.229   0.235   0.240   0.249   0.256   0.266   0.269   0.270
  0.278   0.287   0.295   0.296   0.304   0.311   0.323   0.325
  0.337   0.343   0.348   0.353   0.355   0.358   0.366   0.372
  0.379   0.384   0.390   0.397   0.398   0.406   0.407   0.414
  0.418   0.427   0.432   0.435   0.436   0.440   0.443   0.454
  0.461   0.468   0.474   0.481   0.485   0.491   0.499   0.502
  0.505   0.513   0.517   0.526   0.527   0.537   0.539   0.543
  0.549   0.560   0.565   0.569   0.573   0.580   0.593   0.596
  0.603   0.611   0.616   0.620   0.629   0.638   0.641   0.646
  0.653   0.665   0.675   0.680   0.683   0.687   0.696   0.705
  0.713   0.718   0.731   0.735   0.743   0.755   0.765   0.768
  0.780   0.781   0.786   0.788   0.799   0.804   0.809   0.814
  0.822   0.831   0.832   0.836   0.843   0.847   0.858   0.862
  0.878   0.887   0.889   0.898   0.903   0.906   0.918   0.931
  0.934   0.951   0.959   0.962   0.969   0.997   1.009   1.020
  1.026   1.048   1.055   1.062   1.073   1.090   1.111   1.113
  1.119   1.137   1.148   1.162   1.173   1.182   1.194   1.204
  1.218   1.238   1.239   1.248   1.270   1.285   1.288   1.303
  1.339   1.349   1.355   1.361   1.386   1.392   1.412   1.425
  1.451   1.470   1.490   1.510   1.523   1.542   1.571   1.587
  1.598   1.617   1.654   1.675   1.699   1.743   1.758   1.811
  1.842   1.864   1.886   1.906   1.908   1.936   1.942   1.947
  1.956   1.967   1.970   1.974   2.004   2.013   2.023   2.038
  2.048   2.054   2.068   2.095   2.101   2.122   2.141   2.155
  2.177   2.190   2.197   2.234   2.240   2.246   2.260   2.295
  2.302   2.307   2.326   2.349   2.359   2.393   2.404   2.435
  2.460   2.462   2.478   2.486   2.493   2.497   2.535   2.558
  2.575   2.587   2.624   2.641   2.664   2.687   2.696   2.719
  2.750   2.764   2.788   2.802   2.851   2.867   2.881   2.896
  2.920   2.929   2.943   2.963   2.980   2.999   3.013   3.021
  3.034   3.054   3.074   3.097   3.112   3.137   3.176   3.223
  3.231   3.256   3.269   3.275   3.305   3.310   3.336   3.347
  3.355   3.360   3.403   3.413   3.419   3.458   3.462   3.477
  3.486   3.502   3.522   3.539   3.564   3.572   3.600   3.608
  3.622   3.629   3.643   3.676   3.682   3.688   3.711   3.718
  3.734   3.743   3.751   3.772   3.780   3.786   3.808   3.833
  3.851   3.878   3.919   3.929   3.967   3.989   4.001   4.091
  4.110   4.135   4.159   4.210   4.235   4.257   4.282   4.298
  4.372   4.455   4.481   4.574   4.625   4.632   4.698   4.741
  4.766   4.773   4.824   4.861   4.910   4.990   5.046   5.066
  5.080   5.189   5.243   5.250   5.274   5.283   5.310   5.324
  5.356   5.362   5.372   5.385   5.397   5.407   5.466   5.500
  5.506   5.566   5.572   5.618   5.660   5.719   5.721   5.753
  5.785   5.881   6.003   6.077   6.168   6.235   6.247   6.302
  6.306   6.340   6.407   6.460   6.513   6.548   6.599   6.614
  6.619   6.640   6.702   6.754   6.768   6.778   6.829   6.869
  6.960   6.974   7.005   7.056   7.059   7.081   7.190   7.241
  7.303   7.346   7.369   7.388   7.411   7.420   7.508  22.721
 22.879  22.930  23.248  23.730  43.942  44.307  44.423  44.483
 44.613
 
 Beta MOs
 -- Occupied --
-19.217 -19.201 -19.139 -19.138 -19.117 -10.340 -10.337 -10.261
-10.244 -10.241  -1.150  -1.142  -1.047  -1.035  -1.006  -0.889
 -0.836  -0.756  -0.634  -0.606  -0.574  -0.564  -0.546  -0.534
 -0.518  -0.514  -0.502  -0.488  -0.475  -0.461  -0.442  -0.425
 -0.400  -0.388  -0.372  -0.347  -0.337  -0.331  -0.326  -0.305
 -- Virtual --
 -0.015   0.060   0.076   0.082   0.088   0.099   0.104   0.111
  0.123   0.127   0.130   0.137   0.144   0.151   0.154   0.162
  0.171   0.175   0.181   0.186   0.195   0.210   0.212   0.221
  0.230   0.235   0.240   0.248   0.256   0.266   0.269   0.270
  0.278   0.286   0.294   0.296   0.304   0.310   0.323   0.323
  0.337   0.343   0.347   0.352   0.355   0.358   0.366   0.371
  0.379   0.384   0.391   0.395   0.397   0.405   0.406   0.413
  0.417   0.426   0.432   0.435   0.436   0.438   0.444   0.455
  0.462   0.468   0.474   0.483   0.485   0.491   0.495   0.501
  0.505   0.512   0.516   0.525   0.527   0.536   0.539   0.543
  0.548   0.559   0.565   0.569   0.574   0.580   0.592   0.597
  0.604   0.612   0.616   0.620   0.629   0.637   0.641   0.646
  0.652   0.664   0.675   0.681   0.683   0.687   0.696   0.704
  0.714   0.718   0.731   0.736   0.742   0.755   0.765   0.767
  0.779   0.781   0.786   0.788   0.798   0.804   0.808   0.814
  0.822   0.831   0.832   0.837   0.843   0.847   0.857   0.861
  0.877   0.887   0.889   0.898   0.903   0.905   0.917   0.930
  0.933   0.952   0.959   0.961   0.970   0.998   1.009   1.022
  1.025   1.048   1.055   1.062   1.075   1.090   1.110   1.111
  1.118   1.136   1.154   1.162   1.177   1.182   1.193   1.206
  1.217   1.237   1.241   1.249   1.270   1.282   1.287   1.303
  1.338   1.349   1.354   1.359   1.386   1.391   1.415   1.426
  1.449   1.467   1.490   1.509   1.521   1.540   1.569   1.585
  1.597   1.616   1.653   1.674   1.697   1.747   1.761   1.811
  1.852   1.864   1.886   1.909   1.929   1.938   1.944   1.950
  1.958   1.968   1.969   1.973   2.004   2.013   2.035   2.037
  2.047   2.059   2.067   2.089   2.099   2.115   2.138   2.154
  2.174   2.186   2.196   2.229   2.242   2.248   2.257   2.293
  2.301   2.304   2.326   2.347   2.360   2.390   2.403   2.435
  2.457   2.461   2.477   2.485   2.492   2.496   2.536   2.558
  2.579   2.585   2.622   2.639   2.663   2.687   2.695   2.717
  2.747   2.763   2.787   2.801   2.850   2.866   2.881   2.892
  2.918   2.930   2.943   2.960   2.981   2.996   3.014   3.021
  3.037   3.062   3.075   3.099   3.110   3.134   3.174   3.222
  3.246   3.266   3.269   3.290   3.306   3.307   3.336   3.344
  3.357   3.361   3.404   3.416   3.418   3.456   3.460   3.477
  3.484   3.500   3.521   3.538   3.563   3.569   3.599   3.607
  3.621   3.626   3.641   3.674   3.675   3.685   3.708   3.714
  3.730   3.742   3.751   3.770   3.779   3.785   3.808   3.828
  3.850   3.873   3.916   3.924   3.962   3.986   3.999   4.089
  4.108   4.131   4.158   4.207   4.231   4.266   4.281   4.297
  4.371   4.453   4.479   4.572   4.622   4.628   4.697   4.738
  4.765   4.770   4.823   4.860   4.908   4.987   5.037   5.061
  5.076   5.186   5.264   5.293   5.298   5.320   5.328   5.331
  5.349   5.363   5.367   5.378   5.389   5.403   5.468   5.492
  5.507   5.550   5.580   5.632   5.667   5.718   5.719   5.742
  5.784   5.872   6.002   6.045   6.168   6.226   6.247   6.302
  6.317   6.341   6.406   6.454   6.591   6.599   6.618   6.632
  6.641   6.654   6.700   6.722   6.758   6.776   6.817   6.865
  6.959   6.974   7.000   7.033   7.058   7.081   7.185   7.241
  7.295   7.340   7.368   7.388   7.406   7.411   7.508  22.720
 22.877  22.928  23.248  23.730  43.965  44.307  44.423  44.468
 44.610
 --------------------------------------------------------------
 
          Ground-State Mulliken Net Atomic Charges

     Atom                 Charge (a.u.)    Spin (a.u.)
  --------------------------------------------------------
      1 C                     0.035432      -0.006286
      2 O                    -0.708822      -0.001743
      3 O                    -0.700453      -0.001327
      4 C                    -0.321454      -0.006298
      5 H                     0.351521      -0.024867
      6 H                     0.230394      -0.000338
      7 C                    -0.608005      -0.117779
      8 H                     0.316729       0.005253
      9 H                     0.200498      -0.013563
     10 C                     1.446181       0.062546
     11 O                    -0.535565      -0.692835
     12 H                     0.222744      -0.004647
     13 O                    -0.942318      -0.048359
     14 O                    -0.494880       0.921776
     15 C                    -1.214619      -0.077366
     16 H                     0.225031       0.000725
     17 H                     0.254661       0.003593
     18 H                     0.242926       0.001516
  --------------------------------------------------------
  Sum of atomic charges =    -2.000000
  Sum of spin   charges =    -0.000000

 -----------------------------------------------------------------
                    Cartesian Multipole Moments
 -----------------------------------------------------------------
    Charge (ESU x 10^10)
                -9.6064
    Dipole Moment (Debye)
         X       1.6353      Y      -8.4899      Z       8.6956
       Tot      12.2624
    Quadrupole Moments (Debye-Ang)
        XX    -104.6963     XY     -17.9806     YY     -85.2618
        XZ      29.7651     YZ      25.5725     ZZ    -124.5505
    Octopole Moments (Debye-Ang^2)
       XXX      30.9895    XXY     -30.0226    XYY      -8.5847
       YYY     -76.3240    XXZ      36.0558    XYZ      28.0191
       YYZ      63.1269    XZZ     -33.1106    YZZ    -112.4498
       ZZZ     226.8062
    Hexadecapole Moments (Debye-Ang^3)
      XXXX   -1120.3543   XXXY    -251.9645   XXYY    -292.6313
      XYYY    -183.1698   YYYY    -616.6889   XXXZ     480.5165
      XXYZ     200.2962   XYYZ     161.7968   YYYZ     415.0026
      XXZZ    -511.7130   XYZZ    -148.4646   YYZZ    -515.3773
      XZZZ     473.5813   YZZZ     656.5102   ZZZZ   -2116.4264
 -----------------------------------------------------------------
 Calculating analytic gradient of the SCF energy
 Gradient of SCF Energy
            1           2           3           4           5           6
    1   0.0352276   0.0136294  -0.0596980  -0.0934880  -0.0520080   0.0469417
    2   0.0125039  -0.0152493  -0.0018952   0.0157050  -0.0229582   0.0262689
    3  -0.0241269   0.0546804  -0.0107757   0.0280739   0.0062210   0.0300352
            7           8           9          10          11          12
    1   0.0918119  -0.0116833  -0.0493438   0.0267962  -0.0005000   0.0243178
    2  -0.0080312   0.0422383  -0.0359917   0.0092677   0.0173913  -0.0481455
    3  -0.0227110   0.0309707  -0.0390254  -0.0402057  -0.0039594  -0.0314244
           13          14          15          16          17          18
    1   0.0077438   0.0216461   0.0325685   0.0444056  -0.0181579  -0.0602094
    2   0.0152644   0.0275705  -0.0741831   0.0231348   0.0589491  -0.0418396
    3  -0.0085050   0.0024443   0.0739597  -0.0586696   0.0401100  -0.0270922
 Max gradient component =       9.349E-02
 RMS gradient           =       3.868E-02
 Computing fast CPCM-ISWIG gradient
 Updating gradient with PCM contributions...
 -- total gradient after adding PCM contribution --
---------------------------------------------------
  Atom         X              Y              Z     
---------------------------------------------------
   1      -0.001369      -0.000064      -0.000241
   2       0.000204      -0.000039       0.000140
   3       0.000844       0.000057       0.000146
   4       0.000204       0.000033      -0.000070
   5       0.000020       0.000005       0.000024
   6       0.000010       0.000011      -0.000016
   7      -0.000036       0.000001      -0.000006
   8      -0.000013      -0.000005      -0.000010
   9       0.000007      -0.000003      -0.000012
  10       0.000004      -0.000007       0.000008
  11       0.000008       0.000006       0.000020
  12       0.000014       0.000009      -0.000007
  13       0.000019       0.000000       0.000012
  14       0.000018       0.000011       0.000035
  15       0.000014      -0.000004      -0.000002
  16       0.000024      -0.000001       0.000003
  17       0.000007      -0.000003      -0.000009
  18       0.000022      -0.000005      -0.000015
---------------------------------------------------
 Number of fixed atoms: 0
 Gradient time:  CPU 895.29 s  wall 64.99 s
 ----------------------------------------------------------------
             Standard Nuclear Orientation (Angstroms)
    I     Atom           X                Y                Z
 ----------------------------------------------------------------
    1      C       1.0542098780     1.4103348854    -2.4609990292
    2      O       0.6036938542     1.7683528642    -3.5827264951
    3      O       2.2580844331     1.4876111962    -2.1027759950
    4      C       0.0251855184     0.8726969202    -1.4524913993
    5      H      -2.1803786246     0.1479946665     1.7632684629
    6      H      -0.7803647401     0.3883460127    -2.0100673339
    7      C       0.6005430419    -0.0579785768    -0.3993664586
    8      H       0.9228844130    -1.0044246716    -0.8432137420
    9      H       1.4675022561     0.4020597454     0.0824073554
   10      C      -0.3854855232    -0.3584631541     0.8242841566
   11      O      -1.3976464514    -1.0263614423     0.1712526517
   12      H      -0.4143793443     1.7482557895    -0.9592048503
   13      O      -0.7897459289     0.7603211960     1.4554789522
   14      O      -2.9566712547    -0.5334984300     1.7288739715
   15      C       0.3619572226    -1.3309467084     1.7689124846
   16      H      -0.3096800854    -1.6145035323     2.5845142020
   17      H       0.6853323031    -2.2319302513     1.2398441914
   18      H       1.2349590314    -0.8268665085     2.1920088747
 ----------------------------------------------------------------
 Nuclear Repulsion Energy =   533.7272377937 hartrees
 There are       40 alpha and       40 beta electrons
 Discretize the solute cavity surface with Lebedev spheres
	Using 110 Lebedev grid points for each H atom
	Using 110 Lebedev grid points for other atoms
	Atomic van der Waals radii will be scaled by 1.20
 Remove points where switching function is < 1.0e-08
 Keep 1058 surface tesserae and discard 922 interior tesserae
 Molecular Surface Area = 193.918 Angst**2
 Requested basis set is def2-TZVPD
 There are 175 shells and 457 basis functions
 A cutoff of  1.0D-14 yielded  13982 shell pairs
 There are     95156 function pairs (    120901 Cartesian)
 Smallest overlap matrix eigenvalue = 3.00E-06
 Guess MOs from SCF MO coefficient file
 Reading MOs from coefficient file
 Reading MOs from coefficient file
 Long-range K will be added via erf
 Coulomb attenuation parameter = 0.3 bohr**(-1)
 An unrestricted hybrid HF-DFT SCF calculation will be
 performed using Pulay DIIS extrapolation
 Polarizable Continuum solvation model will be applied
 Exchange:     0.1670 Hartree-Fock + 1.0000 wB97X-V + LR-HF
 Correlation:  1.0000 wB97X-V
 Using SG-2 standard quadrature grid
 Nonlocal Correlation:  VV10 with C = 0.0100 and b = 6.00
 Grid used for NLC:  SG-1 standard quadrature
 SCF converges when DIIS error is below 1.0E-08
Using Q-Chem read-in guess as SCF_GUESS READ specified.

 using 16 threads for integral computing
 -------------------------------------------------------
 OpenMP Integral computing Module                
 Release: version 1.0, May 2013, Q-Chem Inc. Pittsburgh 
 -------------------------------------------------------
 using 16 threads for integral computing
 -------------------------------------------------------
 OpenMP Integral computing Module                
 Release: version 1.0, May 2013, Q-Chem Inc. Pittsburgh 
 -------------------------------------------------------
 -------------------------------------------------------
 OpenMP BLAS3 based DFT computing Module                
 Release: version 1.0, May 2013, Q-Chem Inc. Pittsburgh 
 -------------------------------------------------------
 -------------------------------------------------------
 OpenMP BLAS3 based DFT computing Module                
 Release: version 1.0, May 2013, Q-Chem Inc. Pittsburgh 
 -------------------------------------------------------
 -------------------------------------------------------
 OpenMP BLAS3 based DFT computing Module                
 Release: version 1.0, May 2013, Q-Chem Inc. Pittsburgh 
 -------------------------------------------------------
 ---------------------------------------
  Cycle       Energy         DIIS Error
 ---------------------------------------
    1    -571.3694815774      3.14E-04
    2    -571.6628909666      3.26E-04
    3    -571.6669926302      1.53E-04
    4    -571.6676684343      1.13E-04
    5    -571.6681096377      8.49E-05
    6    -571.6683672474      6.41E-05
    7    -571.6685764579      4.00E-05
    8    -571.6686788656      1.93E-05
    9    -571.6687067481      6.31E-06
   10    -571.6687099341      1.76E-06
   11    -571.6687101789      8.68E-07
   12    -571.6687102553      6.20E-07
   13    -571.6687103217      4.31E-07
   14    -571.6687103666      3.41E-07
   15    -571.6687104017      2.30E-07
   16    -571.6687104165      1.62E-07
   17    -571.6687104307      5.38E-08
   18    -571.6687104359      3.84E-08
   19    -571.6687104376      1.84E-08
   20    -571.6687104379      1.06E-08
   21    -571.6687104380      8.78E-09 Convergence criterion met
 ---------------------------------------

************** Final PCM Free Energy Summary **************
 G_electrostatic  =      -0.29998991 hartree =    -188.24650724 kcal/mol
 G_cavitation     =       0.00000000 hartree =       0.00000000 kcal/mol
 G_dispersion     =       0.00000000 hartree =       0.00000000 kcal/mol
 G_repulsion      =       0.00000000 hartree =       0.00000000 kcal/mol
 --------------------------------------------------
 Non-electrostatic Free Energy =       0.00000000 hartree =       0.00000000 kcal/mol
 Total                         =      -0.29998991 hartree =    -188.24650724 kcal/mol
 --------------------------------------------------
 SCF Energy (H0 + V/2)                       =    -571.66871044 
 Solute Internal Energy (H0)                 =    -571.36872053 
 Total Free Energy (H0 + V/2 + non-elec)     =    -571.66871044 hartree
                                             = -358727.53007419 kcal/mol
***********************************************************

 <S^2> = 0.8926
 SCF time:  CPU 5809.87 s  wall 422.94 s
 SCF   energy in the final basis set = -571.66871044
 Total energy in the final basis set = -571.66871044
 
 --------------------------------------------------------------
 
                    Orbital Energies (a.u.)
 --------------------------------------------------------------
 
 Alpha MOs
 -- Occupied --
-19.220 -19.203 -19.139 -19.137 -19.116 -10.340 -10.337 -10.258
-10.244 -10.240  -1.142  -1.130  -1.066  -1.047  -1.016  -0.883
 -0.831  -0.749  -0.623  -0.604  -0.573  -0.554  -0.545  -0.533
 -0.522  -0.509  -0.502  -0.484  -0.481  -0.455  -0.441  -0.439
 -0.423  -0.409  -0.357  -0.347  -0.336  -0.330  -0.323  -0.310
 -- Virtual --
 -0.025   0.060   0.075   0.082   0.088   0.098   0.104   0.110
  0.123   0.127   0.130   0.136   0.144   0.150   0.154   0.163
  0.171   0.175   0.181   0.185   0.195   0.210   0.212   0.221
  0.229   0.235   0.240   0.249   0.256   0.266   0.269   0.270
  0.278   0.287   0.295   0.296   0.304   0.311   0.323   0.325
  0.337   0.343   0.348   0.352   0.355   0.358   0.366   0.372
  0.379   0.384   0.390   0.397   0.398   0.406   0.407   0.414
  0.418   0.427   0.432   0.435   0.436   0.440   0.443   0.454
  0.461   0.468   0.474   0.481   0.485   0.491   0.499   0.502
  0.505   0.513   0.517   0.526   0.527   0.537   0.539   0.543
  0.549   0.560   0.565   0.569   0.573   0.580   0.594   0.596
  0.603   0.611   0.616   0.620   0.629   0.638   0.641   0.646
  0.653   0.665   0.675   0.680   0.683   0.687   0.696   0.705
  0.713   0.718   0.731   0.735   0.743   0.755   0.765   0.768
  0.780   0.781   0.786   0.788   0.799   0.804   0.809   0.814
  0.822   0.831   0.832   0.836   0.843   0.847   0.858   0.862
  0.878   0.887   0.889   0.898   0.903   0.906   0.918   0.931
  0.934   0.951   0.959   0.962   0.969   0.997   1.009   1.020
  1.026   1.048   1.055   1.062   1.073   1.090   1.111   1.113
  1.119   1.137   1.148   1.163   1.173   1.182   1.194   1.204
  1.218   1.239   1.239   1.248   1.270   1.285   1.288   1.303
  1.339   1.349   1.355   1.361   1.386   1.392   1.412   1.425
  1.451   1.470   1.490   1.510   1.523   1.541   1.571   1.587
  1.598   1.617   1.654   1.675   1.699   1.743   1.758   1.811
  1.842   1.864   1.886   1.906   1.908   1.936   1.942   1.947
  1.956   1.967   1.970   1.974   2.004   2.013   2.023   2.038
  2.048   2.054   2.068   2.095   2.101   2.122   2.141   2.155
  2.177   2.190   2.197   2.234   2.240   2.246   2.260   2.295
  2.301   2.307   2.327   2.349   2.359   2.392   2.404   2.435
  2.460   2.462   2.479   2.486   2.494   2.497   2.535   2.558
  2.575   2.587   2.624   2.641   2.664   2.687   2.696   2.719
  2.750   2.764   2.788   2.802   2.851   2.867   2.881   2.896
  2.920   2.928   2.944   2.962   2.980   2.999   3.013   3.021
  3.034   3.054   3.074   3.097   3.112   3.137   3.176   3.223
  3.231   3.256   3.269   3.275   3.305   3.310   3.336   3.347
  3.355   3.360   3.403   3.413   3.419   3.458   3.462   3.477
  3.486   3.502   3.522   3.539   3.565   3.573   3.600   3.608
  3.622   3.629   3.644   3.676   3.682   3.689   3.711   3.718
  3.734   3.743   3.751   3.772   3.781   3.786   3.807   3.832
  3.851   3.878   3.919   3.929   3.967   3.989   4.001   4.090
  4.110   4.134   4.159   4.210   4.235   4.257   4.282   4.298
  4.372   4.455   4.481   4.574   4.625   4.632   4.698   4.741
  4.766   4.773   4.823   4.860   4.910   4.990   5.046   5.066
  5.080   5.189   5.243   5.250   5.274   5.283   5.310   5.324
  5.356   5.362   5.372   5.385   5.397   5.407   5.466   5.500
  5.507   5.566   5.572   5.618   5.660   5.718   5.721   5.753
  5.785   5.881   6.004   6.077   6.168   6.235   6.248   6.303
  6.306   6.340   6.407   6.460   6.513   6.548   6.599   6.614
  6.620   6.640   6.702   6.754   6.768   6.778   6.829   6.869
  6.960   6.974   7.005   7.056   7.059   7.081   7.190   7.241
  7.303   7.346   7.369   7.390   7.411   7.420   7.508  22.721
 22.878  22.929  23.248  23.733  43.942  44.307  44.424  44.483
 44.613
 
 Beta MOs
 -- Occupied --
-19.217 -19.201 -19.139 -19.138 -19.117 -10.340 -10.337 -10.261
-10.244 -10.241  -1.150  -1.142  -1.047  -1.035  -1.006  -0.889
 -0.836  -0.755  -0.634  -0.606  -0.574  -0.564  -0.546  -0.534
 -0.518  -0.514  -0.502  -0.488  -0.475  -0.461  -0.442  -0.425
 -0.400  -0.388  -0.372  -0.347  -0.337  -0.331  -0.326  -0.305
 -- Virtual --
 -0.015   0.060   0.076   0.082   0.088   0.099   0.104   0.111
  0.123   0.127   0.130   0.137   0.144   0.151   0.154   0.163
  0.171   0.175   0.181   0.186   0.195   0.210   0.212   0.221
  0.230   0.235   0.240   0.248   0.256   0.266   0.269   0.270
  0.278   0.286   0.294   0.296   0.304   0.310   0.323   0.323
  0.337   0.343   0.347   0.352   0.355   0.358   0.366   0.371
  0.379   0.384   0.391   0.395   0.397   0.405   0.406   0.414
  0.417   0.426   0.432   0.435   0.436   0.438   0.444   0.455
  0.462   0.468   0.474   0.482   0.485   0.491   0.495   0.501
  0.505   0.512   0.516   0.525   0.527   0.536   0.540   0.543
  0.548   0.559   0.565   0.569   0.574   0.580   0.592   0.597
  0.604   0.612   0.616   0.620   0.629   0.637   0.641   0.646
  0.652   0.664   0.675   0.681   0.683   0.687   0.696   0.704
  0.714   0.718   0.731   0.736   0.742   0.755   0.765   0.767
  0.779   0.781   0.786   0.788   0.798   0.804   0.809   0.814
  0.822   0.831   0.832   0.837   0.843   0.847   0.857   0.861
  0.877   0.887   0.889   0.898   0.903   0.905   0.917   0.930
  0.933   0.952   0.959   0.961   0.970   0.998   1.009   1.022
  1.025   1.048   1.055   1.062   1.075   1.090   1.110   1.111
  1.118   1.136   1.154   1.162   1.177   1.182   1.193   1.206
  1.217   1.237   1.241   1.249   1.270   1.282   1.288   1.303
  1.338   1.349   1.354   1.359   1.386   1.391   1.415   1.426
  1.449   1.467   1.490   1.509   1.521   1.540   1.569   1.585
  1.597   1.616   1.653   1.674   1.697   1.747   1.761   1.811
  1.852   1.864   1.886   1.909   1.929   1.938   1.944   1.950
  1.957   1.968   1.969   1.973   2.003   2.013   2.035   2.037
  2.047   2.059   2.067   2.089   2.099   2.115   2.138   2.154
  2.173   2.186   2.196   2.229   2.242   2.248   2.257   2.293
  2.301   2.304   2.326   2.347   2.360   2.390   2.403   2.435
  2.458   2.461   2.477   2.484   2.492   2.496   2.536   2.558
  2.579   2.585   2.622   2.639   2.663   2.687   2.695   2.717
  2.747   2.763   2.787   2.802   2.850   2.866   2.881   2.892
  2.918   2.930   2.943   2.960   2.981   2.996   3.014   3.021
  3.037   3.062   3.076   3.099   3.110   3.134   3.174   3.222
  3.246   3.266   3.269   3.290   3.306   3.307   3.336   3.344
  3.357   3.361   3.404   3.416   3.418   3.456   3.460   3.477
  3.484   3.499   3.521   3.538   3.563   3.570   3.599   3.607
  3.621   3.626   3.642   3.674   3.675   3.686   3.708   3.714
  3.730   3.742   3.751   3.770   3.779   3.785   3.807   3.828
  3.849   3.873   3.916   3.924   3.962   3.986   3.999   4.089
  4.108   4.131   4.158   4.207   4.231   4.266   4.281   4.297
  4.371   4.453   4.479   4.572   4.622   4.628   4.697   4.738
  4.765   4.770   4.822   4.859   4.908   4.987   5.037   5.061
  5.076   5.186   5.265   5.293   5.298   5.320   5.328   5.331
  5.349   5.363   5.367   5.378   5.389   5.403   5.468   5.493
  5.508   5.550   5.580   5.632   5.667   5.718   5.720   5.742
  5.784   5.872   6.003   6.045   6.168   6.226   6.248   6.303
  6.317   6.341   6.406   6.454   6.591   6.599   6.620   6.633
  6.641   6.654   6.699   6.722   6.758   6.776   6.817   6.865
  6.960   6.974   7.000   7.033   7.058   7.081   7.185   7.240
  7.295   7.340   7.368   7.389   7.406   7.411   7.508  22.720
 22.877  22.928  23.248  23.733  43.965  44.307  44.423  44.468
 44.610
 --------------------------------------------------------------
 
          Ground-State Mulliken Net Atomic Charges

     Atom                 Charge (a.u.)    Spin (a.u.)
  --------------------------------------------------------
      1 C                     0.036563      -0.006273
      2 O                    -0.709156      -0.001749
      3 O                    -0.699491      -0.001311
      4 C                    -0.323197      -0.006314
      5 H                     0.351528      -0.024867
      6 H                     0.230609      -0.000342
      7 C                    -0.607696      -0.117780
      8 H                     0.316678       0.005248
      9 H                     0.200495      -0.013556
     10 C                     1.445993       0.062523
     11 O                    -0.535578      -0.692786
     12 H                     0.222460      -0.004647
     13 O                    -0.942312      -0.048369
     14 O                    -0.494891       0.921769
     15 C                    -1.214603      -0.077379
     16 H                     0.225028       0.000724
     17 H                     0.254656       0.003594
     18 H                     0.242912       0.001517
  --------------------------------------------------------
  Sum of atomic charges =    -2.000000
  Sum of spin   charges =     0.000000

[...]
 O          0.006  0.001 -0.004    0.008 -0.001 -0.011    0.004  0.002 -0.000
 C          0.084 -0.061 -0.003    0.071 -0.153 -0.030    0.109  0.050  0.002
 H         -0.192  0.207 -0.134   -0.118  0.292 -0.028   -0.303  0.159 -0.292
 H          0.071 -0.239  0.290    0.326 -0.410  0.566   -0.205 -0.070  0.010
 H         -0.006 -0.075  0.200   -0.170  0.228  0.021    0.164 -0.392  0.405
 TransDip  -0.056 -0.019  0.098    0.056 -0.031 -0.182    0.018 -0.008 -0.001

 Mode:                25                     26                     27
 Frequency:      1017.08                1084.74                1098.45
 Force Cnst:      1.1428                 1.6793                 1.1178
 Red. Mass:       1.8750                 2.4223                 1.5723
 IR Active:          YES                    YES                    YES
 IR Intens:      139.549                 73.100                216.939
 Raman Active:       YES                    YES                    YES
               X      Y      Z        X      Y      Z        X      Y      Z
 C          0.009 -0.087 -0.028   -0.009  0.027  0.016   -0.006  0.023  0.014
 O          0.001  0.018  0.002    0.001 -0.009  0.008    0.002 -0.012  0.021
 O         -0.027  0.015  0.002    0.004 -0.005 -0.003    0.011 -0.000 -0.006
 C          0.023  0.095  0.045   -0.025 -0.005 -0.051   -0.090  0.043 -0.094
 H          0.183 -0.126 -0.145   -0.253  0.230  0.294    0.523 -0.458 -0.372
 H          0.253 -0.035 -0.182   -0.089  0.076 -0.026   -0.162  0.103 -0.043
 C         -0.028 -0.110 -0.032    0.056  0.005  0.032    0.090 -0.054  0.069
 H          0.396  0.125 -0.235    0.013  0.029 -0.071   -0.021 -0.115  0.116
 H         -0.213  0.030  0.186    0.168 -0.042 -0.118    0.071 -0.205  0.240
 C          0.102 -0.049 -0.003    0.078 -0.137  0.235   -0.043 -0.065 -0.022
 O          0.022  0.008  0.017   -0.042 -0.023 -0.044   -0.007  0.007  0.007
 H         -0.242  0.029 -0.094    0.090  0.102 -0.132    0.039  0.188 -0.231
 O         -0.037  0.096  0.047   -0.030  0.057 -0.014    0.004  0.058  0.023
 O         -0.016 -0.004  0.004    0.005 -0.000 -0.001   -0.022 -0.000  0.003
 C         -0.082 -0.052 -0.041    0.020  0.015 -0.166    0.038  0.030 -0.005
 H          0.185 -0.019  0.186   -0.289  0.455 -0.261   -0.104  0.037 -0.117
 H          0.230 -0.029  0.113    0.085 -0.223  0.302   -0.103 -0.006 -0.030
 H         -0.176  0.345 -0.310   -0.185  0.159  0.076    0.056 -0.117  0.121
 TransDip   0.100 -0.313 -0.188   -0.147 -0.107  0.205    0.373 -0.133 -0.256

 Mode:                28                     29                     30
 Frequency:      1102.89                1155.79                1226.78
 Force Cnst:      1.3766                 1.0342                 2.1196
 Red. Mass:       1.9208                 1.3140                 2.3904
 IR Active:          YES                    YES                    YES
 IR Intens:      124.583                 64.838                143.858
 Raman Active:       YES                    YES                    YES
               X      Y      Z        X      Y      Z        X      Y      Z
 C         -0.004  0.045  0.006    0.018 -0.090 -0.031   -0.005  0.015 -0.007
 O          0.004 -0.003 -0.017   -0.003  0.018 -0.001    0.006 -0.010  0.026
 O         -0.002 -0.010  0.000   -0.021  0.012  0.005    0.012  0.000 -0.001
 C          0.100 -0.122  0.070    0.012  0.072  0.027   -0.017  0.038 -0.044
 H          0.496 -0.439 -0.344    0.185 -0.192 -0.137    0.118 -0.191 -0.153
 H         -0.002 -0.202  0.296    0.221  0.172 -0.362   -0.141 -0.283  0.410
 C         -0.088  0.133 -0.095    0.025  0.013 -0.004    0.014 -0.015 -0.091
 H         -0.170  0.167 -0.221   -0.123 -0.233  0.431    0.067 -0.104  0.152
 H         -0.045  0.084 -0.134    0.095  0.230 -0.329   -0.219 -0.203  0.516
 C          0.007 -0.079  0.068   -0.040  0.029  0.066    0.012  0.246  0.154
 O         -0.011  0.002 -0.001   -0.016 -0.009 -0.006   -0.031 -0.033 -0.023
 H          0.159 -0.161  0.197   -0.216 -0.232  0.351   -0.046  0.036 -0.063
 O          0.003  0.053  0.005    0.017 -0.024 -0.025    0.022 -0.100 -0.057
 O         -0.022  0.001  0.005   -0.003  0.004  0.001    0.004  0.010  0.005
 C         -0.007  0.006 -0.023    0.016 -0.007 -0.024   -0.014 -0.055 -0.044
 H         -0.040  0.057 -0.030   -0.060  0.085 -0.051    0.081  0.121  0.103
 H         -0.006 -0.025  0.036    0.004 -0.060  0.069    0.174 -0.113  0.186
 H         -0.039  0.030  0.008   -0.037  0.028  0.043   -0.120  0.113  0.008
 TransDip   0.319 -0.113 -0.116    0.213  0.108  0.096   -0.013  0.354  0.148

 Mode:                31                     32                     33
 Frequency:      1245.52                1303.29                1346.64
 Force Cnst:      1.3691                 1.2272                 1.7293
 Red. Mass:       1.4979                 1.2262                 1.6186
 IR Active:          YES                    YES                    YES
 IR Intens:       45.314                 33.573                 26.313
 Raman Active:       YES                    YES                    YES
               X      Y      Z        X      Y      Z        X      Y      Z
 C          0.013 -0.029 -0.031    0.001  0.029 -0.016    0.019  0.014 -0.052
 O          0.008 -0.006  0.038    0.008 -0.010  0.023    0.014 -0.018  0.058
 O         -0.010  0.006 -0.003   -0.005 -0.003 -0.002   -0.024 -0.001 -0.005
 C         -0.002  0.046 -0.107    0.023  0.060  0.023    0.042  0.080 -0.117
 H         -0.105  0.133  0.105   -0.037  0.058  0.050    0.032 -0.039 -0.031
 H         -0.097 -0.075  0.133   -0.019 -0.346  0.434   -0.164 -0.212  0.416
 C          0.003  0.079 -0.029   -0.014 -0.033 -0.065   -0.045 -0.068  0.103
 H         -0.200 -0.113  0.231   -0.037 -0.319  0.533    0.262  0.212 -0.298
 H         -0.062 -0.310  0.454   -0.078  0.264 -0.239    0.156  0.090 -0.388
 C          0.076 -0.095 -0.031    0.025 -0.070 -0.024   -0.047  0.023  0.003
 O         -0.001  0.002 -0.000   -0.000  0.003  0.000    0.009  0.005  0.003
 H         -0.100 -0.377  0.550   -0.072  0.196 -0.306   -0.173 -0.234  0.253
 O         -0.014  0.037  0.019   -0.007  0.026  0.011    0.007 -0.010 -0.005
 O         -0.002 -0.004 -0.001   -0.001 -0.003 -0.001    0.000  0.001 -0.000
 C         -0.025  0.020  0.008   -0.007  0.014  0.007    0.042 -0.035  0.032
 H          0.050 -0.076  0.033   -0.007 -0.055 -0.020   -0.195  0.136 -0.110
 H         -0.002  0.055 -0.045   -0.026  0.022 -0.022   -0.114  0.046 -0.186
 H          0.029 -0.028 -0.046    0.026 -0.014 -0.033   -0.043  0.193 -0.086
 TransDip  -0.088 -0.160 -0.114    0.017 -0.051 -0.178   -0.079  0.089 -0.113

 Mode:                34                     35                     36
 Frequency:      1368.78                1431.22                1457.60
 Force Cnst:      1.4222                10.4668                 1.4146
 Red. Mass:       1.2884                 8.6726                 1.1301
 IR Active:          YES                    YES                    YES
 IR Intens:        3.109                451.427                  8.531
 Raman Active:       YES                    YES                    YES
               X      Y      Z        X      Y      Z        X      Y      Z
 C          0.011  0.008 -0.021   -0.402 -0.235  0.402   -0.009 -0.005  0.023
 O          0.005 -0.006  0.020   -0.070  0.097 -0.276   -0.004  0.004 -0.011
 O         -0.012 -0.001 -0.002    0.312  0.039  0.049    0.006 -0.000 -0.001
 C          0.013  0.021 -0.032    0.136  0.102 -0.158   -0.056  0.044 -0.039
 H          0.013 -0.006 -0.019    0.018 -0.012 -0.015   -0.001 -0.003  0.001
 H         -0.050 -0.046  0.113   -0.157 -0.049  0.409    0.337 -0.497 -0.111
 C         -0.014 -0.023  0.043   -0.035 -0.016  0.016    0.028 -0.039  0.033
 H          0.091  0.077 -0.102    0.123  0.011  0.068   -0.285 -0.029 -0.194
 H          0.076  0.041 -0.176    0.053 -0.004 -0.163   -0.166  0.311  0.036
 C         -0.027 -0.005 -0.005   -0.013 -0.021  0.000    0.003  0.004  0.002
 O          0.012  0.006  0.008    0.009  0.005  0.007   -0.001 -0.001 -0.001
 H         -0.057 -0.067  0.064   -0.267 -0.209  0.039    0.501  0.133  0.276
 O          0.005 -0.005 -0.001    0.001  0.002  0.003   -0.001 -0.001  0.001
 O         -0.001 -0.000  0.001   -0.001 -0.000  0.000    0.000  0.000 -0.000
 C         -0.059  0.085 -0.090   -0.003  0.012 -0.003   -0.009 -0.001  0.000
 H          0.402 -0.278  0.184    0.020 -0.077 -0.015   -0.031  0.053 -0.002
 H          0.192 -0.178  0.482   -0.022 -0.032  0.057    0.107  0.042 -0.002
 H          0.082 -0.460  0.300    0.013 -0.018 -0.007    0.051 -0.071 -0.034
 TransDip  -0.027 -0.046 -0.018   -0.445 -0.256  0.447    0.069 -0.026  0.058

 Mode:                37                     38                     39
 Frequency:      1464.11                1467.95                1470.84
 Force Cnst:      1.3535                 1.3414                 1.3735
 Red. Mass:       1.0717                 1.0565                 1.0776
 IR Active:          YES                    YES                    YES
 IR Intens:        7.825                  6.192                 27.572
 Raman Active:       YES                    YES                    YES
               X      Y      Z        X      Y      Z        X      Y      Z
 C         -0.004  0.000 -0.013   -0.005 -0.001 -0.002    0.002 -0.001  0.010
 O          0.003 -0.003  0.008    0.001 -0.000  0.002   -0.002  0.002 -0.007
 O          0.001  0.000  0.001    0.003  0.000  0.001   -0.000 -0.000 -0.001
 C          0.036 -0.009 -0.002    0.015  0.000 -0.003   -0.024  0.004  0.007
 H          0.005 -0.009  0.001   -0.007  0.015  0.010    0.013 -0.008 -0.004
 H         -0.179  0.229  0.087   -0.062  0.070  0.042    0.114 -0.139 -0.058
 C          0.038 -0.021  0.012    0.019 -0.013  0.008   -0.046  0.028 -0.014
 H         -0.301 -0.040 -0.170   -0.184 -0.037 -0.077    0.388  0.049  0.226
 H         -0.169  0.279  0.081   -0.101  0.173  0.034    0.231 -0.352 -0.132
 C         -0.002  0.001  0.008    0.005 -0.017 -0.020   -0.021 -0.012 -0.003
 O         -0.003 -0.002 -0.002    0.000  0.001  0.001    0.003  0.002  0.002
 H         -0.263 -0.093 -0.107   -0.094 -0.033 -0.038    0.163  0.067  0.055
 O         -0.000  0.001 -0.000   -0.001  0.004  0.004    0.003  0.001 -0.000
 O          0.000  0.000 -0.000   -0.000 -0.001 -0.000   -0.001 -0.000  0.000
 C         -0.039 -0.007  0.020    0.004 -0.038 -0.036   -0.033 -0.025  0.004
 H         -0.197  0.202 -0.054    0.305  0.411  0.378   -0.042  0.388  0.128
 H          0.487  0.196 -0.014   -0.071  0.130 -0.336    0.419  0.248 -0.179
 H          0.268 -0.297 -0.247   -0.286  0.017  0.519    0.116 -0.272  0.019
 TransDip  -0.032  0.055 -0.063   -0.054  0.041  0.042    0.166  0.026  0.013

 Mode:                40                     41                     42
 Frequency:      1580.80                2539.65                3049.50
 Force Cnst:     14.5492                 4.1677                 5.6606
 Red. Mass:       9.8818                 1.0967                 1.0331
 IR Active:          YES                    YES                    YES
 IR Intens:     1265.459                902.012                 43.624
 Raman Active:       YES                    YES                    YES
               X      Y      Z        X      Y      Z        X      Y      Z
 C          0.574 -0.084  0.489   -0.000 -0.000  0.000    0.000  0.000 -0.000
 O         -0.112  0.074 -0.242   -0.000  0.000 -0.000    0.000 -0.000  0.000
 O         -0.283 -0.013 -0.098    0.000  0.000  0.000   -0.000 -0.000  0.000
 C         -0.021  0.021 -0.063   -0.000 -0.000 -0.000    0.000 -0.000  0.000
 H          0.000 -0.002 -0.000    0.684  0.719  0.095    0.003  0.004  0.001
 H         -0.265 -0.051  0.385   -0.000 -0.001 -0.001   -0.002 -0.001 -0.001
 C          0.015 -0.010 -0.004    0.002 -0.001 -0.004   -0.003  0.002  0.000
 H         -0.024 -0.027 -0.008    0.000 -0.002 -0.006    0.013 -0.040 -0.020
 H         -0.009  0.050  0.003    0.000  0.003  0.008    0.019  0.011  0.013
 C         -0.003  0.001  0.001   -0.014  0.014  0.009    0.000  0.001 -0.001
 O         -0.001 -0.000 -0.000    0.002 -0.001  0.000   -0.000 -0.000 -0.000
 H         -0.153 -0.069 -0.016   -0.000  0.002  0.002   -0.001  0.003  0.002
 O         -0.000  0.000  0.000    0.015 -0.003 -0.006   -0.000 -0.000 -0.000
 O          0.000  0.000 -0.000   -0.053 -0.049 -0.004   -0.000 -0.000 -0.000
 C          0.000  0.001 -0.001    0.002 -0.002 -0.001    0.021 -0.032  0.029
 H         -0.003  0.003 -0.003   -0.006  0.001  0.000    0.364  0.142 -0.424
 H          0.003 -0.000  0.002    0.002 -0.004  0.003   -0.173  0.491  0.302
 H          0.002 -0.004  0.001    0.004  0.006 -0.001   -0.434 -0.264 -0.205
 TransDip   0.831 -0.138  0.768    0.775  0.555 -0.131    0.141 -0.104  0.118

 Mode:                43                     44                     45
 Frequency:      3063.90                3075.27                3113.79
 Force Cnst:      5.8830                 5.8989                 6.2785
 Red. Mass:       1.0637                 1.0587                 1.0991
 IR Active:          YES                    YES                    YES
 IR Intens:       13.993                 74.065                 12.243
 Raman Active:       YES                    YES                    YES
               X      Y      Z        X      Y      Z        X      Y      Z
 C         -0.000 -0.001  0.001    0.001 -0.000  0.000    0.000 -0.000 -0.002
 O         -0.000  0.000 -0.000   -0.000 -0.000  0.000    0.000  0.000  0.000
 O         -0.000 -0.000 -0.000   -0.000  0.000 -0.000    0.000  0.000 -0.000
 C          0.055 -0.041 -0.013    0.014 -0.006 -0.002   -0.036 -0.053 -0.047
 H         -0.003 -0.003 -0.000    0.003  0.003  0.001    0.001  0.000 -0.000
 H         -0.309 -0.202 -0.227   -0.097 -0.063 -0.070    0.578  0.349  0.400
 C         -0.012  0.010  0.001    0.056 -0.034 -0.002    0.020  0.032  0.024
 H          0.054 -0.170 -0.079   -0.206  0.662  0.309    0.080 -0.229 -0.108
 H          0.091  0.053  0.055   -0.468 -0.265 -0.272   -0.318 -0.168 -0.175
 C         -0.001 -0.001 -0.000    0.002  0.000  0.001    0.000  0.001  0.000
 O          0.000  0.000  0.000   -0.001 -0.000 -0.000   -0.000 -0.000  0.000
 H         -0.342  0.694  0.396   -0.073  0.148  0.085   -0.160  0.293  0.168
 O          0.000  0.000 -0.000   -0.000  0.000 -0.000   -0.000  0.000 -0.000
 O          0.000  0.000  0.000   -0.000 -0.000 -0.000   -0.000 -0.000  0.000
 C         -0.000  0.001 -0.000   -0.001 -0.001  0.004   -0.002 -0.005 -0.004
 H         -0.005 -0.002  0.006    0.033  0.013 -0.039   -0.004 -0.003  0.002
 H          0.003 -0.010 -0.006   -0.004  0.009  0.006   -0.015  0.040  0.024
 H          0.007  0.004  0.004   -0.021 -0.011 -0.009    0.042  0.025  0.020
 TransDip   0.021 -0.097  0.066    0.240 -0.129  0.040   -0.101 -0.044 -0.022

 Mode:                46                     47                     48
 Frequency:      3131.26                3134.01                3138.42
 Force Cnst:      6.3776                 6.3884                 6.4074
 Red. Mass:       1.1040                 1.1039                 1.1041
 IR Active:          YES                    YES                    YES
 IR Intens:        5.461                 58.124                 73.271
 Raman Active:       YES                    YES                    YES
               X      Y      Z        X      Y      Z        X      Y      Z
 C          0.000 -0.000  0.001   -0.000 -0.000 -0.000   -0.000  0.000 -0.001
 O         -0.000  0.000 -0.000    0.000 -0.000  0.000    0.000 -0.000  0.000
 O         -0.000  0.000 -0.000    0.000 -0.000  0.000    0.000 -0.000  0.000
 C          0.014  0.022  0.019   -0.008 -0.015 -0.013   -0.009 -0.016 -0.014
 H         -0.001 -0.001 -0.000   -0.002 -0.000 -0.000   -0.003 -0.003  0.001
 H         -0.223 -0.134 -0.157    0.148  0.089  0.104    0.160  0.096  0.113
 C          0.019  0.037  0.026   -0.013 -0.031 -0.021   -0.020 -0.041 -0.028
 H          0.092 -0.271 -0.124   -0.083  0.242  0.112   -0.105  0.307  0.141
 H         -0.328 -0.172 -0.182    0.245  0.127  0.137    0.351  0.183  0.193
 C          0.000 -0.000 -0.001    0.001 -0.000 -0.002   -0.000 -0.002 -0.001
 O          0.000  0.000 -0.000   -0.000 -0.000  0.000   -0.000  0.000  0.000
 H          0.068 -0.127 -0.071   -0.051  0.096  0.053   -0.053  0.101  0.055
 O         -0.000 -0.000  0.000   -0.000  0.000  0.000    0.000  0.001  0.000
 O          0.000  0.000  0.000    0.000 -0.000  0.000    0.000  0.000 -0.000
 C          0.012 -0.046 -0.056    0.070  0.011 -0.041   -0.042 -0.055 -0.024
 H         -0.221 -0.100  0.255   -0.432 -0.180  0.524    0.119  0.043 -0.154
 H         -0.181  0.508  0.301   -0.076  0.249  0.142   -0.125  0.323  0.196
 H          0.260  0.144  0.113   -0.332 -0.202 -0.173    0.512  0.296  0.246
 TransDip   0.065 -0.025 -0.027    0.152 -0.059 -0.182   -0.085 -0.214 -0.148

 STANDARD THERMODYNAMIC QUANTITIES AT   298.15 K  AND     1.00 ATM

   This Molecule has  1 Imaginary Frequencies
   Zero point vibrational energy:       80.408 kcal/mol

   Atom    1 Element C  Has Mass   12.00000
   Atom    2 Element O  Has Mass   15.99491
   Atom    3 Element O  Has Mass   15.99491
   Atom    4 Element C  Has Mass   12.00000
   Atom    5 Element H  Has Mass    1.00783
   Atom    6 Element H  Has Mass    1.00783
   Atom    7 Element C  Has Mass   12.00000
   Atom    8 Element H  Has Mass    1.00783
   Atom    9 Element H  Has Mass    1.00783
   Atom   10 Element C  Has Mass   12.00000
   Atom   11 Element O  Has Mass   15.99491
   Atom   12 Element H  Has Mass    1.00783
   Atom   13 Element O  Has Mass   15.99491
   Atom   14 Element O  Has Mass   15.99491
   Atom   15 Element C  Has Mass   12.00000
   Atom   16 Element H  Has Mass    1.00783
   Atom   17 Element H  Has Mass    1.00783
   Atom   18 Element H  Has Mass    1.00783
   Molecular Mass:   148.037190 amu
   Principal axes and moments of inertia in amu*Bohr^2:
                             1           2           3
    Eigenvalues --      678.89235  2993.76656  3305.19294
          X              -0.49674     0.86683     0.04308
          Y              -0.39464    -0.26980     0.87833
          Z               0.77299     0.41930     0.47610
   Rotational Symmetry Number is   1
   The Molecule is an Asymmetric Top
   Translational Enthalpy:        0.889 kcal/mol
   Rotational Enthalpy:           0.889 kcal/mol
   Vibrational Enthalpy:         85.434 kcal/mol
   gas constant (RT):             0.592 kcal/mol
   Translational Entropy:        40.887  cal/mol.K
   Rotational Entropy:           30.286  cal/mol.K
   Vibrational Entropy:          34.953  cal/mol.K

   Total Enthalpy:               87.804 kcal/mol
   Total Entropy:               106.126  cal/mol.K
Archival summary:
1\1\c5-71\FREQ\ProcedureUnspecified\BasisUnspecified\558(2-,1)\leeping\FriSep702:33:522018FriSep702:33:522018\0\\#,FREQ,ProcedureUnspecified,BasisUnspecified,\\-2,1\O\C,1,1.37732\O,2,1.34667,1,113.859\C,2,1.54813,1,109.846,3,127.036,0\H,4,1.09327,2,109.392,1,173.292,0\H,4,1.09373,2,111.411,1,52.3032,0\H,4,1.09394,2,108.743,1,-68.0832,0\H,3,1.55033,2,91.9596,1,32.5535,0\O,8,1.03356,3,158.054,2,-8.27379,0\C,2,1.59996,1,100.448,3,-120.821,0\H,10,1.09332,2,103.338,1,-175.437,0\H,10,1.09392,2,109.234,1,-60.6492,0\C,10,1.51864,2,114.329,1,64.5731,0\H,13,1.09289,10,111.189,2,-69.5956,0\H,13,1.09688,10,109.217,2,47.9227,0\C,13,1.53752,10,114.532,2,167.288,0\O,16,1.25848,13,118.375,10,-26.066,0\O,16,1.261,13,116.343,10,155.604,0\\\@

 Total job time:  53000.12s(wall), 727943.19s(cpu) 
 Fri Sep  7 02:33:52 2018

        *************************************************************
        *                                                           *
        *  Thank you very much for using Q-Chem.  Have a nice day.  *
        *                                                           *
        *************************************************************


