
Running Job 1 of 1 qc-freq1.in
qchem qc-freq1.in_27798.0 /scratch/leeping/1862639/qc-freq1.d/ 1
/home/leeping/opt/qchem/5.0.2-openmp/exe/qcprog.exe_s qc-freq1.in_27798.0 /scratch/leeping/1862639/qc-freq1.d/
Check license passed

                  Welcome to Q-Chem
     A Quantum Leap Into The Future Of Chemistry


 Q-Chem 5.0, Q-Chem, Inc., Pleasanton, CA (2017)

 Yihan Shao,  Zhengting Gan,  E. Epifanovsky,  A. T. B. Gilbert,  M. Wormit,  
 J. Kussmann,  A. W. Lange,  A. Behn,  Jia Deng,  Xintian Feng,  D. Ghosh,  
 M. Goldey,  P. R. Horn,  L. D. Jacobson,  I. Kaliman,  T. Kus,  A. Landau,  
 Jie Liu,  E. I. Proynov,  R. M. Richard,  R. P. Steele,  E. J. Sundstrom,  
 H. L. Woodcock III,  P. M. Zimmerman,  D. Zuev,  B. Albrecht,  E. Alguire,  
 S. A. Baeppler,  D. Barton,  Z. Benda,  Y. A. Bernard,  E. J. Berquist,  
 K. B. Bravaya,  H. Burton,  D. Casanova,  Chun-Min Chang,  Yunqing Chen,  
 A. Chien,  K. D. Closser,  M. P. Coons,  S. Dasgupta,  A. L. Dempwolff,  
 M. Diedenhofen,  Hainam Do,  R. G. Edgar,  Po-Tung Fang,  S. Fatehi,  
 Qingguo Feng,  J. Fosso-Tande,  Qinghui Ge,  A. Ghysels,  G. Gidofalvi,  
 J. Gomes,  J. Gonthier,  A. Gunina,  M. W. D. Hanson-Heine,  
 P. H. P. Harbach,  A. W. Hauser,  J. E. Herr,  E. G. Hohenstein,  
 Z. C. Holden,  Kerwin Hui,  T.-C. Jagau,  Hyunjun Ji,  B. Kaduk,  
 K. Khistyaev,  Jaehoon Kim,  P. Klunzinger,  K. Koh,  D. Kosenkov,  
 L. Koulias,  T. Kowalczyk,  C. M. Krauter,  A. Kunitsa,  Ka Un Lao,  
 A. Laurent,  K. V. Lawler,  Joonho Lee,  D. Lefrancois,  S. Lehtola,  
 D. S. Levine,  Yi-Pei Li,  You-Sheng Lin,  Fenglai Liu,  E. Livshits,  
 A. Luenser,  P. Manohar,  E. Mansoor,  S. F. Manzer,  Shan-Ping Mao,  
 Yuezhi Mao,  N. Mardirossian,  A. V. Marenich,  T. Markovich,  
 L. A. Martinez-Martinez,  S. A. Maurer,  N. J. Mayhall,  S. C. McKenzie,  
 J.-M. Mewes,  A. F. Morrison,  J. W. Mullinax,  K. Nanda,  
 T. S. Nguyen-Beck,  R. Olivares-Amaya,  J. A. Parkhill,  T. M. Perrine,  
 F. Plasser,  S. Prager,  A. Prociuk,  E. Ramos,  D. R. Rehn,  F. Rob,  
 M. Schneider,  N. Sergueev,  S. M. Sharada,  S. Sharma,  D. W. Small,  
 T. Stauch,  T. Stein,  Yu-Chuan Su,  A. J. W. Thom,  A. Tkatchenko,  
 T. Tsuchimochi,  L. Vogt,  O. Vydrov,  M. A. Watson,  J. Wenzel,  
 M. de Wergifosse,  T. A. Wesolowski,  A. White,  J. Witte,  A. Yamada,  
 Jun Yang,  K. Yao,  S. Yeganeh,  S. R. Yost,  Zhi-Qiang You,  A. Zech,  
 Igor Ying Zhang,  Xing Zhang,  Yan Zhao,  Ying Zhu,  B. R. Brooks,  
 G. K. L. Chan,  C. J. Cramer,  M. S. Gordon,  W. J. Hehre,  A. Klamt,  
 M. W. Schmidt,  C. D. Sherrill,  D. G. Truhlar,  A. Aspuru-Guzik,  R. Baer,  
 A. T. Bell,  N. A. Besley,  Jeng-Da Chai,  R. A. DiStasio Jr.,  A. Dreuw,  
 B. D. Dunietz,  T. R. Furlani,  Chao-Ping Hsu,  Yousung Jung,  Jing Kong,  
 D. S. Lambrecht,  WanZhen Liang,  C. Ochsenfeld,  V. A. Rassolov,  
 L. V. Slipchenko,  J. E. Subotnik,  T. Van Voorhis,  J. M. Herbert,  
 A. I. Krylov,  P. M. W. Gill,  M. Head-Gordon

 Contributors to earlier versions of Q-Chem not listed above: 
 R. D. Adamson,  B. Austin,  J. Baker,  G. J. O. Beran,  K. Brandhorst,  
 S. T. Brown,  E. F. C. Byrd,  A. K. Chakraborty,  C.-L. Cheng,  
 Siu Hung Chien,  D. M. Chipman,  D. L. Crittenden,  H. Dachsel,  
 R. J. Doerksen,  A. D. Dutoi,  L. Fusti-Molnar,  W. A. Goddard III,  
 A. Golubeva-Zadorozhnaya,  S. R. Gwaltney,  G. Hawkins,  A. Heyden,  
 S. Hirata,  G. Kedziora,  F. J. Keil,  C. Kelley,  Jihan Kim,  R. A. King,  
 R. Z. Khaliullin,  P. P. Korambath,  W. Kurlancheek,  A. M. Lee,  M. S. Lee,  
 S. V. Levchenko,  Ching Yeh Lin,  D. Liotard,  R. C. Lochan,  I. Lotan,  
 P. E. Maslen,  N. Nair,  D. P. O'Neill,  D. Neuhauser,  E. Neuscamman,  
 C. M. Oana,  R. Olson,  B. Peters,  R. Peverati,  P. A. Pieniazek,  
 Y. M. Rhee,  J. Ritchie,  M. A. Rohrdanz,  E. Rosta,  N. J. Russ,  
 H. F. Schaefer III,  N. E. Schultz,  N. Shenvi,  A. C. Simmonett,  A. Sodt,  
 D. Stuck,  K. S. Thanthiriwatte,  V. Vanovschi,  Tao Wang,  A. Warshel,  
 C. F. Williams,  Q. Wu,  X. Xu,  W. Zhang

 Please cite Q-Chem as follows:
 Y. Shao et al., Mol. Phys. 113, 184-215 (2015)
 DOI: 10.1080/00268976.2014.952696

 Q-Chem 5.0.2 for Intel X86 EM64T Linux

 Parts of Q-Chem use Armadillo 5.200.1 (Boston Tea Smuggler).
 http://arma.sourceforge.net/

 Q-Chem begins on Fri Mar 20 11:50:56 2020  

Host: 
0

     Scratch files written to /scratch/leeping/1862639/qc-freq1.d//
 Dec517 15110_ 26548  26544 5633   
Processing $rem in /home/leeping/opt/qchem/5.0.2-openmp/config/preferences.
 MEM_STATIC 2000
 MEM_TOTAL  8000
 SYMMETRY   OFF
 SYM_IGNORE TRUE 
Symmetry turned off for PCM/SM12/SMD calculation

Checking the input file for inconsistencies... 	...done.

--------------------------------------------------------------
User input:
--------------------------------------------------------------
$molecule
-2 1
C       -0.0885450879    0.6935673279   -1.1126865642
C        0.4256027600    1.4774144749   -2.3317731346
O       -0.1971911103    2.5407393591   -2.5991654653
O        1.4026774663    1.0207807896   -2.9774568272
C        0.7583522893   -0.5112326514   -0.7203923678
H       -1.1147399700    0.3881319441   -1.3460171976
H       -0.1559233856    1.3835401550   -0.2656469496
C        0.2757269965   -1.2774766425    0.4885657143
H        1.7963468444   -0.2218273315   -0.5400814637
H        0.7696643547   -1.2374432966   -1.5454879457
C       -1.2065438787   -1.4718886029    0.6644037719
H       -1.6762432202   -0.5073525882    0.8719837343
H       -1.4009175523   -2.1622849287    1.4861444060
H       -1.6414040605   -1.8580914175   -0.2638216023
O        1.0741607281   -1.8085090102    1.2497394501
O        0.3391289846    1.1201486873    2.2065442160
O        0.8244155591    0.2729440262    3.3038406248
H        1.0031231588   -0.5579228185    2.8401465903
$end

$rem
jobtype               freq
method                wb97x-v
basis                 def2-tzvpd
symmetry              off
sym_ignore            true
incdft                false
incfock               0
!scf_algorithm        diis_gdm
scf_convergence       8
thresh                14
!purecart             112
max_scf_cycles        1000
geom_opt_max_cycles   500
geom_opt_dmax         100
geom_opt_tol_gradient 10
solvent_method        pcm
ideriv                1
rpath_tol_displacement 1000
rpath_max_cycles      100
rpath_direction       1
!scf_guess            read
scf_guess             read
$end

$pcm
theory              cosmo
method              iswig
Radii               bondi
vdwScale            1.20
hpoints             110
heavypoints         110
$end

$solvent
dielectric 78.400000
$end

--------------------------------------------------------------
 ----------------------------------------------------------------
             Standard Nuclear Orientation (Angstroms)
    I     Atom           X                Y                Z
 ----------------------------------------------------------------
    1      C      -0.0885450879     0.6935673279    -1.1126865642
    2      C       0.4256027600     1.4774144749    -2.3317731346
    3      O      -0.1971911103     2.5407393591    -2.5991654653
    4      O       1.4026774663     1.0207807896    -2.9774568272
    5      C       0.7583522893    -0.5112326514    -0.7203923678
    6      H      -1.1147399700     0.3881319441    -1.3460171976
    7      H      -0.1559233856     1.3835401550    -0.2656469496
    8      C       0.2757269965    -1.2774766425     0.4885657143
    9      H       1.7963468444    -0.2218273315    -0.5400814637
   10      H       0.7696643547    -1.2374432966    -1.5454879457
   11      C      -1.2065438787    -1.4718886029     0.6644037719
   12      H      -1.6762432202    -0.5073525882     0.8719837343
   13      H      -1.4009175523    -2.1622849287     1.4861444060
   14      H      -1.6414040605    -1.8580914175    -0.2638216023
   15      O       1.0741607281    -1.8085090102     1.2497394501
   16      O       0.3391289846     1.1201486873     2.2065442160
   17      O       0.8244155591     0.2729440262     3.3038406248
   18      H       1.0031231588    -0.5579228185     2.8401465903
 ----------------------------------------------------------------
 Nuclear Repulsion Energy =   518.3256646129 hartrees
 There are       40 alpha and       40 beta electrons
 Requested basis set is def2-TZVPD
 There are 175 shells and 457 basis functions

 Total QAlloc Memory Limit   8000 MB
 Mega-Array Size      1956 MB
 MEM_STATIC part      2000 MB
 Discretize the solute cavity surface with Lebedev spheres
	Using 110 Lebedev grid points for each H atom
	Using 110 Lebedev grid points for other atoms
	Atomic van der Waals radii will be scaled by 1.20
 Remove points where switching function is < 1.0e-08
 Keep 1105 surface tesserae and discard 875 interior tesserae
 Molecular Surface Area = 198.694 Angst**2
 A cutoff of  1.0D-14 yielded  13944 shell pairs
 There are     95220 function pairs (    121086 Cartesian)
 
 -------------------------------------------------------
 OpenMP Integral Computing Module                       
 Release: version 1.0, May 2013, Q-Chem Inc. Pittsburgh 
 -------------------------------------------------------
 Integral Job Info:
 Integral job number is                      11
 Integral operator is                         1
 short-range coefficients              16700000
 long-range coefficients              100000000
 Omega coefficients                         300
 if combine SR and LR in K                    1
 Integral screening is                        0
 Integral computing path is                   2
 max size of driver memory is            800000
 size of driver memory is                776718
 size of scratch memory is              4473992
 max col of scratch BK array              10000
 max len of scratch array in speh3          662
 max len of scratch index in speh4           32
 max int batch size is                      520
 min int batch size is                       52
 fixed nKL is                                52
 max L of basis functions is                  3
 order of int derivative is                   0
 number of shells is                        175
 number of basis is                         517
 number of cartesian basis is               517
 number of contracted shell pairs         13944
 number of primitive shell pairs          28081
 maxK2 (contraction) of shell pair           36
 max number of K2 of shell pair               1
 max number of CS2 of shell pair           2308
 max number of PS2 of shell pair           3180
 mem total for path MDJ                  777156
 -------------------------------------------------------
 Smallest overlap matrix eigenvalue = 2.63E-06
 Guess MOs from SCF MO coefficient file
 Reading MOs from coefficient file
 Reading MOs from coefficient file
 Long-range K will be added via erf
 Coulomb attenuation parameter = 0.3 bohr**(-1)
 A restricted hybrid HF-DFT SCF calculation will be
 performed using Pulay DIIS extrapolation
 Polarizable Continuum solvation model will be applied
 Exchange:     0.1670 Hartree-Fock + 1.0000 wB97X-V + LR-HF
 Correlation:  1.0000 wB97X-V
 Using SG-2 standard quadrature grid
 Nonlocal Correlation:  VV10 with C = 0.0100 and b = 6.00
 Grid used for NLC:  SG-1 standard quadrature
 SCF converges when DIIS error is below 1.0E-08
Using Q-Chem read-in guess as SCF_GUESS READ specified.

 using 16 threads for integral computing
 -------------------------------------------------------
 OpenMP Integral computing Module                
 Release: version 1.0, May 2013, Q-Chem Inc. Pittsburgh 
 -------------------------------------------------------
 using 16 threads for integral computing
 -------------------------------------------------------
 OpenMP Integral computing Module                
 Release: version 1.0, May 2013, Q-Chem Inc. Pittsburgh 
 -------------------------------------------------------
 -------------------------------------------------------
 OpenMP BLAS3 based DFT computing Module                
 Release: version 1.0, May 2013, Q-Chem Inc. Pittsburgh 
 -------------------------------------------------------
 -------------------------------------------------------
 OpenMP BLAS3 based DFT computing Module                
 Release: version 1.0, May 2013, Q-Chem Inc. Pittsburgh 
 -------------------------------------------------------
 -------------------------------------------------------
 OpenMP BLAS3 based DFT computing Module                
 Release: version 1.0, May 2013, Q-Chem Inc. Pittsburgh 
 -------------------------------------------------------
 ---------------------------------------
  Cycle       Energy         DIIS Error
 ---------------------------------------
    1    -571.3887083298      4.40E-04
    2    -571.6982541481      4.86E-04
    3    -571.7066519923      2.21E-04
    4    -571.7079943726      1.62E-04
    5    -571.7088016150      1.24E-04
    6    -571.7092030325      1.01E-04
    7    -571.7095340828      7.76E-05
    8    -571.7097478535      5.75E-05
    9    -571.7098553441      4.41E-05
   10    -571.7099226116      3.30E-05
   11    -571.7099622687      2.41E-05
   12    -571.7099782461      1.94E-05
   13    -571.7099898667      1.51E-05
   14    -571.7099969777      1.17E-05
   15    -571.7100001832      9.76E-06
   16    -571.7100028552      7.81E-06
   17    -571.7100076209      9.18E-09 Convergence criterion met
 ---------------------------------------

************** Final PCM Free Energy Summary **************
 G_electrostatic  =      -0.32129975 hartree =    -201.61863773 kcal/mol
 G_cavitation     =       0.00000000 hartree =       0.00000000 kcal/mol
 G_dispersion     =       0.00000000 hartree =       0.00000000 kcal/mol
 G_repulsion      =       0.00000000 hartree =       0.00000000 kcal/mol
 --------------------------------------------------
 Non-electrostatic Free Energy =       0.00000000 hartree =       0.00000000 kcal/mol
 Total                         =      -0.32129975 hartree =    -201.61863773 kcal/mol
 --------------------------------------------------
 SCF Energy (H0 + V/2)                       =    -571.71000762 
 Solute Internal Energy (H0)                 =    -571.38870787 
 Total Free Energy (H0 + V/2 + non-elec)     =    -571.71000762 hartree
                                             = -358753.44444760 kcal/mol
***********************************************************

 SCF time:  CPU 4258.73 s  wall 303.66 s
 SCF   energy in the final basis set = -571.71000762
 Total energy in the final basis set = -571.71000762
 
 --------------------------------------------------------------
 
                    Orbital Energies (a.u.)
 --------------------------------------------------------------
 
 Alpha MOs
 -- Occupied --
-19.197 -19.195 -19.141 -19.138 -19.131 -10.358 -10.341 -10.259
-10.256 -10.250  -1.168  -1.143  -1.128  -1.049  -0.915  -0.872
 -0.852  -0.776  -0.639  -0.610  -0.583  -0.570  -0.560  -0.539
 -0.532  -0.518  -0.511  -0.489  -0.480  -0.465  -0.448  -0.441
 -0.432  -0.426  -0.361  -0.347  -0.335  -0.328  -0.295  -0.268
 -- Virtual --
  0.060   0.071   0.075   0.084   0.093   0.094   0.102   0.109
  0.121   0.127   0.131   0.136   0.144   0.149   0.150   0.161
  0.167   0.176   0.184   0.188   0.192   0.197   0.202   0.211
  0.218   0.229   0.236   0.240   0.241   0.252   0.256   0.267
  0.278   0.279   0.290   0.292   0.303   0.307   0.314   0.315
  0.323   0.328   0.333   0.336   0.346   0.354   0.359   0.360
  0.366   0.372   0.376   0.384   0.387   0.397   0.399   0.406
  0.418   0.424   0.428   0.434   0.437   0.445   0.450   0.462
  0.469   0.470   0.474   0.479   0.485   0.490   0.494   0.503
  0.509   0.510   0.517   0.525   0.525   0.536   0.539   0.546
  0.553   0.560   0.561   0.571   0.572   0.583   0.589   0.592
  0.598   0.600   0.613   0.622   0.626   0.634   0.636   0.646
  0.651   0.660   0.661   0.667   0.675   0.678   0.685   0.692
  0.705   0.710   0.714   0.724   0.735   0.743   0.751   0.762
  0.764   0.772   0.774   0.779   0.793   0.796   0.800   0.811
  0.813   0.820   0.824   0.832   0.835   0.841   0.851   0.857
  0.862   0.868   0.885   0.888   0.895   0.905   0.909   0.916
  0.927   0.930   0.947   0.963   0.966   0.981   0.987   1.010
  1.020   1.031   1.044   1.050   1.062   1.070   1.085   1.091
  1.109   1.125   1.134   1.139   1.155   1.157   1.177   1.199
  1.208   1.216   1.221   1.242   1.253   1.271   1.280   1.294
  1.315   1.327   1.336   1.367   1.369   1.393   1.415   1.431
  1.433   1.443   1.447   1.488   1.503   1.518   1.550   1.558
  1.566   1.619   1.638   1.686   1.701   1.722   1.729   1.743
  1.781   1.810   1.858   1.898   1.914   1.926   1.939   1.943
  1.944   1.960   1.965   1.972   1.999   2.010   2.018   2.023
  2.024   2.036   2.050   2.066   2.074   2.104   2.114   2.123
  2.143   2.163   2.194   2.218   2.222   2.248   2.263   2.269
  2.291   2.294   2.309   2.318   2.328   2.346   2.365   2.376
  2.396   2.427   2.451   2.482   2.488   2.502   2.512   2.531
  2.572   2.578   2.601   2.632   2.649   2.662   2.671   2.697
  2.722   2.756   2.766   2.776   2.812   2.833   2.850   2.852
  2.908   2.920   2.932   2.941   2.954   2.982   2.996   3.014
  3.025   3.039   3.063   3.082   3.094   3.110   3.124   3.144
  3.178   3.213   3.225   3.253   3.271   3.286   3.292   3.302
  3.324   3.347   3.355   3.389   3.398   3.403   3.414   3.427
  3.456   3.478   3.497   3.508   3.527   3.537   3.543   3.547
  3.560   3.572   3.591   3.617   3.635   3.642   3.675   3.683
  3.694   3.708   3.720   3.723   3.730   3.743   3.775   3.799
  3.816   3.847   3.857   3.900   3.934   3.997   4.023   4.092
  4.102   4.130   4.155   4.182   4.196   4.234   4.259   4.312
  4.325   4.352   4.365   4.472   4.582   4.621   4.672   4.689
  4.700   4.766   4.816   4.828   4.867   4.930   4.947   4.953
  4.984   5.043   5.100   5.110   5.196   5.213   5.241   5.264
  5.325   5.336   5.353   5.365   5.376   5.393   5.396   5.411
  5.505   5.534   5.610   5.649   5.702   5.714   5.730   5.780
  5.821   6.006   6.009   6.043   6.247   6.288   6.314   6.336
  6.347   6.520   6.574   6.605   6.617   6.630   6.631   6.639
  6.664   6.689   6.698   6.717   6.740   6.754   6.774   6.826
  6.959   6.969   7.014   7.050   7.057   7.093   7.219   7.222
  7.255   7.342   7.368   7.403   7.413   7.421   8.182  22.723
 22.889  22.919  23.432  23.746  43.819  44.277  44.426  44.452
 44.537
 --------------------------------------------------------------
 
          Ground-State Mulliken Net Atomic Charges

     Atom                 Charge (a.u.)
  ----------------------------------------
      1 C                    -0.081524
      2 C                    -0.041620
      3 O                    -0.710953
      4 O                    -0.695074
      5 C                     0.116931
      6 H                     0.231554
      7 H                     0.089913
      8 C                     0.294528
      9 H                     0.200944
     10 H                     0.290497
     11 C                    -0.924981
     12 H                     0.243517
     13 H                     0.222061
     14 H                     0.328750
     15 O                    -0.640310
     16 O                    -0.768159
     17 O                    -0.453941
     18 H                     0.297866
  ----------------------------------------
  Sum of atomic charges =    -2.000000

 -----------------------------------------------------------------
                    Cartesian Multipole Moments
 -----------------------------------------------------------------
    Charge (ESU x 10^10)
                -9.6064
    Dipole Moment (Debye)
         X      -7.9486      Y     -13.8040      Z      -0.3450
       Tot      15.9327
    Quadrupole Moments (Debye-Ang)
        XX     -74.8055     XY       0.9361     YY     -97.5817
        XZ       2.2730     YZ      18.5334     ZZ    -147.3502
    Octopole Moments (Debye-Ang^2)
       XXX     -79.2923    XXY     -20.1479    XYY     -30.6886
       YYY    -103.2396    XXZ      20.5964    XYZ       6.1519
       YYZ      50.4023    XZZ     -81.8716    YZZ    -128.0193
       ZZZ      45.7632
    Hexadecapole Moments (Debye-Ang^3)
      XXXX    -380.6415   XXXY     -34.6774   XXYY    -215.0120
      XYYY      -3.0191   YYYY   -1008.4031   XXXZ      39.6800
      XXYZ     107.6504   XYYZ     -12.0262   YYYZ     419.3171
      XXZZ    -430.8521   XYZZ     -51.8770   YYZZ    -638.4742
      XZZZ      72.7650   YZZZ     410.9574   ZZZZ   -2462.3239
 -----------------------------------------------------------------
 Calculating analytic gradient of the SCF energy
 Gradient of SCF Energy
            1           2           3           4           5           6
    1  -0.0608637   0.0158584   0.0236966  -0.0440717   0.1121781   0.0456542
    2   0.0467557   0.0066946  -0.0453014   0.0201282  -0.0653119   0.0022514
    3   0.0844927  -0.0554995   0.0218869   0.0347971  -0.0386866   0.0230820
            7           8           9          10          11          12
    1  -0.0017077  -0.0010206  -0.0550017  -0.0064106  -0.0550567   0.0232171
    2  -0.0390127   0.0551022  -0.0164372   0.0292042  -0.0091759  -0.0683698
    3  -0.0419003  -0.0221389  -0.0076165   0.0274734   0.0187509  -0.0109283
           13          14          15          16          17          18
    1   0.0163920   0.0183470  -0.0359958  -0.0184319   0.0325196  -0.0093025
    2   0.0436586   0.0160572   0.0227292   0.0497027  -0.0974618   0.0487866
    3  -0.0558909   0.0528085  -0.0333740  -0.0442757   0.0131271   0.0338921
 Max gradient component =       1.122E-01
 RMS gradient           =       4.202E-02
 Computing fast CPCM-ISWIG gradient
 Updating gradient with PCM contributions...
 -- total gradient after adding PCM contribution --
---------------------------------------------------
  Atom         X              Y              Z     
---------------------------------------------------
   1       0.000007      -0.000011      -0.000014
   2      -0.000018      -0.000003      -0.000002
   3      -0.000002      -0.000010      -0.000005
   4       0.000018       0.000009       0.000009
   5      -0.000006      -0.000000      -0.000008
   6      -0.000005       0.000015       0.000022
   7       0.000015       0.000004       0.000004
   8      -0.000005       0.000010      -0.000002
   9       0.000001      -0.000001       0.000010
  10       0.000007       0.000007      -0.000003
  11      -0.000009       0.000005      -0.000004
  12       0.000000      -0.000004      -0.000002
  13       0.000003      -0.000001       0.000001
  14       0.000006      -0.000010      -0.000000
  15       0.000009      -0.000003       0.000007
  16       0.000001      -0.000011      -0.000007
  17      -0.000052      -0.000001       0.000001
  18       0.000028       0.000006      -0.000006
---------------------------------------------------
 Number of fixed atoms: 0
 Gradient time:  CPU 817.83 s  wall 62.70 s
 ######################################################
 ######################################################
 # Starting finite difference calculation for IDERIV  #
 Finite diff step size:  1.88973e-03 a.u.
 ----------------------------------------------------------------
             Standard Nuclear Orientation (Angstroms)
    I     Atom           X                Y                Z
 ----------------------------------------------------------------
    1      C      -0.0875450879     0.6935673279    -1.1126865642
    2      C       0.4256027600     1.4774144749    -2.3317731346
    3      O      -0.1971911103     2.5407393591    -2.5991654653
    4      O       1.4026774663     1.0207807896    -2.9774568272
    5      C       0.7583522893    -0.5112326514    -0.7203923678
    6      H      -1.1147399700     0.3881319441    -1.3460171976
    7      H      -0.1559233856     1.3835401550    -0.2656469496
    8      C       0.2757269965    -1.2774766425     0.4885657143
    9      H       1.7963468444    -0.2218273315    -0.5400814637
   10      H       0.7696643547    -1.2374432966    -1.5454879457
   11      C      -1.2065438787    -1.4718886029     0.6644037719
   12      H      -1.6762432202    -0.5073525882     0.8719837343
   13      H      -1.4009175523    -2.1622849287     1.4861444060
   14      H      -1.6414040605    -1.8580914175    -0.2638216023
   15      O       1.0741607281    -1.8085090102     1.2497394501
   16      O       0.3391289846     1.1201486873     2.2065442160
   17      O       0.8244155591     0.2729440262     3.3038406248
   18      H       1.0031231588    -0.5579228185     2.8401465903
 ----------------------------------------------------------------
 Nuclear Repulsion Energy =   518.3340024200 hartrees
 There are       40 alpha and       40 beta electrons
 Discretize the solute cavity surface with Lebedev spheres
	Using 110 Lebedev grid points for each H atom
	Using 110 Lebedev grid points for other atoms
	Atomic van der Waals radii will be scaled by 1.20
 Remove points where switching function is < 1.0e-08
 Keep 1105 surface tesserae and discard 875 interior tesserae
 Molecular Surface Area = 198.698 Angst**2
 Requested basis set is def2-TZVPD
 There are 175 shells and 457 basis functions
 A cutoff of  1.0D-14 yielded  13944 shell pairs
 There are     95220 function pairs (    121086 Cartesian)
 Smallest overlap matrix eigenvalue = 2.63E-06
 Guess MOs from SCF MO coefficient file
 Reading MOs from coefficient file
 Reading MOs from coefficient file
 Long-range K will be added via erf
 Coulomb attenuation parameter = 0.3 bohr**(-1)
 A restricted hybrid HF-DFT SCF calculation will be
 performed using Pulay DIIS extrapolation
 Polarizable Continuum solvation model will be applied
 Exchange:     0.1670 Hartree-Fock + 1.0000 wB97X-V + LR-HF
 Correlation:  1.0000 wB97X-V
 Using SG-2 standard quadrature grid
 Nonlocal Correlation:  VV10 with C = 0.0100 and b = 6.00
 Grid used for NLC:  SG-1 standard quadrature
 SCF converges when DIIS error is below 1.0E-08
Using Q-Chem read-in guess as SCF_GUESS READ specified.

 using 16 threads for integral computing
 -------------------------------------------------------
 OpenMP Integral computing Module                
 Release: version 1.0, May 2013, Q-Chem Inc. Pittsburgh 
 -------------------------------------------------------
 using 16 threads for integral computing
 -------------------------------------------------------
 OpenMP Integral computing Module                
 Release: version 1.0, May 2013, Q-Chem Inc. Pittsburgh 
 -------------------------------------------------------
 -------------------------------------------------------
 OpenMP BLAS3 based DFT computing Module                
 Release: version 1.0, May 2013, Q-Chem Inc. Pittsburgh 
 -------------------------------------------------------
 -------------------------------------------------------
 OpenMP BLAS3 based DFT computing Module                
 Release: version 1.0, May 2013, Q-Chem Inc. Pittsburgh 
 -------------------------------------------------------
 -------------------------------------------------------
 OpenMP BLAS3 based DFT computing Module                
 Release: version 1.0, May 2013, Q-Chem Inc. Pittsburgh 
 -------------------------------------------------------
 ---------------------------------------
  Cycle       Energy         DIIS Error
 ---------------------------------------
    1    -571.3883752527      4.41E-04
    2    -571.6982448698      4.86E-04
    3    -571.7066509480      2.21E-04
    4    -571.7079953214      1.62E-04
    5    -571.7088078242      1.24E-04
    6    -571.7092212938      1.00E-04
    7    -571.7095858853      7.31E-05
    8    -571.7098411490      4.59E-05
    9    -571.7099496889      2.70E-05
   10    -571.7099963286      1.15E-05
   11    -571.7100058465      3.20E-06
   12    -571.7100065637      9.74E-07
   13    -571.7100066333      1.82E-07
   14    -571.7100066360      2.92E-08
   15    -571.7100066360      9.22E-09 Convergence criterion met
 ---------------------------------------

************** Final PCM Free Energy Summary **************
 G_electrostatic  =      -0.32129976 hartree =    -201.61864491 kcal/mol
 G_cavitation     =       0.00000000 hartree =       0.00000000 kcal/mol
 G_dispersion     =       0.00000000 hartree =       0.00000000 kcal/mol
 G_repulsion      =       0.00000000 hartree =       0.00000000 kcal/mol
 --------------------------------------------------
 Non-electrostatic Free Energy =       0.00000000 hartree =       0.00000000 kcal/mol
 Total                         =      -0.32129976 hartree =    -201.61864491 kcal/mol
 --------------------------------------------------
 SCF Energy (H0 + V/2)                       =    -571.71000664 
 Solute Internal Energy (H0)                 =    -571.38870687 
 Total Free Energy (H0 + V/2 + non-elec)     =    -571.71000664 hartree
                                             = -358753.44382957 kcal/mol
***********************************************************

 SCF time:  CPU 3637.58 s  wall 260.02 s
 SCF   energy in the final basis set = -571.71000664
 Total energy in the final basis set = -571.71000664
 
 --------------------------------------------------------------
 
                    Orbital Energies (a.u.)
 --------------------------------------------------------------
 
 Alpha MOs
 -- Occupied --
-19.197 -19.195 -19.141 -19.138 -19.131 -10.358 -10.341 -10.259
-10.256 -10.250  -1.168  -1.143  -1.128  -1.049  -0.915  -0.872
 -0.852  -0.776  -0.639  -0.610  -0.583  -0.571  -0.560  -0.539
 -0.532  -0.518  -0.511  -0.489  -0.480  -0.465  -0.448  -0.440
 -0.432  -0.426  -0.361  -0.347  -0.335  -0.328  -0.295  -0.268
 -- Virtual --
  0.060   0.071   0.075   0.084   0.093   0.094   0.102   0.109
  0.121   0.127   0.131   0.136   0.144   0.149   0.150   0.161
  0.167   0.176   0.184   0.188   0.192   0.197   0.202   0.211
  0.217   0.229   0.236   0.240   0.241   0.252   0.256   0.267
  0.278   0.279   0.290   0.292   0.303   0.307   0.314   0.315
  0.323   0.328   0.333   0.336   0.346   0.354   0.359   0.360
  0.366   0.372   0.376   0.384   0.387   0.397   0.399   0.406
  0.418   0.424   0.428   0.434   0.437   0.445   0.450   0.462
  0.469   0.470   0.474   0.479   0.485   0.490   0.494   0.503
  0.509   0.510   0.517   0.525   0.525   0.536   0.539   0.546
  0.553   0.560   0.561   0.571   0.572   0.583   0.589   0.592
  0.598   0.600   0.613   0.622   0.626   0.634   0.636   0.646
  0.651   0.660   0.661   0.667   0.675   0.678   0.685   0.692
  0.705   0.710   0.714   0.724   0.735   0.743   0.751   0.762
  0.764   0.772   0.774   0.779   0.793   0.796   0.800   0.811
  0.813   0.820   0.824   0.832   0.835   0.841   0.851   0.857
  0.862   0.868   0.885   0.888   0.895   0.905   0.909   0.916
  0.927   0.930   0.947   0.963   0.966   0.980   0.987   1.010
  1.020   1.031   1.044   1.050   1.062   1.070   1.085   1.090
  1.109   1.125   1.134   1.139   1.155   1.157   1.177   1.199
  1.208   1.216   1.221   1.242   1.253   1.271   1.280   1.294
  1.315   1.327   1.336   1.367   1.369   1.393   1.415   1.431
  1.433   1.443   1.447   1.488   1.503   1.518   1.550   1.558
  1.567   1.620   1.638   1.686   1.701   1.722   1.729   1.743
  1.781   1.810   1.858   1.898   1.914   1.926   1.939   1.943
  1.944   1.960   1.965   1.972   1.999   2.010   2.018   2.023
  2.024   2.036   2.050   2.066   2.074   2.104   2.114   2.123
  2.143   2.163   2.194   2.218   2.222   2.248   2.263   2.269
  2.291   2.294   2.309   2.318   2.328   2.346   2.365   2.376
  2.396   2.427   2.451   2.482   2.488   2.502   2.512   2.531
  2.572   2.578   2.601   2.632   2.649   2.662   2.671   2.697
  2.722   2.756   2.766   2.776   2.812   2.833   2.850   2.852
  2.908   2.920   2.932   2.941   2.954   2.982   2.996   3.014
  3.025   3.039   3.063   3.083   3.094   3.110   3.124   3.144
  3.178   3.213   3.224   3.253   3.271   3.286   3.292   3.302
  3.324   3.347   3.355   3.390   3.398   3.403   3.414   3.427
  3.456   3.478   3.497   3.508   3.527   3.538   3.543   3.547
  3.560   3.572   3.591   3.617   3.635   3.642   3.676   3.683
  3.694   3.708   3.720   3.723   3.730   3.743   3.776   3.799
  3.816   3.847   3.857   3.900   3.934   3.997   4.023   4.092
  4.102   4.130   4.155   4.182   4.196   4.234   4.259   4.312
  4.325   4.352   4.365   4.472   4.582   4.621   4.672   4.689
  4.700   4.765   4.816   4.828   4.867   4.930   4.947   4.953
  4.985   5.043   5.100   5.110   5.196   5.213   5.241   5.264
  5.325   5.336   5.353   5.365   5.376   5.393   5.396   5.411
  5.505   5.534   5.610   5.649   5.702   5.714   5.730   5.780
  5.821   6.006   6.009   6.043   6.247   6.288   6.314   6.336
  6.347   6.520   6.574   6.605   6.617   6.630   6.631   6.639
  6.664   6.689   6.698   6.717   6.740   6.754   6.774   6.826
  6.959   6.969   7.014   7.050   7.057   7.093   7.219   7.222
  7.255   7.342   7.368   7.404   7.413   7.421   8.182  22.723
 22.890  22.919  23.432  23.746  43.819  44.277  44.427  44.452
 44.537
 --------------------------------------------------------------
 
          Ground-State Mulliken Net Atomic Charges

     Atom                 Charge (a.u.)
  ----------------------------------------
      1 C                    -0.081089
      2 C                    -0.042022
      3 O                    -0.711006
      4 O                    -0.695139
      5 C                     0.118175
      6 H                     0.230806
      7 H                     0.090112
      8 C                     0.294302
      9 H                     0.200749
     10 H                     0.290291
     11 C                    -0.925031
     12 H                     0.243517
     13 H                     0.222070
     14 H                     0.328763
     15 O                    -0.640278
     16 O                    -0.768146
     17 O                    -0.453945
     18 H                     0.297871
  ----------------------------------------
  Sum of atomic charges =    -2.000000

 -----------------------------------------------------------------
                    Cartesian Multipole Moments
 -----------------------------------------------------------------
    Charge (ESU x 10^10)
                -9.6064
    Dipole Moment (Debye)
         X      -7.9482      Y     -13.8046      Z      -0.3436
       Tot      15.9330
    Quadrupole Moments (Debye-Ang)
        XX     -74.8076     XY       0.9359     YY     -97.5798
        XZ       2.2726     YZ      18.5332     ZZ    -147.3532
    Octopole Moments (Debye-Ang^2)
       XXX     -79.3066    XXY     -20.1487    XYY     -30.6923
       YYY    -103.2395    XXZ      20.6023    XYZ       6.1514
       YYZ      50.4017    XZZ     -81.8767    YZZ    -128.0218
       ZZZ      45.7816
    Hexadecapole Moments (Debye-Ang^3)
      XXXX    -380.6491   XXXY     -34.6851   XXYY    -215.0094
      XYYY      -3.0288   YYYY   -1008.3751   XXXZ      39.6959
      XXYZ     107.6509   XYYZ     -12.0227   YYYZ     419.3015
      XXZZ    -430.8634   XYZZ     -51.8827   YYZZ    -638.4637
      XZZZ      72.7938   YZZZ     410.9632   ZZZZ   -2462.3805
 -----------------------------------------------------------------
 Calculating analytic gradient of the SCF energy
 Gradient of SCF Energy
            1           2           3           4           5           6
    1  -0.0600414   0.0157130   0.0237196  -0.0440711   0.1119109   0.0451137
    2   0.0467719   0.0066478  -0.0452907   0.0201230  -0.0651256   0.0021233
    3   0.0846458  -0.0554155   0.0218751   0.0348288  -0.0388890   0.0229115
            7           8           9          10          11          12
    1  -0.0017051  -0.0008971  -0.0550038  -0.0064194  -0.0550759   0.0232272
    2  -0.0390239   0.0550486  -0.0163936   0.0291780  -0.0091664  -0.0683682
    3  -0.0418465  -0.0221309  -0.0075572   0.0274513   0.0187468  -0.0109227
           13          14          15          16          17          18
    1   0.0163873   0.0183526  -0.0359969  -0.0184307   0.0325189  -0.0093016
    2   0.0436523   0.0160636   0.0227310   0.0497047  -0.0974598   0.0487840
    3  -0.0558921   0.0528124  -0.0333629  -0.0442738   0.0131275   0.0338913
 Max gradient component =       1.119E-01
 RMS gradient           =       4.197E-02
 Computing fast CPCM-ISWIG gradient
 Updating gradient with PCM contributions...
 -- total gradient after adding PCM contribution --
---------------------------------------------------
  Atom         X              Y              Z     
---------------------------------------------------
   1       0.001035      -0.000023       0.000014
   2      -0.000187      -0.000044       0.000027
   3       0.000023       0.000026      -0.000023
   4      -0.000005       0.000008       0.000083
   5      -0.000251       0.000103      -0.000030
   6      -0.000525      -0.000124      -0.000075
   7      -0.000069       0.000023       0.000022
   8       0.000015      -0.000001      -0.000023
   9      -0.000028       0.000048      -0.000004
  10       0.000004       0.000009      -0.000004
  11      -0.000010       0.000005      -0.000001
  12      -0.000000      -0.000005      -0.000001
  13       0.000002      -0.000001       0.000001
  14       0.000007      -0.000011       0.000000
  15       0.000014      -0.000008       0.000025
  16       0.000000      -0.000010      -0.000007
  17      -0.000051      -0.000000       0.000001
  18       0.000028       0.000006      -0.000008
---------------------------------------------------
 Number of fixed atoms: 0
 Gradient time:  CPU 837.37 s  wall 61.22 s
 ----------------------------------------------------------------
             Standard Nuclear Orientation (Angstroms)
    I     Atom           X                Y                Z
 ----------------------------------------------------------------
    1      C      -0.0895450879     0.6935673279    -1.1126865642
    2      C       0.4256027600     1.4774144749    -2.3317731346
    3      O      -0.1971911103     2.5407393591    -2.5991654653
    4      O       1.4026774663     1.0207807896    -2.9774568272
    5      C       0.7583522893    -0.5112326514    -0.7203923678
    6      H      -1.1147399700     0.3881319441    -1.3460171976
    7      H      -0.1559233856     1.3835401550    -0.2656469496
    8      C       0.2757269965    -1.2774766425     0.4885657143
    9      H       1.7963468444    -0.2218273315    -0.5400814637
   10      H       0.7696643547    -1.2374432966    -1.5454879457
   11      C      -1.2065438787    -1.4718886029     0.6644037719
   12      H      -1.6762432202    -0.5073525882     0.8719837343
   13      H      -1.4009175523    -2.1622849287     1.4861444060
   14      H      -1.6414040605    -1.8580914175    -0.2638216023
   15      O       1.0741607281    -1.8085090102     1.2497394501
   16      O       0.3391289846     1.1201486873     2.2065442160
   17      O       0.8244155591     0.2729440262     3.3038406248
   18      H       1.0031231588    -0.5579228185     2.8401465903
 ----------------------------------------------------------------
 Nuclear Repulsion Energy =   518.3173202733 hartrees
 There are       40 alpha and       40 beta electrons
 Discretize the solute cavity surface with Lebedev spheres
	Using 110 Lebedev grid points for each H atom
	Using 110 Lebedev grid points for other atoms
	Atomic van der Waals radii will be scaled by 1.20
 Remove points where switching function is < 1.0e-08
 Keep 1105 surface tesserae and discard 875 interior tesserae
 Molecular Surface Area = 198.690 Angst**2
 Requested basis set is def2-TZVPD
 There are 175 shells and 457 basis functions
 A cutoff of  1.0D-14 yielded  13944 shell pairs
 There are     95220 function pairs (    121086 Cartesian)
 Smallest overlap matrix eigenvalue = 2.63E-06
 Guess MOs from SCF MO coefficient file
 Reading MOs from coefficient file
 Reading MOs from coefficient file
 Long-range K will be added via erf
 Coulomb attenuation parameter = 0.3 bohr**(-1)
 A restricted hybrid HF-DFT SCF calculation will be
 performed using Pulay DIIS extrapolation
 Polarizable Continuum solvation model will be applied
 Exchange:     0.1670 Hartree-Fock + 1.0000 wB97X-V + LR-HF
 Correlation:  1.0000 wB97X-V
 Using SG-2 standard quadrature grid
 Nonlocal Correlation:  VV10 with C = 0.0100 and b = 6.00
 Grid used for NLC:  SG-1 standard quadrature
 SCF converges when DIIS error is below 1.0E-08
Using Q-Chem read-in guess as SCF_GUESS READ specified.

 using 16 threads for integral computing
 -------------------------------------------------------
 OpenMP Integral computing Module                
 Release: version 1.0, May 2013, Q-Chem Inc. Pittsburgh 
 -------------------------------------------------------
 using 16 threads for integral computing
 -------------------------------------------------------
 OpenMP Integral computing Module                
 Release: version 1.0, May 2013, Q-Chem Inc. Pittsburgh 
 -------------------------------------------------------
 -------------------------------------------------------
 OpenMP BLAS3 based DFT computing Module                
 Release: version 1.0, May 2013, Q-Chem Inc. Pittsburgh 
 -------------------------------------------------------
 -------------------------------------------------------
 OpenMP BLAS3 based DFT computing Module                
 Release: version 1.0, May 2013, Q-Chem Inc. Pittsburgh 
 -------------------------------------------------------
 -------------------------------------------------------
 OpenMP BLAS3 based DFT computing Module                
 Release: version 1.0, May 2013, Q-Chem Inc. Pittsburgh 
 -------------------------------------------------------
 ---------------------------------------
  Cycle       Energy         DIIS Error
 ---------------------------------------
    1    -571.3893744300      4.41E-04
    2    -571.6982685778      4.85E-04
    3    -571.7066595630      2.21E-04
    4    -571.7080027401      1.62E-04
    5    -571.7088223018      1.23E-04
    6    -571.7092705285      9.68E-05
    7    -571.7097046189      6.19E-05
    8    -571.7099470227      2.75E-05
    9    -571.7099971759      1.10E-05
   10    -571.7100060258      2.88E-06
   11    -571.7100066447      4.86E-07
   12    -571.7100066611      1.38E-07
   13    -571.7100066624      2.75E-08
   14    -571.7100066625      1.42E-08
   15    -571.7100066625      7.30E-09 Convergence criterion met
 ---------------------------------------

************** Final PCM Free Energy Summary **************
 G_electrostatic  =      -0.32129976 hartree =    -201.61864020 kcal/mol
 G_cavitation     =       0.00000000 hartree =       0.00000000 kcal/mol
 G_dispersion     =       0.00000000 hartree =       0.00000000 kcal/mol
 G_repulsion      =       0.00000000 hartree =       0.00000000 kcal/mol
 --------------------------------------------------
 Non-electrostatic Free Energy =       0.00000000 hartree =       0.00000000 kcal/mol
 Total                         =      -0.32129976 hartree =    -201.61864020 kcal/mol
 --------------------------------------------------
 SCF Energy (H0 + V/2)                       =    -571.71000666 
 Solute Internal Energy (H0)                 =    -571.38870691 
 Total Free Energy (H0 + V/2 + non-elec)     =    -571.71000666 hartree
                                             = -358753.44384617 kcal/mol
***********************************************************

 SCF time:  CPU 3649.57 s  wall 261.26 s
 SCF   energy in the final basis set = -571.71000666
 Total energy in the final basis set = -571.71000666
 
 --------------------------------------------------------------
 
                    Orbital Energies (a.u.)
 --------------------------------------------------------------
 
 Alpha MOs
 -- Occupied --
-19.197 -19.195 -19.141 -19.138 -19.131 -10.358 -10.341 -10.259
-10.256 -10.250  -1.168  -1.143  -1.128  -1.049  -0.915  -0.872
 -0.852  -0.776  -0.639  -0.610  -0.583  -0.570  -0.560  -0.539
 -0.532  -0.518  -0.511  -0.489  -0.480  -0.465  -0.448  -0.441
 -0.432  -0.426  -0.361  -0.347  -0.335  -0.328  -0.295  -0.268
 -- Virtual --
  0.060   0.071   0.075   0.084   0.093   0.094   0.102   0.109
  0.121   0.127   0.131   0.136   0.144   0.149   0.150   0.161
  0.167   0.176   0.184   0.188   0.192   0.197   0.202   0.211
  0.218   0.229   0.236   0.240   0.241   0.252   0.256   0.267
  0.278   0.279   0.290   0.292   0.303   0.307   0.314   0.315
  0.323   0.328   0.333   0.336   0.346   0.354   0.359   0.360
  0.366   0.372   0.376   0.384   0.387   0.397   0.399   0.406
  0.418   0.424   0.428   0.434   0.437   0.445   0.450   0.462
  0.469   0.470   0.474   0.479   0.485   0.490   0.494   0.503
  0.509   0.510   0.517   0.525   0.525   0.536   0.539   0.546
  0.553   0.560   0.561   0.571   0.572   0.583   0.589   0.592
  0.598   0.600   0.613   0.622   0.626   0.634   0.636   0.646
  0.651   0.660   0.662   0.667   0.675   0.678   0.685   0.692
  0.705   0.710   0.714   0.724   0.735   0.743   0.751   0.762
  0.764   0.772   0.774   0.779   0.793   0.796   0.800   0.810
  0.813   0.820   0.824   0.832   0.835   0.841   0.851   0.857
  0.862   0.868   0.885   0.888   0.895   0.905   0.909   0.916
  0.927   0.930   0.947   0.963   0.966   0.981   0.987   1.010
  1.020   1.031   1.044   1.050   1.062   1.070   1.085   1.091
  1.109   1.125   1.134   1.139   1.154   1.157   1.177   1.199
  1.208   1.217   1.221   1.242   1.253   1.271   1.280   1.294
  1.315   1.327   1.336   1.367   1.369   1.393   1.415   1.431
  1.433   1.443   1.447   1.488   1.503   1.518   1.550   1.558
  1.566   1.619   1.638   1.686   1.701   1.722   1.729   1.743
  1.781   1.810   1.858   1.898   1.914   1.926   1.939   1.942
  1.944   1.960   1.965   1.972   1.999   2.010   2.018   2.023
  2.024   2.036   2.050   2.066   2.074   2.104   2.114   2.123
  2.143   2.162   2.194   2.218   2.222   2.248   2.263   2.269
  2.291   2.294   2.309   2.318   2.328   2.346   2.365   2.376
  2.396   2.427   2.451   2.482   2.488   2.502   2.512   2.531
  2.572   2.578   2.601   2.632   2.649   2.662   2.671   2.697
  2.722   2.756   2.766   2.776   2.812   2.833   2.850   2.852
  2.908   2.920   2.932   2.941   2.954   2.982   2.996   3.014
  3.025   3.039   3.064   3.082   3.093   3.110   3.124   3.144
  3.178   3.213   3.225   3.253   3.271   3.286   3.292   3.302
  3.324   3.347   3.355   3.389   3.398   3.403   3.414   3.427
  3.456   3.478   3.497   3.508   3.527   3.537   3.543   3.547
  3.560   3.572   3.591   3.617   3.635   3.642   3.675   3.683
  3.694   3.708   3.720   3.723   3.730   3.743   3.775   3.799
  3.816   3.847   3.857   3.900   3.933   3.997   4.023   4.092
  4.102   4.130   4.155   4.182   4.196   4.234   4.259   4.312
  4.325   4.351   4.364   4.471   4.581   4.621   4.671   4.689
  4.700   4.766   4.816   4.828   4.867   4.930   4.947   4.952
  4.984   5.043   5.100   5.110   5.196   5.212   5.241   5.264
  5.325   5.336   5.353   5.365   5.376   5.393   5.396   5.411
  5.505   5.534   5.610   5.649   5.702   5.714   5.730   5.780
  5.821   6.006   6.009   6.043   6.247   6.288   6.314   6.335
  6.347   6.520   6.574   6.605   6.617   6.629   6.631   6.639
  6.664   6.689   6.698   6.717   6.740   6.754   6.774   6.826
  6.959   6.969   7.014   7.050   7.057   7.093   7.219   7.222
  7.255   7.342   7.367   7.403   7.413   7.421   8.182  22.723
 22.889  22.920  23.432  23.746  43.819  44.277  44.426  44.452
 44.537
 --------------------------------------------------------------
 
          Ground-State Mulliken Net Atomic Charges

     Atom                 Charge (a.u.)
  ----------------------------------------
      1 C                    -0.081972
      2 C                    -0.041218
      3 O                    -0.710900
      4 O                    -0.695008
      5 C                     0.115689
      6 H                     0.232308
      7 H                     0.089716
      8 C                     0.294754
      9 H                     0.201140
     10 H                     0.290703
     11 C                    -0.924931
     12 H                     0.243519
     13 H                     0.222053
     14 H                     0.328737
     15 O                    -0.640341
     16 O                    -0.768172
     17 O                    -0.453938
     18 H                     0.297861
  ----------------------------------------
  Sum of atomic charges =    -2.000000

 -----------------------------------------------------------------
                    Cartesian Multipole Moments
 -----------------------------------------------------------------
    Charge (ESU x 10^10)
                -9.6064
    Dipole Moment (Debye)
         X      -7.9489      Y     -13.8034      Z      -0.3465
       Tot      15.9323
    Quadrupole Moments (Debye-Ang)
        XX     -74.8035     XY       0.9364     YY     -97.5835
        XZ       2.2734     YZ      18.5336     ZZ    -147.3472
    Octopole Moments (Debye-Ang^2)
       XXX     -79.2780    XXY     -20.1470    XYY     -30.6849
       YYY    -103.2396    XXZ      20.5905    XYZ       6.1524
       YYZ      50.4029    XZZ     -81.8663    YZZ    -128.0169
       ZZZ      45.7449
    Hexadecapole Moments (Debye-Ang^3)
      XXXX    -380.6340   XXXY     -34.6698   XXYY    -215.0146
      XYYY      -3.0094   YYYY   -1008.4309   XXXZ      39.6642
      XXYZ     107.6498   XYYZ     -12.0297   YYYZ     419.3327
      XXZZ    -430.8407   XYZZ     -51.8712   YYZZ    -638.4847
      XZZZ      72.7364   YZZZ     410.9515   ZZZZ   -2462.2672
 -----------------------------------------------------------------
 Calculating analytic gradient of the SCF energy
 Gradient of SCF Energy
            1           2           3           4           5           6
    1  -0.0616879   0.0160042   0.0236738  -0.0440722   0.1124439   0.0461970
    2   0.0467373   0.0067416  -0.0453122   0.0201336  -0.0654971   0.0023805
    3   0.0843375  -0.0555832   0.0218989   0.0347656  -0.0384841   0.0232536
            7           8           9          10          11          12
    1  -0.0017109  -0.0011433  -0.0549996  -0.0064016  -0.0550374   0.0232068
    2  -0.0390012   0.0551552  -0.0164812   0.0292306  -0.0091851  -0.0683717
    3  -0.0419539  -0.0221467  -0.0076759   0.0274956   0.0187550  -0.0109339
           13          14          15          16          17          18
    1   0.0163968   0.0183414  -0.0359948  -0.0184330   0.0325201  -0.0093034
    2   0.0436651   0.0160509   0.0227274   0.0497008  -0.0974639   0.0487893
    3  -0.0558899   0.0528048  -0.0333853  -0.0442777   0.0131267   0.0338928
 Max gradient component =       1.124E-01
 RMS gradient           =       4.207E-02
 Computing fast CPCM-ISWIG gradient
 Updating gradient with PCM contributions...
 -- total gradient after adding PCM contribution --
---------------------------------------------------
  Atom         X              Y              Z     
---------------------------------------------------
   1      -0.001022      -0.000001      -0.000044
   2       0.000152       0.000039      -0.000032
   3      -0.000028      -0.000046       0.000012
   4       0.000042       0.000011      -0.000065
   5       0.000239      -0.000103       0.000013
   6       0.000519       0.000154       0.000120
   7       0.000099      -0.000015      -0.000014
   8      -0.000025       0.000021       0.000019
   9       0.000030      -0.000049       0.000023
  10       0.000010       0.000004      -0.000002
  11      -0.000007       0.000006      -0.000006
  12       0.000001      -0.000004      -0.000003
  13       0.000003      -0.000000       0.000001
  14       0.000006      -0.000010      -0.000000
  15       0.000005       0.000001      -0.000011
  16       0.000002      -0.000012      -0.000007
  17      -0.000052      -0.000001       0.000001
  18       0.000028       0.000007      -0.000005
---------------------------------------------------
 Number of fixed atoms: 0
 Gradient time:  CPU 819.62 s  wall 60.34 s
 ----------------------------------------------------------------
             Standard Nuclear Orientation (Angstroms)
    I     Atom           X                Y                Z
 ----------------------------------------------------------------
    1      C      -0.0885450879     0.6945673279    -1.1126865642
    2      C       0.4256027600     1.4774144749    -2.3317731346
    3      O      -0.1971911103     2.5407393591    -2.5991654653
    4      O       1.4026774663     1.0207807896    -2.9774568272
    5      C       0.7583522893    -0.5112326514    -0.7203923678
    6      H      -1.1147399700     0.3881319441    -1.3460171976
    7      H      -0.1559233856     1.3835401550    -0.2656469496
    8      C       0.2757269965    -1.2774766425     0.4885657143
    9      H       1.7963468444    -0.2218273315    -0.5400814637
   10      H       0.7696643547    -1.2374432966    -1.5454879457
   11      C      -1.2065438787    -1.4718886029     0.6644037719
   12      H      -1.6762432202    -0.5073525882     0.8719837343
   13      H      -1.4009175523    -2.1622849287     1.4861444060
   14      H      -1.6414040605    -1.8580914175    -0.2638216023
   15      O       1.0741607281    -1.8085090102     1.2497394501
   16      O       0.3391289846     1.1201486873     2.2065442160
   17      O       0.8244155591     0.2729440262     3.3038406248
   18      H       1.0031231588    -0.5579228185     2.8401465903
 ----------------------------------------------------------------
 Nuclear Repulsion Energy =   518.3219173316 hartrees
 There are       40 alpha and       40 beta electrons
 Discretize the solute cavity surface with Lebedev spheres
	Using 110 Lebedev grid points for each H atom
	Using 110 Lebedev grid points for other atoms
	Atomic van der Waals radii will be scaled by 1.20
 Remove points where switching function is < 1.0e-08
 Keep 1105 surface tesserae and discard 875 interior tesserae
 Molecular Surface Area = 198.696 Angst**2
 Requested basis set is def2-TZVPD
 There are 175 shells and 457 basis functions
 A cutoff of  1.0D-14 yielded  13944 shell pairs
 There are     95220 function pairs (    121086 Cartesian)
 Smallest overlap matrix eigenvalue = 2.63E-06
 Guess MOs from SCF MO coefficient file
 Reading MOs from coefficient file
 Reading MOs from coefficient file
 Long-range K will be added via erf
 Coulomb attenuation parameter = 0.3 bohr**(-1)
 A restricted hybrid HF-DFT SCF calculation will be
 performed using Pulay DIIS extrapolation
 Polarizable Continuum solvation model will be applied
 Exchange:     0.1670 Hartree-Fock + 1.0000 wB97X-V + LR-HF
 Correlation:  1.0000 wB97X-V
 Using SG-2 standard quadrature grid
 Nonlocal Correlation:  VV10 with C = 0.0100 and b = 6.00
 Grid used for NLC:  SG-1 standard quadrature
 SCF converges when DIIS error is below 1.0E-08
Using Q-Chem read-in guess as SCF_GUESS READ specified.

 using 16 threads for integral computing
 -------------------------------------------------------
 OpenMP Integral computing Module                
 Release: version 1.0, May 2013, Q-Chem Inc. Pittsburgh 
 -------------------------------------------------------
 using 16 threads for integral computing
 -------------------------------------------------------
 OpenMP Integral computing Module                
 Release: version 1.0, May 2013, Q-Chem Inc. Pittsburgh 
 -------------------------------------------------------
 -------------------------------------------------------
 OpenMP BLAS3 based DFT computing Module                
 Release: version 1.0, May 2013, Q-Chem Inc. Pittsburgh 
 -------------------------------------------------------
 -------------------------------------------------------
 OpenMP BLAS3 based DFT computing Module                
 Release: version 1.0, May 2013, Q-Chem Inc. Pittsburgh 
 -------------------------------------------------------
 -------------------------------------------------------
 OpenMP BLAS3 based DFT computing Module                
 Release: version 1.0, May 2013, Q-Chem Inc. Pittsburgh 
 -------------------------------------------------------
 ---------------------------------------
  Cycle       Energy         DIIS Error
 ---------------------------------------
    1    -571.3884216812      4.41E-04
    2    -571.6982410979      4.86E-04
    3    -571.7066522312      2.21E-04
    4    -571.7079977183      1.62E-04
    5    -571.7088151205      1.23E-04
    6    -571.7092403749      9.88E-05
    7    -571.7096290237      6.93E-05
    8    -571.7098906929      3.84E-05
    9    -571.7099778914      1.92E-05
   10    -571.7100035438      6.39E-06
   11    -571.7100065655      1.37E-06
   12    -571.7100066984      3.63E-07
   13    -571.7100067081      5.30E-08
   14    -571.7100067083      1.33E-08
   15    -571.7100067083      7.34E-09 Convergence criterion met
 ---------------------------------------

************** Final PCM Free Energy Summary **************
 G_electrostatic  =      -0.32129626 hartree =    -201.61644822 kcal/mol
 G_cavitation     =       0.00000000 hartree =       0.00000000 kcal/mol
 G_dispersion     =       0.00000000 hartree =       0.00000000 kcal/mol
 G_repulsion      =       0.00000000 hartree =       0.00000000 kcal/mol
 --------------------------------------------------
 Non-electrostatic Free Energy =       0.00000000 hartree =       0.00000000 kcal/mol
 Total                         =      -0.32129626 hartree =    -201.61644822 kcal/mol
 --------------------------------------------------
 SCF Energy (H0 + V/2)                       =    -571.71000671 
 Solute Internal Energy (H0)                 =    -571.38871044 
 Total Free Energy (H0 + V/2 + non-elec)     =    -571.71000671 hartree
                                             = -358753.44387493 kcal/mol
***********************************************************

 SCF time:  CPU 3638.25 s  wall 260.10 s
 SCF   energy in the final basis set = -571.71000671
 Total energy in the final basis set = -571.71000671
 
 --------------------------------------------------------------
 
                    Orbital Energies (a.u.)
 --------------------------------------------------------------
 
 Alpha MOs
 -- Occupied --
-19.197 -19.195 -19.141 -19.138 -19.131 -10.358 -10.341 -10.259
-10.256 -10.250  -1.168  -1.143  -1.128  -1.049  -0.915  -0.872
 -0.852  -0.776  -0.639  -0.610  -0.583  -0.570  -0.560  -0.539
 -0.532  -0.518  -0.511  -0.489  -0.480  -0.465  -0.448  -0.440
 -0.432  -0.426  -0.361  -0.347  -0.335  -0.328  -0.295  -0.268
 -- Virtual --
  0.060   0.071   0.075   0.084   0.093   0.094   0.102   0.109
  0.121   0.127   0.131   0.136   0.144   0.149   0.150   0.161
  0.167   0.176   0.184   0.188   0.192   0.197   0.202   0.211
  0.218   0.229   0.236   0.240   0.241   0.252   0.256   0.267
  0.278   0.279   0.290   0.292   0.303   0.307   0.314   0.315
  0.323   0.328   0.333   0.336   0.346   0.354   0.359   0.360
  0.366   0.372   0.376   0.384   0.387   0.397   0.399   0.406
  0.418   0.424   0.428   0.434   0.437   0.445   0.450   0.462
  0.469   0.470   0.474   0.479   0.485   0.490   0.494   0.503
  0.509   0.510   0.517   0.525   0.525   0.536   0.539   0.546
  0.553   0.560   0.561   0.571   0.572   0.583   0.589   0.592
  0.598   0.600   0.613   0.622   0.626   0.634   0.636   0.646
  0.651   0.660   0.661   0.667   0.675   0.678   0.685   0.692
  0.705   0.710   0.714   0.724   0.735   0.743   0.751   0.762
  0.764   0.772   0.774   0.779   0.793   0.796   0.800   0.810
  0.813   0.820   0.824   0.832   0.835   0.841   0.851   0.857
  0.862   0.868   0.885   0.888   0.895   0.905   0.909   0.916
  0.927   0.930   0.947   0.963   0.966   0.981   0.987   1.010
  1.020   1.031   1.044   1.050   1.062   1.070   1.085   1.090
  1.109   1.125   1.134   1.139   1.155   1.157   1.177   1.199
  1.208   1.216   1.221   1.242   1.253   1.271   1.280   1.294
  1.315   1.327   1.336   1.367   1.369   1.393   1.415   1.431
  1.433   1.443   1.447   1.488   1.503   1.518   1.550   1.558
  1.566   1.619   1.638   1.686   1.701   1.722   1.729   1.743
  1.781   1.810   1.858   1.898   1.914   1.926   1.939   1.943
  1.944   1.960   1.965   1.972   1.999   2.010   2.018   2.023
  2.024   2.036   2.050   2.066   2.074   2.104   2.114   2.123
  2.143   2.162   2.194   2.218   2.222   2.248   2.263   2.269
  2.291   2.294   2.309   2.318   2.328   2.346   2.365   2.376
  2.396   2.427   2.451   2.482   2.488   2.502   2.512   2.531
  2.572   2.578   2.601   2.632   2.649   2.662   2.671   2.697
  2.722   2.756   2.766   2.776   2.812   2.833   2.850   2.852
  2.908   2.920   2.932   2.941   2.954   2.982   2.996   3.014
  3.025   3.039   3.063   3.083   3.093   3.110   3.124   3.144
  3.178   3.213   3.224   3.253   3.271   3.286   3.292   3.302
  3.324   3.347   3.355   3.389   3.398   3.403   3.414   3.427
  3.456   3.478   3.497   3.508   3.527   3.537   3.543   3.547
  3.560   3.572   3.591   3.617   3.635   3.642   3.676   3.683
  3.694   3.708   3.719   3.723   3.730   3.743   3.775   3.799
  3.816   3.847   3.857   3.900   3.933   3.997   4.023   4.092
  4.102   4.130   4.155   4.182   4.196   4.234   4.259   4.312
  4.325   4.352   4.364   4.472   4.582   4.621   4.672   4.689
  4.700   4.765   4.816   4.828   4.867   4.930   4.947   4.953
  4.984   5.043   5.100   5.110   5.196   5.213   5.241   5.264
  5.325   5.336   5.353   5.365   5.376   5.393   5.396   5.412
  5.505   5.534   5.610   5.649   5.702   5.714   5.730   5.780
  5.821   6.006   6.009   6.043   6.247   6.288   6.314   6.336
  6.347   6.520   6.574   6.605   6.617   6.630   6.631   6.639
  6.664   6.689   6.698   6.717   6.740   6.754   6.774   6.826
  6.959   6.969   7.014   7.050   7.057   7.093   7.219   7.222
  7.255   7.342   7.368   7.403   7.413   7.421   8.182  22.723
 22.889  22.919  23.432  23.747  43.819  44.277  44.427  44.452
 44.537
 --------------------------------------------------------------
 
          Ground-State Mulliken Net Atomic Charges

     Atom                 Charge (a.u.)
  ----------------------------------------
      1 C                    -0.080871
      2 C                    -0.041834
      3 O                    -0.710944
      4 O                    -0.695091
      5 C                     0.115306
      6 H                     0.231254
      7 H                     0.090444
      8 C                     0.295118
      9 H                     0.201121
     10 H                     0.290758
     11 C                    -0.925057
     12 H                     0.243570
     13 H                     0.222022
     14 H                     0.328753
     15 O                    -0.640317
     16 O                    -0.768154
     17 O                    -0.453946
     18 H                     0.297868
  ----------------------------------------
  Sum of atomic charges =    -2.000000

 -----------------------------------------------------------------
                    Cartesian Multipole Moments
 -----------------------------------------------------------------
    Charge (ESU x 10^10)
                -9.6064
    Dipole Moment (Debye)
         X      -7.9489      Y     -13.8037      Z      -0.3442
       Tot      15.9325
    Quadrupole Moments (Debye-Ang)
        XX     -74.8064     XY       0.9371     YY     -97.5823
        XZ       2.2722     YZ      18.5358     ZZ    -147.3522
    Octopole Moments (Debye-Ang^2)
       XXX     -79.2924    XXY     -20.1513    XYY     -30.6866
       YYY    -103.2575    XXZ      20.5960    XYZ       6.1493
       YYZ      50.4091    XZZ     -81.8681    YZZ    -128.0315
       ZZZ      45.7737
    Hexadecapole Moments (Debye-Ang^3)
      XXXX    -380.6485   XXXY     -34.6703   XXYY    -215.0178
      XYYY      -3.0141   YYYY   -1008.4600   XXXZ      39.6740
      XXYZ     107.6550   XYYZ     -12.0321   YYYZ     419.3599
      XXZZ    -430.8478   XYZZ     -51.8693   YYZZ    -638.5068
      XZZZ      72.7549   YZZZ     411.0050   ZZZZ   -2462.3571
 -----------------------------------------------------------------
 Calculating analytic gradient of the SCF energy
 Gradient of SCF Energy
            1           2           3           4           5           6
    1  -0.0607037   0.0158314   0.0237008  -0.0440712   0.1121900   0.0454973
    2   0.0474012   0.0064886  -0.0453124   0.0201533  -0.0655724   0.0022726
    3   0.0846030  -0.0554147   0.0219147   0.0347982  -0.0384921   0.0229848
            7           8           9          10          11          12
    1  -0.0016716  -0.0010191  -0.0550554  -0.0063673  -0.0550757   0.0232181
    2  -0.0392138   0.0550892  -0.0164450   0.0291990  -0.0091747  -0.0683671
    3  -0.0422219  -0.0221749  -0.0075973   0.0275006   0.0187441  -0.0109247
           13          14          15          16          17          18
    1   0.0163962   0.0183478  -0.0360026  -0.0184317   0.0325201  -0.0093037
    2   0.0436590   0.0160632   0.0227301   0.0497049  -0.0974613   0.0487854
    3  -0.0558927   0.0528064  -0.0333797  -0.0442741   0.0131286   0.0338917
 Max gradient component =       1.122E-01
 RMS gradient           =       4.205E-02
 Computing fast CPCM-ISWIG gradient
 Updating gradient with PCM contributions...
 -- total gradient after adding PCM contribution --
---------------------------------------------------
  Atom         X              Y              Z     
---------------------------------------------------
   1      -0.000003       0.000977       0.000074
   2      -0.000061      -0.000198       0.000056
   3       0.000004      -0.000066       0.000069
   4       0.000042       0.000035       0.000003
   5       0.000102      -0.000296       0.000032
   6      -0.000140      -0.000117      -0.000005
   7       0.000033      -0.000283      -0.000248
   8       0.000008      -0.000019       0.000011
   9      -0.000007       0.000014       0.000006
  10       0.000034      -0.000029       0.000009
  11      -0.000010       0.000007      -0.000003
  12       0.000000      -0.000006      -0.000002
  13       0.000004      -0.000000       0.000001
  14       0.000006      -0.000010       0.000000
  15       0.000008      -0.000001       0.000006
  16       0.000002      -0.000012      -0.000006
  17      -0.000051      -0.000001       0.000003
  18       0.000028       0.000006      -0.000006
---------------------------------------------------
 Number of fixed atoms: 0
 Gradient time:  CPU 826.99 s  wall 60.59 s
 ----------------------------------------------------------------
             Standard Nuclear Orientation (Angstroms)
    I     Atom           X                Y                Z
 ----------------------------------------------------------------
    1      C      -0.0885450879     0.6925673279    -1.1126865642
    2      C       0.4256027600     1.4774144749    -2.3317731346
    3      O      -0.1971911103     2.5407393591    -2.5991654653
    4      O       1.4026774663     1.0207807896    -2.9774568272
    5      C       0.7583522893    -0.5112326514    -0.7203923678
    6      H      -1.1147399700     0.3881319441    -1.3460171976
    7      H      -0.1559233856     1.3835401550    -0.2656469496
    8      C       0.2757269965    -1.2774766425     0.4885657143
    9      H       1.7963468444    -0.2218273315    -0.5400814637
   10      H       0.7696643547    -1.2374432966    -1.5454879457
   11      C      -1.2065438787    -1.4718886029     0.6644037719
   12      H      -1.6762432202    -0.5073525882     0.8719837343
   13      H      -1.4009175523    -2.1622849287     1.4861444060
   14      H      -1.6414040605    -1.8580914175    -0.2638216023
   15      O       1.0741607281    -1.8085090102     1.2497394501
   16      O       0.3391289846     1.1201486873     2.2065442160
   17      O       0.8244155591     0.2729440262     3.3038406248
   18      H       1.0031231588    -0.5579228185     2.8401465903
 ----------------------------------------------------------------
 Nuclear Repulsion Energy =   518.3294148124 hartrees
 There are       40 alpha and       40 beta electrons
 Discretize the solute cavity surface with Lebedev spheres
	Using 110 Lebedev grid points for each H atom
	Using 110 Lebedev grid points for other atoms
	Atomic van der Waals radii will be scaled by 1.20
 Remove points where switching function is < 1.0e-08
 Keep 1105 surface tesserae and discard 875 interior tesserae
 Molecular Surface Area = 198.693 Angst**2
 Requested basis set is def2-TZVPD
 There are 175 shells and 457 basis functions
 A cutoff of  1.0D-14 yielded  13944 shell pairs
 There are     95220 function pairs (    121086 Cartesian)
 Smallest overlap matrix eigenvalue = 2.63E-06
 Guess MOs from SCF MO coefficient file
 Reading MOs from coefficient file
 Reading MOs from coefficient file
 Long-range K will be added via erf
 Coulomb attenuation parameter = 0.3 bohr**(-1)
 A restricted hybrid HF-DFT SCF calculation will be
 performed using Pulay DIIS extrapolation
 Polarizable Continuum solvation model will be applied
 Exchange:     0.1670 Hartree-Fock + 1.0000 wB97X-V + LR-HF
 Correlation:  1.0000 wB97X-V
 Using SG-2 standard quadrature grid
 Nonlocal Correlation:  VV10 with C = 0.0100 and b = 6.00
 Grid used for NLC:  SG-1 standard quadrature
 SCF converges when DIIS error is below 1.0E-08
Using Q-Chem read-in guess as SCF_GUESS READ specified.

 using 16 threads for integral computing
 -------------------------------------------------------
 OpenMP Integral computing Module                
 Release: version 1.0, May 2013, Q-Chem Inc. Pittsburgh 
 -------------------------------------------------------
 using 16 threads for integral computing
 -------------------------------------------------------
 OpenMP Integral computing Module                
 Release: version 1.0, May 2013, Q-Chem Inc. Pittsburgh 
 -------------------------------------------------------
 -------------------------------------------------------
 OpenMP BLAS3 based DFT computing Module                
 Release: version 1.0, May 2013, Q-Chem Inc. Pittsburgh 
 -------------------------------------------------------
 -------------------------------------------------------
 OpenMP BLAS3 based DFT computing Module                
 Release: version 1.0, May 2013, Q-Chem Inc. Pittsburgh 
 -------------------------------------------------------
 -------------------------------------------------------
 OpenMP BLAS3 based DFT computing Module                
 Release: version 1.0, May 2013, Q-Chem Inc. Pittsburgh 
 -------------------------------------------------------
 ---------------------------------------
  Cycle       Energy         DIIS Error
 ---------------------------------------
    1    -571.3886258204      4.41E-04
    2    -571.6982632927      4.86E-04
    3    -571.7066582517      2.21E-04
    4    -571.7080026279      1.62E-04
    5    -571.7088223075      1.23E-04
    6    -571.7092689053      9.69E-05
    7    -571.7097051950      6.18E-05
    8    -571.7099480825      2.73E-05
    9    -571.7099974841      1.08E-05
   10    -571.7100060846      2.75E-06
   11    -571.7100066490      4.71E-07
   12    -571.7100066643      1.35E-07
   13    -571.7100066657      2.66E-08
   14    -571.7100066657      1.40E-08
   15    -571.7100066657      6.82E-09 Convergence criterion met
 ---------------------------------------

************** Final PCM Free Energy Summary **************
 G_electrostatic  =      -0.32130340 hartree =    -201.62092771 kcal/mol
 G_cavitation     =       0.00000000 hartree =       0.00000000 kcal/mol
 G_dispersion     =       0.00000000 hartree =       0.00000000 kcal/mol
 G_repulsion      =       0.00000000 hartree =       0.00000000 kcal/mol
 --------------------------------------------------
 Non-electrostatic Free Energy =       0.00000000 hartree =       0.00000000 kcal/mol
 Total                         =      -0.32130340 hartree =    -201.62092771 kcal/mol
 --------------------------------------------------
 SCF Energy (H0 + V/2)                       =    -571.71000667 
 Solute Internal Energy (H0)                 =    -571.38870326 
 Total Free Energy (H0 + V/2 + non-elec)     =    -571.71000667 hartree
                                             = -358753.44384823 kcal/mol
***********************************************************

 SCF time:  CPU 3616.20 s  wall 258.74 s
 SCF   energy in the final basis set = -571.71000667
 Total energy in the final basis set = -571.71000667
 
 --------------------------------------------------------------
 
                    Orbital Energies (a.u.)
 --------------------------------------------------------------
 
 Alpha MOs
 -- Occupied --
-19.197 -19.195 -19.141 -19.138 -19.131 -10.358 -10.342 -10.259
-10.256 -10.250  -1.168  -1.143  -1.128  -1.049  -0.915  -0.872
 -0.852  -0.776  -0.639  -0.610  -0.583  -0.571  -0.560  -0.539
 -0.532  -0.518  -0.511  -0.489  -0.480  -0.465  -0.448  -0.441
 -0.432  -0.426  -0.361  -0.347  -0.335  -0.328  -0.295  -0.268
 -- Virtual --
  0.060   0.071   0.075   0.084   0.093   0.094   0.102   0.109
  0.121   0.127   0.131   0.136   0.144   0.149   0.150   0.161
  0.167   0.176   0.184   0.188   0.192   0.197   0.202   0.211
  0.217   0.229   0.236   0.240   0.241   0.252   0.256   0.267
  0.278   0.279   0.290   0.292   0.303   0.307   0.314   0.315
  0.323   0.328   0.333   0.336   0.346   0.354   0.359   0.360
  0.366   0.372   0.376   0.384   0.387   0.397   0.399   0.406
  0.418   0.424   0.428   0.434   0.437   0.445   0.450   0.462
  0.469   0.470   0.474   0.479   0.485   0.490   0.494   0.503
  0.509   0.510   0.517   0.525   0.525   0.536   0.539   0.546
  0.553   0.560   0.561   0.571   0.572   0.583   0.589   0.592
  0.598   0.600   0.613   0.622   0.626   0.634   0.636   0.646
  0.651   0.660   0.662   0.667   0.675   0.678   0.685   0.692
  0.705   0.710   0.714   0.724   0.735   0.743   0.751   0.762
  0.764   0.772   0.774   0.779   0.793   0.796   0.800   0.811
  0.813   0.820   0.824   0.832   0.835   0.841   0.851   0.857
  0.862   0.868   0.885   0.888   0.895   0.905   0.909   0.916
  0.927   0.930   0.947   0.963   0.966   0.980   0.987   1.010
  1.020   1.031   1.044   1.050   1.062   1.070   1.085   1.091
  1.109   1.125   1.134   1.139   1.154   1.157   1.177   1.199
  1.208   1.217   1.221   1.242   1.253   1.271   1.280   1.294
  1.315   1.327   1.336   1.367   1.369   1.393   1.415   1.431
  1.433   1.443   1.447   1.488   1.503   1.518   1.550   1.558
  1.567   1.619   1.638   1.686   1.701   1.722   1.729   1.743
  1.781   1.810   1.858   1.898   1.914   1.926   1.939   1.943
  1.944   1.960   1.965   1.973   1.999   2.010   2.018   2.023
  2.024   2.036   2.050   2.066   2.074   2.104   2.114   2.123
  2.143   2.163   2.194   2.218   2.222   2.248   2.263   2.269
  2.291   2.294   2.309   2.318   2.328   2.346   2.365   2.376
  2.396   2.427   2.451   2.482   2.488   2.502   2.512   2.531
  2.572   2.578   2.601   2.632   2.649   2.662   2.671   2.697
  2.722   2.756   2.766   2.776   2.812   2.833   2.850   2.852
  2.908   2.920   2.932   2.941   2.954   2.982   2.996   3.014
  3.024   3.039   3.064   3.082   3.094   3.110   3.124   3.144
  3.178   3.213   3.225   3.253   3.271   3.286   3.292   3.302
  3.324   3.347   3.355   3.390   3.398   3.403   3.414   3.427
  3.456   3.478   3.497   3.508   3.527   3.537   3.543   3.547
  3.560   3.572   3.591   3.617   3.635   3.642   3.675   3.683
  3.694   3.708   3.720   3.723   3.730   3.743   3.775   3.799
  3.816   3.847   3.857   3.899   3.934   3.997   4.023   4.092
  4.101   4.130   4.155   4.182   4.196   4.234   4.260   4.312
  4.325   4.352   4.365   4.472   4.582   4.621   4.672   4.689
  4.700   4.766   4.816   4.828   4.867   4.930   4.947   4.953
  4.984   5.043   5.100   5.110   5.196   5.213   5.241   5.264
  5.325   5.336   5.353   5.365   5.376   5.393   5.396   5.411
  5.505   5.534   5.610   5.649   5.702   5.714   5.730   5.780
  5.821   6.006   6.009   6.043   6.247   6.288   6.314   6.335
  6.347   6.520   6.574   6.605   6.617   6.630   6.631   6.639
  6.664   6.689   6.698   6.717   6.740   6.754   6.774   6.826
  6.959   6.969   7.014   7.050   7.057   7.093   7.219   7.222
  7.255   7.342   7.367   7.403   7.413   7.421   8.182  22.723
 22.890  22.919  23.432  23.746  43.819  44.277  44.426  44.452
 44.537
 --------------------------------------------------------------
 
          Ground-State Mulliken Net Atomic Charges

     Atom                 Charge (a.u.)
  ----------------------------------------
      1 C                    -0.082188
      2 C                    -0.041404
      3 O                    -0.710962
      4 O                    -0.695056
      5 C                     0.118555
      6 H                     0.231855
      7 H                     0.089386
      8 C                     0.293937
      9 H                     0.200768
     10 H                     0.290237
     11 C                    -0.924905
     12 H                     0.243465
     13 H                     0.222101
     14 H                     0.328747
     15 O                    -0.640302
     16 O                    -0.768164
     17 O                    -0.453936
     18 H                     0.297865
  ----------------------------------------
  Sum of atomic charges =    -2.000000

 -----------------------------------------------------------------
                    Cartesian Multipole Moments
 -----------------------------------------------------------------
    Charge (ESU x 10^10)
                -9.6064
    Dipole Moment (Debye)
         X      -7.9483      Y     -13.8044      Z      -0.3458
       Tot      15.9328
    Quadrupole Moments (Debye-Ang)
        XX     -74.8046     XY       0.9352     YY     -97.5810
        XZ       2.2738     YZ      18.5310     ZZ    -147.3482
    Octopole Moments (Debye-Ang^2)
       XXX     -79.2922    XXY     -20.1445    XYY     -30.6906
       YYY    -103.2218    XXZ      20.5968    XYZ       6.1545
       YYZ      50.3954    XZZ     -81.8749    YZZ    -128.0072
       ZZZ      45.7528
    Hexadecapole Moments (Debye-Ang^3)
      XXXX    -380.6345   XXXY     -34.6846   XXYY    -215.0061
      XYYY      -3.0240   YYYY   -1008.3460   XXXZ      39.6861
      XXYZ     107.6457   XYYZ     -12.0203   YYYZ     419.2743
      XXZZ    -430.8562   XYZZ     -51.8846   YYZZ    -638.4418
      XZZZ      72.7754   YZZZ     410.9097   ZZZZ   -2462.2905
 -----------------------------------------------------------------
 Calculating analytic gradient of the SCF energy
 Gradient of SCF Energy
            1           2           3           4           5           6
    1  -0.0610229   0.0158851   0.0236926  -0.0440724   0.1121656   0.0458111
    2   0.0461089   0.0069006  -0.0452908   0.0201034  -0.0650500   0.0022301
    3   0.0843838  -0.0555843   0.0218594   0.0347963  -0.0388821   0.0231797
            7           8           9          10          11          12
    1  -0.0017440  -0.0010214  -0.0549484  -0.0064538  -0.0550380   0.0232160
    2  -0.0388117   0.0551151  -0.0164297   0.0292096  -0.0091771  -0.0683731
    3  -0.0415801  -0.0221026  -0.0076362   0.0274465   0.0187579  -0.0109320
           13          14          15          16          17          18
    1   0.0163879   0.0183464  -0.0359893  -0.0184321   0.0325192  -0.0093014
    2   0.0436587   0.0160515   0.0227284   0.0497010  -0.0974629   0.0487881
    3  -0.0558896   0.0528111  -0.0333686  -0.0442776   0.0131257   0.0338927
 Max gradient component =       1.122E-01
 RMS gradient           =       4.200E-02
 Computing fast CPCM-ISWIG gradient
 Updating gradient with PCM contributions...
 -- total gradient after adding PCM contribution --
---------------------------------------------------
  Atom         X              Y              Z     
---------------------------------------------------
   1       0.000019      -0.001000      -0.000101
   2       0.000026       0.000193      -0.000060
   3      -0.000008       0.000046      -0.000079
[...]
 H          0.355 -0.035 -0.081    0.554  0.104 -0.175   -0.073 -0.243  0.105
 O         -0.006  0.019 -0.010   -0.025  0.016 -0.006    0.047 -0.004  0.038
 O         -0.009  0.014 -0.023    0.007 -0.014  0.016    0.000 -0.002 -0.000
 O          0.008 -0.015  0.021   -0.007  0.013 -0.016   -0.001  0.001 -0.001
 H          0.007  0.004 -0.013    0.006  0.006  0.001    0.003  0.004 -0.005
 TransDip  -0.011  0.057 -0.137   -0.099 -0.129  0.015    0.034 -0.059 -0.084

 Mode:                25                     26                     27
 Frequency:      1080.28                1107.56                1179.72
 Force Cnst:      1.4861                 2.0072                 1.1309
 Red. Mass:       2.1614                 2.7772                 1.3791
 IR Active:          YES                    YES                    YES
 IR Intens:        7.294                  4.681                 11.422
 Raman Active:       YES                    YES                    YES
               X      Y      Z        X      Y      Z        X      Y      Z
 C         -0.095 -0.076 -0.091   -0.190  0.204 -0.002   -0.034 -0.039 -0.027
 C          0.091  0.074  0.086   -0.002 -0.013  0.005    0.052  0.041  0.051
 O         -0.017 -0.011 -0.016    0.010 -0.035  0.021   -0.012 -0.001 -0.010
 O         -0.022 -0.013 -0.013    0.007  0.006 -0.012   -0.007 -0.009 -0.009
 C          0.097  0.059  0.092    0.197 -0.178 -0.005   -0.003 -0.034 -0.036
 H         -0.208  0.022  0.331   -0.201  0.330 -0.140   -0.041 -0.264  0.313
 H          0.271  0.186 -0.267   -0.223  0.308 -0.089    0.039  0.316 -0.312
 C         -0.018 -0.113 -0.088   -0.018  0.057  0.025   -0.047  0.058  0.094
 H          0.210 -0.177 -0.218    0.219 -0.351  0.180    0.006 -0.250  0.268
 H         -0.289  0.075  0.056    0.229 -0.400  0.189   -0.016  0.428 -0.427
 C          0.017  0.041  0.103    0.008 -0.052  0.006    0.011 -0.014 -0.065
 H         -0.203 -0.027 -0.134    0.182  0.048 -0.038    0.132  0.014  0.099
 H         -0.215 -0.167 -0.131   -0.131  0.053  0.059    0.176  0.109  0.078
 H          0.429  0.039 -0.104   -0.042  0.072 -0.018   -0.146 -0.025  0.024
 O         -0.030  0.042 -0.016   -0.016  0.010 -0.040    0.024 -0.022  0.002
 O          0.001 -0.008  0.001    0.001 -0.000  0.000   -0.001  0.005  0.000
 O         -0.002  0.004 -0.002   -0.000  0.001  0.000    0.000 -0.002 -0.001
 H          0.001  0.014 -0.018   -0.003  0.004 -0.008    0.004 -0.013  0.020
 TransDip   0.026 -0.052 -0.065   -0.047  0.047  0.019   -0.052  0.033  0.089

 Mode:                28                     29                     30
 Frequency:      1256.16                1270.58                1301.74
 Force Cnst:      1.2761                 2.0680                 1.1011
 Red. Mass:       1.3726                 2.1742                 1.1029
 IR Active:          YES                    YES                    YES
 IR Intens:       31.633                 93.023                 73.920
 Raman Active:       YES                    YES                    YES
               X      Y      Z        X      Y      Z        X      Y      Z
 C         -0.018  0.069 -0.055    0.034 -0.066  0.066   -0.009 -0.004 -0.016
 C          0.012  0.033 -0.003    0.021 -0.005  0.015   -0.006 -0.004 -0.006
 O          0.016 -0.039  0.011   -0.016  0.032 -0.015    0.001 -0.001  0.001
 O         -0.008  0.003  0.000   -0.007 -0.000  0.003    0.000  0.001  0.001
 C         -0.060  0.071 -0.058   -0.080 -0.082  0.043    0.003  0.003  0.020
 H          0.037 -0.433  0.375    0.048  0.018 -0.092   -0.034  0.108 -0.057
 H          0.014 -0.224  0.191   -0.074  0.495 -0.412    0.042 -0.127  0.089
 C          0.060  0.015 -0.056    0.202  0.116 -0.128    0.025  0.011 -0.009
 H         -0.004 -0.433  0.441   -0.139  0.060  0.140    0.027 -0.116  0.079
 H          0.040 -0.271  0.234    0.067  0.015 -0.031   -0.049  0.108 -0.071
 C         -0.001  0.002  0.011   -0.008 -0.050  0.055    0.005 -0.005  0.004
 H         -0.105 -0.039 -0.024   -0.193 -0.086 -0.158   -0.039 -0.021 -0.015
 H         -0.137 -0.006 -0.026   -0.508  0.010 -0.011   -0.065  0.006 -0.003
 H         -0.062  0.017  0.028   -0.228  0.174  0.052   -0.045  0.021  0.015
 O          0.010 -0.018  0.033   -0.038 -0.010  0.007   -0.007  0.003 -0.001
 O          0.001 -0.003  0.000   -0.001 -0.002 -0.000   -0.015  0.046 -0.001
 O          0.000  0.001  0.003    0.000  0.001  0.002   -0.003 -0.021 -0.047
 H         -0.014  0.021 -0.039   -0.012  0.024 -0.043    0.308 -0.431  0.789
 TransDip  -0.062  0.150 -0.079    0.233  0.051 -0.196    0.118 -0.058  0.242

 Mode:                31                     32                     33
 Frequency:      1306.78                1373.07                1388.05
 Force Cnst:      1.1568                 1.9215                 1.9737
 Red. Mass:       1.1497                 1.7299                 1.7387
 IR Active:          YES                    YES                    YES
 IR Intens:       38.791                 58.424                155.177
 Raman Active:       YES                    YES                    YES
               X      Y      Z        X      Y      Z        X      Y      Z
 C         -0.025 -0.029 -0.039   -0.005 -0.098  0.078   -0.004 -0.029  0.029
 C         -0.019 -0.012 -0.024   -0.015 -0.063  0.061   -0.016 -0.042  0.051
 O          0.005 -0.002  0.004   -0.030  0.065 -0.023   -0.019  0.039 -0.013
 O         -0.001  0.004  0.005    0.034 -0.012 -0.025    0.028 -0.010 -0.021
 C          0.021  0.011  0.054   -0.001  0.119 -0.103    0.029  0.066 -0.068
 H         -0.109  0.394 -0.235   -0.021  0.290 -0.341   -0.002  0.094 -0.134
 H          0.143 -0.380  0.263    0.095  0.224 -0.185    0.041  0.095 -0.071
 C          0.036  0.048 -0.016    0.005 -0.004 -0.013   -0.101 -0.060  0.059
 H          0.089 -0.326  0.217    0.051 -0.373  0.390    0.040 -0.060  0.062
 H         -0.165  0.378 -0.262   -0.067 -0.231  0.200   -0.043 -0.147  0.115
 C          0.005 -0.017  0.004   -0.075  0.005  0.005    0.164  0.022 -0.026
 H         -0.059 -0.036 -0.030    0.265  0.151  0.075   -0.540 -0.293 -0.134
 H         -0.101  0.034  0.022    0.204 -0.074  0.004   -0.242  0.105 -0.051
 H         -0.097  0.070  0.015    0.275 -0.144 -0.094   -0.533  0.223  0.212
 O          0.002 -0.011  0.007    0.014 -0.012  0.023    0.018  0.002  0.001
 O          0.005 -0.015  0.001   -0.000  0.001  0.000   -0.000 -0.001 -0.001
 O          0.001  0.007  0.017   -0.000 -0.000 -0.002    0.000  0.000  0.000
 H         -0.101  0.143 -0.263    0.010 -0.014  0.025   -0.005  0.005 -0.010
 TransDip  -0.027  0.125 -0.153    0.093 -0.191  0.122   -0.310 -0.174  0.181

 Mode:                34                     35                     36
 Frequency:      1435.91                1442.37                1449.16
 Force Cnst:      2.1047                 1.8401                 1.5433
 Red. Mass:       1.7325                 1.5012                 1.2473
 IR Active:          YES                    YES                    YES
 IR Intens:      159.078                182.826                 17.398
 Raman Active:       YES                    YES                    YES
               X      Y      Z        X      Y      Z        X      Y      Z
 C          0.047  0.024 -0.063   -0.009 -0.056  0.060    0.001  0.036 -0.033
 C         -0.056 -0.091  0.140    0.041  0.073 -0.109   -0.024 -0.045  0.068
 O         -0.034  0.073 -0.027    0.026 -0.055  0.020   -0.017  0.034 -0.013
 O          0.071 -0.022 -0.056   -0.052  0.016  0.041    0.031 -0.010 -0.025
 C         -0.059  0.010  0.045   -0.048  0.056  0.001    0.013 -0.025  0.008
 H         -0.093  0.166  0.336   -0.018  0.090 -0.100    0.026 -0.104  0.045
 H         -0.381 -0.128  0.036    0.013  0.105 -0.070    0.036 -0.050  0.039
 C          0.020  0.004 -0.006   -0.022 -0.007  0.003    0.002  0.004 -0.024
 H          0.124 -0.330 -0.405    0.156 -0.415 -0.344   -0.064  0.168  0.111
 H          0.528  0.096 -0.033    0.532 -0.002  0.043   -0.196 -0.006 -0.006
 C         -0.004 -0.005 -0.010   -0.011 -0.029  0.007   -0.045 -0.046  0.036
 H         -0.002 -0.036  0.150   -0.122 -0.038 -0.181   -0.116  0.030 -0.442
 H         -0.080  0.097  0.061    0.247  0.126  0.189    0.465  0.055  0.224
 H          0.075 -0.036 -0.031   -0.002  0.369 -0.163   -0.005  0.580 -0.250
 O         -0.009  0.004 -0.003    0.011 -0.004  0.008    0.015 -0.009  0.014
 O          0.001 -0.001  0.000   -0.000  0.000 -0.001   -0.001 -0.000  0.000
 O          0.000  0.000  0.001   -0.000 -0.000 -0.001   -0.000 -0.000 -0.000
 H         -0.007  0.009 -0.015    0.006 -0.010  0.017    0.004 -0.006  0.009
 TransDip  -0.070 -0.219  0.332    0.114  0.218 -0.356   -0.111 -0.001  0.074

 Mode:                37                     38                     39
 Frequency:      1460.54                1463.90                1585.09
 Force Cnst:      1.4734                 1.3371                14.9600
 Red. Mass:       1.1723                 1.0590                10.1058
 IR Active:          YES                    YES                    YES
 IR Intens:       44.688                 18.160               1242.198
 Raman Active:       YES                    YES                    YES
               X      Y      Z        X      Y      Z        X      Y      Z
 C         -0.059  0.051  0.002   -0.024  0.020  0.003   -0.028  0.052 -0.014
 C         -0.005 -0.044  0.044    0.002 -0.015  0.010    0.561 -0.498 -0.162
 O         -0.016  0.031 -0.011   -0.005  0.010 -0.003   -0.143  0.225 -0.045
 O          0.015 -0.003 -0.013    0.001  0.000 -0.001   -0.245  0.123  0.154
 C         -0.027 -0.014  0.035    0.003 -0.005  0.009    0.014  0.006 -0.015
 H          0.180 -0.416 -0.374    0.082 -0.172 -0.176   -0.070 -0.030  0.301
 H          0.599  0.020  0.067    0.259  0.017  0.021   -0.235 -0.220  0.182
 C          0.004  0.013  0.005    0.012 -0.017 -0.014   -0.012 -0.001  0.009
 H          0.055 -0.133 -0.215   -0.015  0.051  0.008    0.020  0.003  0.010
 H          0.260  0.078 -0.045   -0.046 -0.018  0.019   -0.007 -0.021 -0.001
 C         -0.000  0.012  0.013    0.002 -0.025 -0.041    0.003  0.000  0.000
 H          0.087  0.086 -0.148   -0.156 -0.211  0.507    0.004  0.005 -0.019
 H          0.008 -0.201 -0.165   -0.151  0.493  0.366    0.009 -0.011 -0.009
 H         -0.100 -0.100  0.102    0.280  0.093 -0.207   -0.013  0.003  0.006
 O         -0.002  0.001 -0.003   -0.008  0.005 -0.005    0.002 -0.000 -0.002
 O         -0.000 -0.000  0.001   -0.000 -0.000 -0.000    0.000 -0.000  0.000
 O          0.000 -0.000  0.001   -0.000 -0.000  0.000    0.000  0.000  0.000
 H         -0.002  0.003 -0.006    0.001  0.000  0.001   -0.000  0.000 -0.001
 TransDip   0.143 -0.159 -0.019    0.084 -0.009  0.107    0.806 -0.766 -0.197

 Mode:                40                     41                     42
 Frequency:      1743.10                3045.88                3063.30
 Force Cnst:     17.7324                 5.8326                 5.7457
 Red. Mass:       9.9054                 1.0671                 1.0392
 IR Active:          YES                    YES                    YES
 IR Intens:      447.141                 14.578                  3.586
 Raman Active:       YES                    YES                    YES
               X      Y      Z        X      Y      Z        X      Y      Z
 C         -0.002  0.003 -0.011   -0.001  0.005  0.005    0.016 -0.001 -0.003
 C          0.001  0.003 -0.004    0.001  0.000 -0.001    0.000 -0.000  0.000
 O          0.001 -0.004  0.002   -0.000 -0.000  0.000   -0.000  0.000 -0.000
 O         -0.001 -0.001  0.003   -0.000  0.000  0.000   -0.000  0.000 -0.000
 C         -0.023  0.044 -0.055    0.025 -0.043 -0.053    0.001 -0.004 -0.005
 H         -0.004 -0.009 -0.001    0.003  0.001  0.003   -0.185 -0.057 -0.043
 H          0.023 -0.031  0.020    0.006 -0.057 -0.069   -0.003  0.067  0.080
 C          0.469 -0.305  0.456   -0.000 -0.001 -0.000    0.002  0.000 -0.001
 H          0.010 -0.148  0.226   -0.292 -0.093 -0.064   -0.016 -0.005 -0.003
 H         -0.030  0.008 -0.011   -0.004  0.610  0.715   -0.001  0.051  0.060
 C         -0.048  0.011 -0.022    0.003  0.002  0.001   -0.048 -0.011 -0.012
 H         -0.115 -0.007 -0.140   -0.012  0.026  0.007    0.196 -0.418 -0.093
 H          0.300 -0.036  0.056   -0.005 -0.022  0.027    0.077  0.296 -0.356
 H         -0.168  0.129 -0.008   -0.023 -0.021 -0.049    0.277  0.250  0.599
 O         -0.296  0.195 -0.282    0.000 -0.000  0.000    0.000 -0.000  0.000
 O          0.000 -0.005  0.000   -0.000 -0.000 -0.000    0.000  0.000 -0.000
 O          0.001 -0.002  0.000    0.000 -0.000 -0.000    0.000 -0.000 -0.000
 H         -0.048  0.078 -0.093   -0.000  0.001  0.000   -0.000  0.000  0.000
 TransDip   0.436 -0.287  0.432    0.050 -0.109 -0.024    0.005 -0.059 -0.014

 Mode:                43                     44                     45
 Frequency:      3069.01                3111.16                3128.10
 Force Cnst:      5.8885                 6.2550                 6.3325
 Red. Mass:       1.0611                 1.0968                 1.0984
 IR Active:          YES                    YES                    YES
 IR Intens:       28.274                  7.375                 37.823
 Raman Active:       YES                    YES                    YES
               X      Y      Z        X      Y      Z        X      Y      Z
 C         -0.064  0.010  0.021   -0.031 -0.048 -0.054   -0.022 -0.028 -0.030
 C         -0.001  0.001 -0.001    0.000 -0.001 -0.001   -0.000 -0.000  0.000
 O          0.000 -0.000  0.000    0.000  0.000  0.000    0.000  0.000 -0.000
 O          0.000 -0.000 -0.000   -0.000  0.000  0.000    0.000 -0.000  0.000
 C          0.003  0.003  0.004    0.038  0.015  0.011   -0.064 -0.034 -0.029
 H          0.744  0.231  0.176    0.430  0.126  0.088    0.293  0.084  0.064
 H          0.020 -0.351 -0.419   -0.051  0.463  0.563   -0.028  0.243  0.292
 C         -0.000  0.000  0.001    0.001 -0.000  0.001   -0.001  0.000 -0.002
 H         -0.036 -0.010 -0.005   -0.466 -0.134 -0.080    0.773  0.219  0.134
 H          0.002 -0.031 -0.037    0.007 -0.052 -0.067   -0.013  0.189  0.223
 C         -0.011 -0.005 -0.003   -0.001 -0.002 -0.001   -0.000 -0.002  0.002
 H          0.039 -0.084 -0.020   -0.005  0.009  0.002   -0.000 -0.001  0.001
 H          0.021  0.074 -0.090    0.002  0.005 -0.007    0.006  0.021 -0.024
 H          0.069  0.063  0.150    0.009  0.008  0.020   -0.001 -0.001 -0.003
 O         -0.000  0.000 -0.000   -0.000  0.000 -0.000    0.001 -0.000  0.000
 O          0.000  0.000  0.000   -0.000 -0.000 -0.000    0.000 -0.000 -0.000
 O          0.000  0.000  0.000   -0.000 -0.000 -0.000   -0.000  0.000 -0.000
 H          0.000 -0.000  0.000    0.000 -0.000  0.000    0.000 -0.000 -0.000
 TransDip  -0.159  0.057 -0.024    0.036 -0.076 -0.021   -0.161 -0.098 -0.055

 Mode:                46                     47                     48
 Frequency:      3140.88                3169.85                3739.34
 Force Cnst:      6.3773                 6.5435                 8.7979
 Red. Mass:       1.0972                 1.1053                 1.0679
 IR Active:          YES                    YES                    YES
 IR Intens:        8.510                 18.587                123.966
 Raman Active:       YES                    YES                    YES
               X      Y      Z        X      Y      Z        X      Y      Z
 C          0.001  0.000  0.001   -0.002 -0.001 -0.001   -0.000  0.000 -0.000
 C          0.000  0.000 -0.000   -0.000 -0.000  0.000    0.000  0.000 -0.000
 O         -0.000 -0.000  0.000   -0.000  0.000 -0.000   -0.000 -0.000  0.000
 O         -0.000  0.000  0.000    0.000  0.000 -0.000    0.000 -0.000 -0.000
 C         -0.001 -0.001 -0.001   -0.002 -0.001 -0.000    0.000 -0.000  0.000
 H         -0.017 -0.006 -0.003    0.023  0.006  0.005    0.000  0.000 -0.000
 H          0.001  0.000 -0.001   -0.001  0.006  0.007    0.000 -0.000  0.000
 C         -0.000 -0.001 -0.001   -0.002  0.001 -0.002   -0.002  0.001 -0.001
 H          0.018  0.005  0.003    0.017  0.005  0.003    0.001  0.000  0.000
 H         -0.000  0.009  0.011   -0.000  0.003  0.003    0.000 -0.001 -0.001
 C          0.008 -0.050 -0.075   -0.013  0.076 -0.053    0.000 -0.000  0.000
 H         -0.300  0.601  0.115    0.240 -0.484 -0.114    0.000 -0.000 -0.000
 H         -0.056 -0.217  0.238   -0.144 -0.510  0.612   -0.000 -0.000  0.000
 H          0.265  0.224  0.547    0.065  0.073  0.139    0.000 -0.000 -0.000
 O          0.000 -0.000  0.000    0.000 -0.000  0.001    0.001 -0.000  0.001
 O         -0.000 -0.000 -0.000    0.000  0.000  0.000   -0.000 -0.000  0.000
 O         -0.000  0.000 -0.000   -0.000  0.000  0.000    0.012 -0.054 -0.031
 H          0.000  0.000  0.000    0.000 -0.000 -0.000   -0.182  0.852  0.486
 TransDip  -0.001 -0.021 -0.091    0.028  0.091 -0.100   -0.021  0.278  0.223

 STANDARD THERMODYNAMIC QUANTITIES AT   298.15 K  AND     1.00 ATM

   This Molecule has  0 Imaginary Frequencies
   Zero point vibrational energy:       82.428 kcal/mol

   Atom    1 Element C  Has Mass   12.00000
   Atom    2 Element C  Has Mass   12.00000
   Atom    3 Element O  Has Mass   15.99491
   Atom    4 Element O  Has Mass   15.99491
   Atom    5 Element C  Has Mass   12.00000
   Atom    6 Element H  Has Mass    1.00783
   Atom    7 Element H  Has Mass    1.00783
   Atom    8 Element C  Has Mass   12.00000
   Atom    9 Element H  Has Mass    1.00783
   Atom   10 Element H  Has Mass    1.00783
   Atom   11 Element C  Has Mass   12.00000
   Atom   12 Element H  Has Mass    1.00783
   Atom   13 Element H  Has Mass    1.00783
   Atom   14 Element H  Has Mass    1.00783
   Atom   15 Element O  Has Mass   15.99491
   Atom   16 Element O  Has Mass   15.99491
   Atom   17 Element O  Has Mass   15.99491
   Atom   18 Element H  Has Mass    1.00783
   Molecular Mass:   148.037190 amu
   Principal axes and moments of inertia in amu*Bohr^2:
                             1           2           3
    Eigenvalues --      973.66856  2896.85859  3269.47147
          X              -0.00597     0.03779     0.99927
          Y              -0.41141     0.91070    -0.03690
          Z               0.91143     0.41133    -0.01011
   Rotational Symmetry Number is   1
   The Molecule is an Asymmetric Top
   Translational Enthalpy:        0.889 kcal/mol
   Rotational Enthalpy:           0.889 kcal/mol
   Vibrational Enthalpy:         88.565 kcal/mol
   gas constant (RT):             0.592 kcal/mol
   Translational Entropy:        40.887  cal/mol.K
   Rotational Entropy:           30.601  cal/mol.K
   Vibrational Entropy:          43.105  cal/mol.K

   Total Enthalpy:               90.935 kcal/mol
   Total Entropy:               114.593  cal/mol.K
Archival summary:
1\1\c5-78\FREQ\ProcedureUnspecified\BasisUnspecified\558(2-,1)\leeping\FriMar2021:59:462020FriMar2021:59:462020\0\\#,FREQ,ProcedureUnspecified,BasisUnspecified,\\-2,1\O\C,1,1.22429\C,2,1.50527,1,120.901\H,3,1.09073,2,110.196,1,-3.21881,0\H,3,1.09272,2,109.358,1,117.584,0\H,3,1.09538,2,109.723,1,-124.674,0\C,2,1.51051,1,120.615,3,-174.598,0\H,7,1.09257,2,107.808,1,-21.3672,0\H,7,1.09922,2,105.6,1,92.5208,0\C,7,1.52403,2,115.435,1,-146.303,0\H,10,1.09457,7,109.471,2,57.1032,0\H,10,1.09581,7,110.785,2,-59.9657,0\C,10,1.53783,7,114.911,2,179.104,0\O,13,1.25702,10,118.81,7,6.31461,0\O,13,1.26096,10,115.645,7,-174.159,0\H,1,2.02445,2,101.397,3,-79.8648,0\O,16,0.968136,1,155.909,2,-20.3206,0\O,17,1.46878,16,101.431,1,-1.6667,0\\\@

 Total job time:  36529.90s(wall), 508213.84s(cpu) 
 Fri Mar 20 21:59:46 2020

        *************************************************************
        *                                                           *
        *  Thank you very much for using Q-Chem.  Have a nice day.  *
        *                                                           *
        *************************************************************


