21   
From 2-transition-freq.out: Frame 1 / 127, Energy=    -722.8355840485
C        0.6381980000    0.5123416232   -4.0586647825
O        0.2212668836    1.3843063105   -4.8658846195
O        1.2700423394   -0.5298799298   -4.3664933623
C        0.3229114265    0.7725954613   -2.5700708610
H       -0.7677171347    0.8234385484   -2.4879159378
H        0.7007147713    1.7679059994   -2.3210138847
C        0.8932718065   -0.2579578626   -1.6321983513
H        1.9817546330   -0.2865321113   -1.6272830667
H        0.4798647552   -1.2570943399   -1.7656600979
C        0.5326525712    0.0155636409    0.1020296960
C       -1.0195480600   -0.0775633749    0.1434638976
H       -1.4890219698    0.7318856319   -0.4184782495
H       -1.3152608767    0.0063822192    1.1944115106
H       -1.3600612900   -1.0423009190   -0.2400765223
O        1.1231090672   -1.0021914088    0.6976099532
O        0.9925269336    1.2315213053    0.2485195574
H        1.0761129082   -0.7725570247    2.4054629085
O        1.0514041101   -0.6679491423    3.3898450945
H        0.1880338572   -0.2326693310    3.5923686091
O       -1.3083921039    0.5866075320    3.9940225971
O       -1.0691283943    1.8413943303    3.6567128027
