
Running Job 1 of 1 qc-freq2.in
qchem qc-freq2.in_17051.0 /scratch/leeping/1862741/qc-freq2.d/ 1
/home/leeping/opt/qchem/5.0.2-openmp/exe/qcprog.exe_s qc-freq2.in_17051.0 /scratch/leeping/1862741/qc-freq2.d/
Check license passed

                  Welcome to Q-Chem
     A Quantum Leap Into The Future Of Chemistry


 Q-Chem 5.0, Q-Chem, Inc., Pleasanton, CA (2017)

 Yihan Shao,  Zhengting Gan,  E. Epifanovsky,  A. T. B. Gilbert,  M. Wormit,  
 J. Kussmann,  A. W. Lange,  A. Behn,  Jia Deng,  Xintian Feng,  D. Ghosh,  
 M. Goldey,  P. R. Horn,  L. D. Jacobson,  I. Kaliman,  T. Kus,  A. Landau,  
 Jie Liu,  E. I. Proynov,  R. M. Richard,  R. P. Steele,  E. J. Sundstrom,  
 H. L. Woodcock III,  P. M. Zimmerman,  D. Zuev,  B. Albrecht,  E. Alguire,  
 S. A. Baeppler,  D. Barton,  Z. Benda,  Y. A. Bernard,  E. J. Berquist,  
 K. B. Bravaya,  H. Burton,  D. Casanova,  Chun-Min Chang,  Yunqing Chen,  
 A. Chien,  K. D. Closser,  M. P. Coons,  S. Dasgupta,  A. L. Dempwolff,  
 M. Diedenhofen,  Hainam Do,  R. G. Edgar,  Po-Tung Fang,  S. Fatehi,  
 Qingguo Feng,  J. Fosso-Tande,  Qinghui Ge,  A. Ghysels,  G. Gidofalvi,  
 J. Gomes,  J. Gonthier,  A. Gunina,  M. W. D. Hanson-Heine,  
 P. H. P. Harbach,  A. W. Hauser,  J. E. Herr,  E. G. Hohenstein,  
 Z. C. Holden,  Kerwin Hui,  T.-C. Jagau,  Hyunjun Ji,  B. Kaduk,  
 K. Khistyaev,  Jaehoon Kim,  P. Klunzinger,  K. Koh,  D. Kosenkov,  
 L. Koulias,  T. Kowalczyk,  C. M. Krauter,  A. Kunitsa,  Ka Un Lao,  
 A. Laurent,  K. V. Lawler,  Joonho Lee,  D. Lefrancois,  S. Lehtola,  
 D. S. Levine,  Yi-Pei Li,  You-Sheng Lin,  Fenglai Liu,  E. Livshits,  
 A. Luenser,  P. Manohar,  E. Mansoor,  S. F. Manzer,  Shan-Ping Mao,  
 Yuezhi Mao,  N. Mardirossian,  A. V. Marenich,  T. Markovich,  
 L. A. Martinez-Martinez,  S. A. Maurer,  N. J. Mayhall,  S. C. McKenzie,  
 J.-M. Mewes,  A. F. Morrison,  J. W. Mullinax,  K. Nanda,  
 T. S. Nguyen-Beck,  R. Olivares-Amaya,  J. A. Parkhill,  T. M. Perrine,  
 F. Plasser,  S. Prager,  A. Prociuk,  E. Ramos,  D. R. Rehn,  F. Rob,  
 M. Schneider,  N. Sergueev,  S. M. Sharada,  S. Sharma,  D. W. Small,  
 T. Stauch,  T. Stein,  Yu-Chuan Su,  A. J. W. Thom,  A. Tkatchenko,  
 T. Tsuchimochi,  L. Vogt,  O. Vydrov,  M. A. Watson,  J. Wenzel,  
 M. de Wergifosse,  T. A. Wesolowski,  A. White,  J. Witte,  A. Yamada,  
 Jun Yang,  K. Yao,  S. Yeganeh,  S. R. Yost,  Zhi-Qiang You,  A. Zech,  
 Igor Ying Zhang,  Xing Zhang,  Yan Zhao,  Ying Zhu,  B. R. Brooks,  
 G. K. L. Chan,  C. J. Cramer,  M. S. Gordon,  W. J. Hehre,  A. Klamt,  
 M. W. Schmidt,  C. D. Sherrill,  D. G. Truhlar,  A. Aspuru-Guzik,  R. Baer,  
 A. T. Bell,  N. A. Besley,  Jeng-Da Chai,  R. A. DiStasio Jr.,  A. Dreuw,  
 B. D. Dunietz,  T. R. Furlani,  Chao-Ping Hsu,  Yousung Jung,  Jing Kong,  
 D. S. Lambrecht,  WanZhen Liang,  C. Ochsenfeld,  V. A. Rassolov,  
 L. V. Slipchenko,  J. E. Subotnik,  T. Van Voorhis,  J. M. Herbert,  
 A. I. Krylov,  P. M. W. Gill,  M. Head-Gordon

 Contributors to earlier versions of Q-Chem not listed above: 
 R. D. Adamson,  B. Austin,  J. Baker,  G. J. O. Beran,  K. Brandhorst,  
 S. T. Brown,  E. F. C. Byrd,  A. K. Chakraborty,  C.-L. Cheng,  
 Siu Hung Chien,  D. M. Chipman,  D. L. Crittenden,  H. Dachsel,  
 R. J. Doerksen,  A. D. Dutoi,  L. Fusti-Molnar,  W. A. Goddard III,  
 A. Golubeva-Zadorozhnaya,  S. R. Gwaltney,  G. Hawkins,  A. Heyden,  
 S. Hirata,  G. Kedziora,  F. J. Keil,  C. Kelley,  Jihan Kim,  R. A. King,  
 R. Z. Khaliullin,  P. P. Korambath,  W. Kurlancheek,  A. M. Lee,  M. S. Lee,  
 S. V. Levchenko,  Ching Yeh Lin,  D. Liotard,  R. C. Lochan,  I. Lotan,  
 P. E. Maslen,  N. Nair,  D. P. O'Neill,  D. Neuhauser,  E. Neuscamman,  
 C. M. Oana,  R. Olson,  B. Peters,  R. Peverati,  P. A. Pieniazek,  
 Y. M. Rhee,  J. Ritchie,  M. A. Rohrdanz,  E. Rosta,  N. J. Russ,  
 H. F. Schaefer III,  N. E. Schultz,  N. Shenvi,  A. C. Simmonett,  A. Sodt,  
 D. Stuck,  K. S. Thanthiriwatte,  V. Vanovschi,  Tao Wang,  A. Warshel,  
 C. F. Williams,  Q. Wu,  X. Xu,  W. Zhang

 Please cite Q-Chem as follows:
 Y. Shao et al., Mol. Phys. 113, 184-215 (2015)
 DOI: 10.1080/00268976.2014.952696

 Q-Chem 5.0.2 for Intel X86 EM64T Linux

 Parts of Q-Chem use Armadillo 5.200.1 (Boston Tea Smuggler).
 http://arma.sourceforge.net/

 Q-Chem begins on Fri Mar 20 16:38:15 2020  

Host: 
0

     Scratch files written to /scratch/leeping/1862741/qc-freq2.d//
 Dec517 15110_ 26548  26544 5633   
Processing $rem in /home/leeping/opt/qchem/5.0.2-openmp/config/preferences.
 MEM_STATIC 2000
 MEM_TOTAL  8000
 SYMMETRY   OFF
 SYM_IGNORE TRUE 
Symmetry turned off for PCM/SM12/SMD calculation

Checking the input file for inconsistencies... 	...done.

--------------------------------------------------------------
User input:
--------------------------------------------------------------
$molecule
-2 1
C       -2.9552780808    0.0727266929    0.5881341030
H       -3.4088519667    0.3583754043   -0.3649762984
H       -2.7566480762   -1.0008567032    0.5816067761
H       -3.6542393835    0.2969114344    1.3987367828
C       -1.6496156004    0.8293090544    0.8378800810
C        1.0005611796   -0.8911134276   -0.0671632513
H        1.1648288490   -1.9608241569    0.1082728381
H        1.1985404572   -0.3432316776    0.8589180944
C        1.8918823912   -0.3983170581   -1.2031786494
H        1.6640726560   -0.9677414715   -2.1090934018
H        1.6934380326    0.6612863184   -1.3824057812
C        3.3663214478   -0.5921084372   -0.8194351357
O        3.9177251408   -1.6689298837   -1.1693862454
O        3.9085061929    0.3255625968   -0.1489596682
O       -0.3870973251   -0.8057424425   -0.3731709812
O       -0.7627910015    0.5696873373   -0.3787585602
O       -1.9211065808    2.2229064541    0.5810653561
O       -1.0453193446    0.6086275895    1.9579478694
H       -1.2467415545    2.6874196576    1.0941543601
$end

$rem
jobtype               freq
method                wb97x-v
basis                 def2-tzvpd
symmetry              off
sym_ignore            true
incdft                false
incfock               0
!scf_algorithm        diis_gdm
scf_convergence       8
thresh                14
!purecart             112
max_scf_cycles        1000
geom_opt_max_cycles   500
geom_opt_dmax         100
geom_opt_tol_gradient 10
solvent_method        pcm
ideriv                1
rpath_tol_displacement 1000
rpath_max_cycles      100
rpath_direction       1
!scf_guess            read
scf_guess             read
$end

$pcm
theory              cosmo
method              iswig
Radii               bondi
vdwScale            1.20
hpoints             110
heavypoints         110
$end

$solvent
dielectric 78.400000
$end

--------------------------------------------------------------
 ----------------------------------------------------------------
             Standard Nuclear Orientation (Angstroms)
    I     Atom           X                Y                Z
 ----------------------------------------------------------------
    1      C      -2.9552780808     0.0727266929     0.5881341030
    2      H      -3.4088519667     0.3583754043    -0.3649762984
    3      H      -2.7566480762    -1.0008567032     0.5816067761
    4      H      -3.6542393835     0.2969114344     1.3987367828
    5      C      -1.6496156004     0.8293090544     0.8378800810
    6      C       1.0005611796    -0.8911134276    -0.0671632513
    7      H       1.1648288490    -1.9608241569     0.1082728381
    8      H       1.1985404572    -0.3432316776     0.8589180944
    9      C       1.8918823912    -0.3983170581    -1.2031786494
   10      H       1.6640726560    -0.9677414715    -2.1090934018
   11      H       1.6934380326     0.6612863184    -1.3824057812
   12      C       3.3663214478    -0.5921084372    -0.8194351357
   13      O       3.9177251408    -1.6689298837    -1.1693862454
   14      O       3.9085061929     0.3255625968    -0.1489596682
   15      O      -0.3870973251    -0.8057424425    -0.3731709812
   16      O      -0.7627910015     0.5696873373    -0.3787585602
   17      O      -1.9211065808     2.2229064541     0.5810653561
   18      O      -1.0453193446     0.6086275895     1.9579478694
   19      H      -1.2467415545     2.6874196576     1.0941543601
 ----------------------------------------------------------------
 Nuclear Repulsion Energy =   636.7253655346 hartrees
 There are       44 alpha and       44 beta electrons
 Requested basis set is def2-TZVPD
 There are 189 shells and 497 basis functions

 Total QAlloc Memory Limit   8000 MB
 Mega-Array Size      1956 MB
 MEM_STATIC part      2000 MB
 Discretize the solute cavity surface with Lebedev spheres
	Using 110 Lebedev grid points for each H atom
	Using 110 Lebedev grid points for other atoms
	Atomic van der Waals radii will be scaled by 1.20
 Remove points where switching function is < 1.0e-08
 Keep 1137 surface tesserae and discard 953 interior tesserae
 Molecular Surface Area = 203.058 Angst**2
 A cutoff of  1.0D-14 yielded  15844 shell pairs
 There are    109452 function pairs (    139342 Cartesian)
 
 -------------------------------------------------------
 OpenMP Integral Computing Module                       
 Release: version 1.0, May 2013, Q-Chem Inc. Pittsburgh 
 -------------------------------------------------------
 Integral Job Info:
 Integral job number is                      11
 Integral operator is                         1
 short-range coefficients              16700000
 long-range coefficients              100000000
 Omega coefficients                         300
 if combine SR and LR in K                    1
 Integral screening is                        0
 Integral computing path is                   2
 max size of driver memory is            800000
 size of driver memory is                776718
 size of scratch memory is              4473992
 max col of scratch BK array              10000
 max len of scratch array in speh3          662
 max len of scratch index in speh4           32
 max int batch size is                      520
 min int batch size is                       52
 fixed nKL is                                52
 max L of basis functions is                  3
 order of int derivative is                   0
 number of shells is                        189
 number of basis is                         563
 number of cartesian basis is               563
 number of contracted shell pairs         15844
 number of primitive shell pairs          31772
 maxK2 (contraction) of shell pair           36
 max number of K2 of shell pair               1
 max number of CS2 of shell pair           2621
 max number of PS2 of shell pair           3624
 mem total for path MDJ                  818596
 -------------------------------------------------------
 Smallest overlap matrix eigenvalue = 5.33E-06
 Guess MOs from SCF MO coefficient file
 Reading MOs from coefficient file
 Reading MOs from coefficient file
 Long-range K will be added via erf
 Coulomb attenuation parameter = 0.3 bohr**(-1)
 A restricted hybrid HF-DFT SCF calculation will be
 performed using Pulay DIIS extrapolation
 Polarizable Continuum solvation model will be applied
 Exchange:     0.1670 Hartree-Fock + 1.0000 wB97X-V + LR-HF
 Correlation:  1.0000 wB97X-V
 Using SG-2 standard quadrature grid
 Nonlocal Correlation:  VV10 with C = 0.0100 and b = 6.00
 Grid used for NLC:  SG-1 standard quadrature
 SCF converges when DIIS error is below 1.0E-08
Using Q-Chem read-in guess as SCF_GUESS READ specified.

 using 16 threads for integral computing
 -------------------------------------------------------
 OpenMP Integral computing Module                
 Release: version 1.0, May 2013, Q-Chem Inc. Pittsburgh 
 -------------------------------------------------------
 using 16 threads for integral computing
 -------------------------------------------------------
 OpenMP Integral computing Module                
 Release: version 1.0, May 2013, Q-Chem Inc. Pittsburgh 
 -------------------------------------------------------
 -------------------------------------------------------
 OpenMP BLAS3 based DFT computing Module                
 Release: version 1.0, May 2013, Q-Chem Inc. Pittsburgh 
 -------------------------------------------------------
 -------------------------------------------------------
 OpenMP BLAS3 based DFT computing Module                
 Release: version 1.0, May 2013, Q-Chem Inc. Pittsburgh 
 -------------------------------------------------------
 -------------------------------------------------------
 OpenMP BLAS3 based DFT computing Module                
 Release: version 1.0, May 2013, Q-Chem Inc. Pittsburgh 
 -------------------------------------------------------
 ---------------------------------------
  Cycle       Energy         DIIS Error
 ---------------------------------------
    1    -646.6652192745      3.10E-04
    2    -646.9594290284      3.40E-04
    3    -646.9643274970      1.54E-04
    4    -646.9651060842      1.13E-04
    5    -646.9655769934      8.68E-05
    6    -646.9658300439      6.92E-05
    7    -646.9660004179      5.43E-05
    8    -646.9661037067      4.28E-05
    9    -646.9661865316      3.07E-05
   10    -646.9662213862      2.38E-05
   11    -646.9662448240      1.77E-05
   12    -646.9662559303      1.39E-05
   13    -646.9662633906      1.06E-05
   14    -646.9662678585      7.95E-06
   15    -646.9662699339      6.38E-06
   16    -646.9662713414      5.04E-06
   17    -646.9662736816      3.44E-09 Convergence criterion met
 ---------------------------------------

************** Final PCM Free Energy Summary **************
 G_electrostatic  =      -0.30105616 hartree =    -188.91559407 kcal/mol
 G_cavitation     =       0.00000000 hartree =       0.00000000 kcal/mol
 G_dispersion     =       0.00000000 hartree =       0.00000000 kcal/mol
 G_repulsion      =       0.00000000 hartree =       0.00000000 kcal/mol
 --------------------------------------------------
 Non-electrostatic Free Energy =       0.00000000 hartree =       0.00000000 kcal/mol
 Total                         =      -0.30105616 hartree =    -188.91559407 kcal/mol
 --------------------------------------------------
 SCF Energy (H0 + V/2)                       =    -646.96627368 
 Solute Internal Energy (H0)                 =    -646.66521752 
 Total Free Energy (H0 + V/2 + non-elec)     =    -646.96627368 hartree
                                             = -405977.46415281 kcal/mol
***********************************************************

 SCF time:  CPU 5198.76 s  wall 369.50 s
 SCF   energy in the final basis set = -646.96627368
 Total energy in the final basis set = -646.96627368
 
 --------------------------------------------------------------
 
                    Orbital Energies (a.u.)
 --------------------------------------------------------------
 
 Alpha MOs
 -- Occupied --
-19.246 -19.227 -19.193 -19.141 -19.141 -19.110 -10.372 -10.343
-10.301 -10.246 -10.235  -1.232  -1.152  -1.145  -1.050  -1.049
 -0.997  -0.866  -0.835  -0.739  -0.675  -0.620  -0.601  -0.580
 -0.577  -0.549  -0.534  -0.527  -0.517  -0.506  -0.487  -0.482
 -0.473  -0.457  -0.452  -0.429  -0.400  -0.374  -0.360  -0.348
 -0.335  -0.331  -0.322  -0.309
 -- Virtual --
  0.060   0.071   0.081   0.083   0.097   0.103   0.107   0.115
  0.123   0.125   0.131   0.136   0.143   0.145   0.151   0.160
  0.166   0.171   0.176   0.180   0.186   0.188   0.201   0.207
  0.218   0.225   0.232   0.236   0.242   0.251   0.254   0.258
  0.262   0.270   0.274   0.283   0.293   0.296   0.303   0.306
  0.311   0.316   0.323   0.332   0.338   0.343   0.343   0.348
  0.353   0.356   0.368   0.369   0.376   0.378   0.388   0.389
  0.393   0.396   0.401   0.405   0.409   0.412   0.414   0.420
  0.422   0.429   0.435   0.441   0.445   0.454   0.460   0.466
  0.467   0.474   0.479   0.486   0.490   0.495   0.497   0.505
  0.507   0.513   0.521   0.528   0.531   0.538   0.545   0.547
  0.554   0.562   0.566   0.570   0.573   0.588   0.593   0.601
  0.607   0.610   0.617   0.629   0.640   0.648   0.652   0.659
  0.666   0.672   0.676   0.682   0.691   0.697   0.707   0.710
  0.715   0.722   0.727   0.740   0.741   0.752   0.754   0.761
  0.765   0.772   0.778   0.787   0.789   0.796   0.804   0.813
  0.815   0.822   0.828   0.833   0.836   0.848   0.852   0.856
  0.862   0.872   0.878   0.884   0.888   0.897   0.910   0.912
  0.926   0.932   0.941   0.947   0.957   0.974   0.983   0.989
  0.999   1.011   1.028   1.043   1.052   1.065   1.072   1.091
  1.096   1.116   1.126   1.132   1.136   1.141   1.166   1.179
  1.184   1.197   1.198   1.223   1.235   1.252   1.256   1.262
  1.269   1.282   1.312   1.323   1.326   1.348   1.364   1.373
  1.379   1.398   1.411   1.426   1.436   1.449   1.463   1.478
  1.505   1.530   1.533   1.544   1.552   1.558   1.577   1.603
  1.618   1.628   1.645   1.709   1.766   1.808   1.816   1.861
  1.881   1.888   1.897   1.914   1.918   1.936   1.953   1.966
  1.976   1.985   1.994   1.999   2.006   2.015   2.034   2.038
  2.050   2.062   2.068   2.080   2.112   2.124   2.140   2.166
  2.182   2.193   2.201   2.217   2.224   2.247   2.260   2.272
  2.294   2.319   2.342   2.348   2.355   2.364   2.381   2.391
  2.416   2.444   2.459   2.470   2.485   2.494   2.503   2.520
  2.531   2.571   2.575   2.615   2.618   2.638   2.669   2.682
  2.691   2.704   2.740   2.754   2.760   2.780   2.792   2.799
  2.844   2.866   2.876   2.898   2.908   2.934   2.950   2.968
  2.986   3.000   3.003   3.029   3.058   3.067   3.090   3.100
  3.121   3.142   3.166   3.214   3.248   3.256   3.273   3.285
  3.287   3.321   3.344   3.356   3.364   3.383   3.399   3.414
  3.430   3.446   3.454   3.470   3.476   3.513   3.522   3.530
  3.546   3.557   3.570   3.578   3.589   3.598   3.608   3.636
  3.646   3.660   3.678   3.683   3.688   3.706   3.721   3.724
  3.753   3.768   3.773   3.783   3.790   3.819   3.851   3.867
  3.890   3.910   3.940   3.989   4.025   4.050   4.073   4.079
  4.136   4.179   4.195   4.225   4.239   4.250   4.277   4.330
  4.451   4.504   4.572   4.596   4.604   4.655   4.668   4.735
  4.741   4.780   4.840   4.850   4.857   4.888   4.965   5.053
  5.063   5.082   5.144   5.237   5.255   5.318   5.339   5.356
  5.358   5.371   5.376   5.416   5.426   5.493   5.502   5.543
  5.572   5.605   5.636   5.686   5.712   5.715   5.746   5.774
  5.781   5.839   5.904   5.982   5.998   6.022   6.148   6.241
  6.264   6.288   6.289   6.302   6.322   6.414   6.426   6.475
  6.515   6.621   6.630   6.678   6.692   6.725   6.745   6.754
  6.761   6.792   6.836   6.859   6.929   6.940   6.943   6.962
  6.974   7.016   7.057   7.158   7.195   7.229   7.234   7.288
  7.331   7.351   7.378   7.414   7.416   7.477   7.540   7.589
  7.638   8.411  22.703  22.842  22.862  23.191  23.708  44.334
 44.340  44.369  44.402  44.496  44.826
 --------------------------------------------------------------
 
          Ground-State Mulliken Net Atomic Charges

     Atom                 Charge (a.u.)
  ----------------------------------------
      1 C                    -0.971783
      2 H                     0.227532
      3 H                     0.205766
      4 H                     0.231108
      5 C                     0.673554
      6 C                    -0.300071
      7 H                     0.218764
      8 H                     0.157716
      9 C                     0.090759
     10 H                     0.178907
     11 H                     0.074715
     12 C                     0.178908
     13 O                    -0.696421
     14 O                    -0.693517
     15 O                    -0.253638
     16 O                    -0.273968
     17 O                    -0.546127
     18 O                    -0.854381
     19 H                     0.352176
  ----------------------------------------
  Sum of atomic charges =    -2.000000

 -----------------------------------------------------------------
                    Cartesian Multipole Moments
 -----------------------------------------------------------------
    Charge (ESU x 10^10)
                -9.6064
    Dipole Moment (Debye)
         X     -13.5181      Y      -0.0542      Z      -2.1506
       Tot      13.6882
    Quadrupole Moments (Debye-Ang)
        XX    -163.6253     XY      20.8484     YY     -83.7141
        XZ      17.1046     YZ      -8.0547     ZZ     -88.3444
    Octopole Moments (Debye-Ang^2)
       XXX    -435.4613    XXY      42.3526    XYY     -53.9232
       YYY       8.5925    XXZ      41.8514    XYZ     -21.4444
       YYZ      16.2414    XZZ     -28.2272    YZZ       0.3595
       ZZZ     -30.9326
    Hexadecapole Moments (Debye-Ang^3)
      XXXX   -4113.0356   XXXY     586.8402   XXYY    -727.2713
      XYYY     389.8967   YYYY    -550.5141   XXXZ     530.2957
      XXYZ    -148.9920   XYYZ     153.1942   YYYZ    -123.9866
      XXZZ    -575.7685   XYZZ     134.9802   YYZZ    -180.0443
      XZZZ     363.0376   YZZZ    -145.6820   ZZZZ    -540.1993
 -----------------------------------------------------------------
 Calculating analytic gradient of the SCF energy
 Gradient of SCF Energy
            1           2           3           4           5           6
    1  -0.1000831   0.0245473  -0.0170342   0.0503464   0.1068663   0.0552370
    2  -0.0751021  -0.0188307   0.0804696  -0.0164692   0.0441270  -0.0403305
    3   0.0012572   0.0642324   0.0023705  -0.0602847   0.0047533   0.1094111
            7           8           9          10          11          12
    1  -0.0055517  -0.0226032  -0.0678297   0.0237996   0.0187643   0.0470695
    2   0.0527592  -0.0323036   0.0777968   0.0241517  -0.0683345  -0.0220498
    3  -0.0216209  -0.0713560  -0.1182015   0.0425251   0.0187705   0.0639100
           13          14          15          16          17          18
    1  -0.0321277  -0.0346770   0.0055917  -0.0029107   0.0236326  -0.0271651
    2   0.0485276  -0.0370814  -0.0298409   0.0303673   0.0231016  -0.0051758
    3   0.0118414  -0.0299871   0.0081673  -0.0084058   0.0371111  -0.0254157
           19
    1  -0.0458721
    2  -0.0357823
    3  -0.0290783
 Max gradient component =       1.182E-01
 RMS gradient           =       4.790E-02
 Computing fast CPCM-ISWIG gradient
 Updating gradient with PCM contributions...
 -- total gradient after adding PCM contribution --
---------------------------------------------------
  Atom         X              Y              Z     
---------------------------------------------------
   1       0.000002       0.000024       0.000014
   2       0.000004      -0.000003      -0.000001
   3       0.000000      -0.000002       0.000002
   4       0.000002      -0.000004       0.000006
   5       0.000024      -0.000001      -0.000038
   6       0.000074       0.000000       0.000024
   7      -0.000021      -0.000001      -0.000011
   8      -0.000007       0.000001      -0.000002
   9      -0.000016       0.000010       0.000019
  10       0.000005      -0.000024       0.000007
  11      -0.000012      -0.000008      -0.000024
  12       0.000008       0.000022       0.000003
  13       0.000002      -0.000008      -0.000010
  14      -0.000010      -0.000018      -0.000008
  15      -0.000049       0.000024      -0.000013
  16      -0.000017      -0.000011       0.000034
  17       0.000002       0.000000      -0.000010
  18       0.000010      -0.000001       0.000010
  19      -0.000001      -0.000000      -0.000000
---------------------------------------------------
 Number of fixed atoms: 0
 Gradient time:  CPU 1044.54 s  wall 76.40 s
 ######################################################
 ######################################################
 # Starting finite difference calculation for IDERIV  #
 Finite diff step size:  1.88973e-03 a.u.
 ----------------------------------------------------------------
             Standard Nuclear Orientation (Angstroms)
    I     Atom           X                Y                Z
 ----------------------------------------------------------------
    1      C      -2.9542780808     0.0727266929     0.5881341030
    2      H      -3.4088519667     0.3583754043    -0.3649762984
    3      H      -2.7566480762    -1.0008567032     0.5816067761
    4      H      -3.6542393835     0.2969114344     1.3987367828
    5      C      -1.6496156004     0.8293090544     0.8378800810
    6      C       1.0005611796    -0.8911134276    -0.0671632513
    7      H       1.1648288490    -1.9608241569     0.1082728381
    8      H       1.1985404572    -0.3432316776     0.8589180944
    9      C       1.8918823912    -0.3983170581    -1.2031786494
   10      H       1.6640726560    -0.9677414715    -2.1090934018
   11      H       1.6934380326     0.6612863184    -1.3824057812
   12      C       3.3663214478    -0.5921084372    -0.8194351357
   13      O       3.9177251408    -1.6689298837    -1.1693862454
   14      O       3.9085061929     0.3255625968    -0.1489596682
   15      O      -0.3870973251    -0.8057424425    -0.3731709812
   16      O      -0.7627910015     0.5696873373    -0.3787585602
   17      O      -1.9211065808     2.2229064541     0.5810653561
   18      O      -1.0453193446     0.6086275895     1.9579478694
   19      H      -1.2467415545     2.6874196576     1.0941543601
 ----------------------------------------------------------------
 Nuclear Repulsion Energy =   636.7457718600 hartrees
 There are       44 alpha and       44 beta electrons
 Discretize the solute cavity surface with Lebedev spheres
	Using 110 Lebedev grid points for each H atom
	Using 110 Lebedev grid points for other atoms
	Atomic van der Waals radii will be scaled by 1.20
 Remove points where switching function is < 1.0e-08
 Keep 1137 surface tesserae and discard 953 interior tesserae
 Molecular Surface Area = 203.053 Angst**2
 Requested basis set is def2-TZVPD
 There are 189 shells and 497 basis functions
 A cutoff of  1.0D-14 yielded  15844 shell pairs
 There are    109452 function pairs (    139342 Cartesian)
 Smallest overlap matrix eigenvalue = 5.33E-06
 Guess MOs from SCF MO coefficient file
 Reading MOs from coefficient file
 Reading MOs from coefficient file
 Long-range K will be added via erf
 Coulomb attenuation parameter = 0.3 bohr**(-1)
 A restricted hybrid HF-DFT SCF calculation will be
 performed using Pulay DIIS extrapolation
 Polarizable Continuum solvation model will be applied
 Exchange:     0.1670 Hartree-Fock + 1.0000 wB97X-V + LR-HF
 Correlation:  1.0000 wB97X-V
 Using SG-2 standard quadrature grid
 Nonlocal Correlation:  VV10 with C = 0.0100 and b = 6.00
 Grid used for NLC:  SG-1 standard quadrature
 SCF converges when DIIS error is below 1.0E-08
Using Q-Chem read-in guess as SCF_GUESS READ specified.

 using 16 threads for integral computing
 -------------------------------------------------------
 OpenMP Integral computing Module                
 Release: version 1.0, May 2013, Q-Chem Inc. Pittsburgh 
 -------------------------------------------------------
 using 16 threads for integral computing
 -------------------------------------------------------
 OpenMP Integral computing Module                
 Release: version 1.0, May 2013, Q-Chem Inc. Pittsburgh 
 -------------------------------------------------------
 -------------------------------------------------------
 OpenMP BLAS3 based DFT computing Module                
 Release: version 1.0, May 2013, Q-Chem Inc. Pittsburgh 
 -------------------------------------------------------
 -------------------------------------------------------
 OpenMP BLAS3 based DFT computing Module                
 Release: version 1.0, May 2013, Q-Chem Inc. Pittsburgh 
 -------------------------------------------------------
 -------------------------------------------------------
 OpenMP BLAS3 based DFT computing Module                
 Release: version 1.0, May 2013, Q-Chem Inc. Pittsburgh 
 -------------------------------------------------------
 ---------------------------------------
  Cycle       Energy         DIIS Error
 ---------------------------------------
    1    -646.6649739642      3.11E-04
    2    -646.9594267810      3.40E-04
    3    -646.9643275458      1.54E-04
    4    -646.9651068578      1.13E-04
    5    -646.9655827226      8.64E-05
    6    -646.9658463774      6.78E-05
    7    -646.9660460923      4.95E-05
    8    -646.9661714604      3.31E-05
    9    -646.9662526047      1.48E-05
   10    -646.9662699583      5.55E-06
   11    -646.9662726239      1.30E-06
   12    -646.9662727682      2.92E-07
   13    -646.9662727757      3.23E-08
   14    -646.9662727758      4.74E-09 Convergence criterion met
 ---------------------------------------

************** Final PCM Free Energy Summary **************
 G_electrostatic  =      -0.30106555 hartree =    -188.92148398 kcal/mol
 G_cavitation     =       0.00000000 hartree =       0.00000000 kcal/mol
 G_dispersion     =       0.00000000 hartree =       0.00000000 kcal/mol
 G_repulsion      =       0.00000000 hartree =       0.00000000 kcal/mol
 --------------------------------------------------
 Non-electrostatic Free Energy =       0.00000000 hartree =       0.00000000 kcal/mol
 Total                         =      -0.30106555 hartree =    -188.92148398 kcal/mol
 --------------------------------------------------
 SCF Energy (H0 + V/2)                       =    -646.96627278 
 Solute Internal Energy (H0)                 =    -646.66520723 
 Total Free Energy (H0 + V/2 + non-elec)     =    -646.96627278 hartree
                                             = -405977.46358436 kcal/mol
***********************************************************

 SCF time:  CPU 4276.38 s  wall 304.18 s
 SCF   energy in the final basis set = -646.96627278
 Total energy in the final basis set = -646.96627278
 
 --------------------------------------------------------------
 
                    Orbital Energies (a.u.)
 --------------------------------------------------------------
 
 Alpha MOs
 -- Occupied --
-19.246 -19.227 -19.193 -19.141 -19.141 -19.110 -10.372 -10.343
-10.301 -10.246 -10.235  -1.232  -1.152  -1.145  -1.050  -1.049
 -0.997  -0.866  -0.835  -0.739  -0.675  -0.620  -0.601  -0.580
 -0.577  -0.549  -0.534  -0.527  -0.517  -0.506  -0.487  -0.481
 -0.473  -0.457  -0.452  -0.429  -0.400  -0.374  -0.360  -0.348
 -0.335  -0.331  -0.322  -0.309
 -- Virtual --
  0.060   0.071   0.081   0.083   0.097   0.103   0.107   0.115
  0.123   0.125   0.131   0.136   0.143   0.145   0.151   0.160
  0.166   0.171   0.176   0.180   0.186   0.188   0.201   0.207
  0.218   0.225   0.232   0.236   0.242   0.251   0.254   0.258
  0.262   0.270   0.274   0.283   0.293   0.296   0.303   0.306
  0.311   0.316   0.323   0.332   0.337   0.343   0.343   0.348
  0.353   0.356   0.368   0.369   0.376   0.378   0.388   0.389
  0.393   0.396   0.402   0.405   0.409   0.412   0.414   0.420
  0.422   0.429   0.435   0.441   0.445   0.454   0.460   0.466
  0.467   0.474   0.479   0.486   0.490   0.495   0.497   0.505
  0.507   0.513   0.521   0.528   0.531   0.539   0.545   0.547
  0.554   0.562   0.566   0.570   0.573   0.588   0.593   0.601
  0.607   0.610   0.617   0.629   0.640   0.648   0.652   0.659
  0.666   0.672   0.676   0.682   0.691   0.697   0.708   0.710
  0.715   0.722   0.727   0.740   0.741   0.752   0.754   0.761
  0.765   0.772   0.778   0.787   0.789   0.796   0.804   0.813
  0.815   0.822   0.828   0.833   0.836   0.848   0.852   0.856
  0.862   0.872   0.878   0.884   0.888   0.896   0.910   0.912
  0.926   0.932   0.942   0.947   0.957   0.974   0.983   0.989
  0.999   1.011   1.028   1.043   1.052   1.065   1.072   1.091
  1.096   1.116   1.126   1.132   1.136   1.141   1.166   1.179
  1.184   1.197   1.198   1.223   1.235   1.252   1.256   1.262
  1.269   1.282   1.312   1.323   1.327   1.348   1.364   1.373
  1.379   1.398   1.411   1.426   1.436   1.449   1.463   1.478
  1.505   1.530   1.533   1.544   1.552   1.558   1.577   1.603
  1.618   1.628   1.645   1.709   1.766   1.808   1.816   1.861
  1.881   1.888   1.897   1.914   1.918   1.936   1.953   1.966
  1.976   1.985   1.994   1.999   2.006   2.015   2.034   2.038
  2.050   2.062   2.068   2.080   2.112   2.124   2.140   2.166
  2.182   2.193   2.201   2.217   2.224   2.247   2.260   2.272
  2.294   2.319   2.343   2.348   2.355   2.363   2.381   2.391
  2.416   2.444   2.459   2.470   2.485   2.494   2.503   2.520
  2.531   2.571   2.575   2.615   2.618   2.638   2.670   2.682
  2.691   2.704   2.740   2.754   2.760   2.780   2.792   2.799
  2.844   2.866   2.876   2.898   2.907   2.934   2.950   2.968
  2.986   3.000   3.003   3.029   3.058   3.067   3.090   3.100
  3.121   3.142   3.166   3.214   3.248   3.256   3.273   3.285
  3.287   3.321   3.344   3.356   3.364   3.383   3.398   3.414
  3.430   3.446   3.454   3.470   3.475   3.513   3.522   3.529
  3.546   3.557   3.570   3.578   3.589   3.598   3.608   3.636
  3.646   3.660   3.678   3.683   3.688   3.706   3.721   3.724
  3.753   3.768   3.773   3.783   3.790   3.819   3.851   3.867
  3.890   3.910   3.940   3.989   4.025   4.050   4.073   4.079
  4.137   4.180   4.195   4.226   4.239   4.250   4.277   4.330
  4.451   4.504   4.572   4.596   4.604   4.655   4.668   4.735
  4.741   4.780   4.840   4.850   4.857   4.888   4.965   5.053
  5.063   5.082   5.144   5.237   5.255   5.318   5.339   5.356
  5.358   5.371   5.376   5.416   5.426   5.494   5.502   5.543
  5.572   5.605   5.636   5.686   5.712   5.715   5.746   5.774
  5.781   5.839   5.904   5.982   5.998   6.022   6.148   6.241
  6.264   6.288   6.289   6.302   6.322   6.414   6.426   6.475
  6.515   6.621   6.630   6.678   6.692   6.725   6.745   6.754
  6.761   6.792   6.836   6.859   6.929   6.940   6.943   6.962
  6.974   7.016   7.057   7.158   7.195   7.229   7.235   7.288
  7.331   7.351   7.378   7.414   7.416   7.477   7.540   7.589
  7.638   8.411  22.703  22.842  22.862  23.192  23.708  44.334
 44.340  44.369  44.402  44.497  44.826
 --------------------------------------------------------------
 
          Ground-State Mulliken Net Atomic Charges

     Atom                 Charge (a.u.)
  ----------------------------------------
      1 C                    -0.972363
      2 H                     0.227456
      3 H                     0.205966
      4 H                     0.230908
      5 C                     0.674260
      6 C                    -0.300116
      7 H                     0.218765
      8 H                     0.157705
      9 C                     0.090768
     10 H                     0.178910
     11 H                     0.074702
     12 C                     0.178917
     13 O                    -0.696422
     14 O                    -0.693518
     15 O                    -0.253564
     16 O                    -0.274021
     17 O                    -0.546136
     18 O                    -0.854442
     19 H                     0.352224
  ----------------------------------------
  Sum of atomic charges =    -2.000000

 -----------------------------------------------------------------
                    Cartesian Multipole Moments
 -----------------------------------------------------------------
    Charge (ESU x 10^10)
                -9.6064
    Dipole Moment (Debye)
         X     -13.5194      Y      -0.0551      Z      -2.1509
       Tot      13.6896
    Quadrupole Moments (Debye-Ang)
        XX    -163.6198     XY      20.8518     YY     -83.7128
        XZ      17.1053     YZ      -8.0554     ZZ     -88.3479
    Octopole Moments (Debye-Ang^2)
       XXX    -435.5020    XXY      42.3392    XYY     -53.9318
       YYY       8.5930    XXZ      41.8487    XYZ     -21.4422
       YYZ      16.2419    XZZ     -28.2240    YZZ       0.3574
       ZZZ     -30.9393
    Hexadecapole Moments (Debye-Ang^3)
      XXXX   -4112.7542   XXXY     586.8929   XXYY    -727.2325
      XYYY     389.9027   YYYY    -550.4996   XXXZ     530.3002
      XXYZ    -149.0011   XYYZ     153.1903   YYYZ    -123.9866
      XXZZ    -575.7673   XYZZ     134.9855   YYZZ    -180.0457
      XZZZ     363.0464   YZZZ    -145.6862   ZZZZ    -540.2231
 -----------------------------------------------------------------
 Calculating analytic gradient of the SCF energy
 Gradient of SCF Energy
            1           2           3           4           5           6
    1  -0.0994435   0.0244277  -0.0170282   0.0500567   0.1067094   0.0552385
    2  -0.0752543  -0.0187622   0.0806083  -0.0163663   0.0439967  -0.0403341
    3   0.0012023   0.0640248   0.0023752  -0.0599941   0.0047422   0.1094114
            7           8           9          10          11          12
    1  -0.0055521  -0.0226020  -0.0678329   0.0237981   0.0187643   0.0470710
    2   0.0527569  -0.0323023   0.0778059   0.0241498  -0.0683348  -0.0220509
    3  -0.0216187  -0.0713586  -0.1182064   0.0425276   0.0187729   0.0639089
           13          14          15          16          17          18
    1  -0.0321284  -0.0346777   0.0055973  -0.0029534   0.0236340  -0.0271976
    2   0.0485282  -0.0370820  -0.0298483   0.0303715   0.0230860  -0.0051787
    3   0.0118417  -0.0299874   0.0081722  -0.0083946   0.0371115  -0.0254519
           19
    1  -0.0458811
    2  -0.0357894
    3  -0.0290789
 Max gradient component =       1.182E-01
 RMS gradient           =       4.786E-02
 Computing fast CPCM-ISWIG gradient
 Updating gradient with PCM contributions...
 -- total gradient after adding PCM contribution --
---------------------------------------------------
  Atom         X              Y              Z     
---------------------------------------------------
   1       0.000957      -0.000061      -0.000006
   2      -0.000170       0.000053      -0.000185
   3      -0.000104       0.000088       0.000001
   4      -0.000291       0.000066       0.000248
   5      -0.000269      -0.000104      -0.000065
   6       0.000075      -0.000000       0.000024
   7      -0.000021      -0.000000      -0.000012
   8      -0.000007       0.000000      -0.000002
   9      -0.000016       0.000010       0.000019
  10       0.000005      -0.000024       0.000007
  11      -0.000012      -0.000008      -0.000024
  12       0.000009       0.000022       0.000003
  13       0.000002      -0.000008      -0.000010
  14      -0.000010      -0.000019      -0.000008
  15      -0.000052       0.000022      -0.000014
  16      -0.000074      -0.000028       0.000062
  17       0.000008       0.000002      -0.000009
  18      -0.000029      -0.000016      -0.000031
  19       0.000002       0.000004      -0.000001
---------------------------------------------------
 Number of fixed atoms: 0
 Gradient time:  CPU 1046.28 s  wall 76.03 s
 ----------------------------------------------------------------
             Standard Nuclear Orientation (Angstroms)
    I     Atom           X                Y                Z
 ----------------------------------------------------------------
    1      C      -2.9562780808     0.0727266929     0.5881341030
    2      H      -3.4088519667     0.3583754043    -0.3649762984
    3      H      -2.7566480762    -1.0008567032     0.5816067761
    4      H      -3.6542393835     0.2969114344     1.3987367828
    5      C      -1.6496156004     0.8293090544     0.8378800810
    6      C       1.0005611796    -0.8911134276    -0.0671632513
    7      H       1.1648288490    -1.9608241569     0.1082728381
    8      H       1.1985404572    -0.3432316776     0.8589180944
    9      C       1.8918823912    -0.3983170581    -1.2031786494
   10      H       1.6640726560    -0.9677414715    -2.1090934018
   11      H       1.6934380326     0.6612863184    -1.3824057812
   12      C       3.3663214478    -0.5921084372    -0.8194351357
   13      O       3.9177251408    -1.6689298837    -1.1693862454
   14      O       3.9085061929     0.3255625968    -0.1489596682
   15      O      -0.3870973251    -0.8057424425    -0.3731709812
   16      O      -0.7627910015     0.5696873373    -0.3787585602
   17      O      -1.9211065808     2.2229064541     0.5810653561
   18      O      -1.0453193446     0.6086275895     1.9579478694
   19      H      -1.2467415545     2.6874196576     1.0941543601
 ----------------------------------------------------------------
 Nuclear Repulsion Energy =   636.7049686590 hartrees
 There are       44 alpha and       44 beta electrons
 Discretize the solute cavity surface with Lebedev spheres
	Using 110 Lebedev grid points for each H atom
	Using 110 Lebedev grid points for other atoms
	Atomic van der Waals radii will be scaled by 1.20
 Remove points where switching function is < 1.0e-08
 Keep 1137 surface tesserae and discard 953 interior tesserae
 Molecular Surface Area = 203.063 Angst**2
 Requested basis set is def2-TZVPD
 There are 189 shells and 497 basis functions
 A cutoff of  1.0D-14 yielded  15844 shell pairs
 There are    109452 function pairs (    139342 Cartesian)
 Smallest overlap matrix eigenvalue = 5.33E-06
 Guess MOs from SCF MO coefficient file
 Reading MOs from coefficient file
 Reading MOs from coefficient file
 Long-range K will be added via erf
 Coulomb attenuation parameter = 0.3 bohr**(-1)
 A restricted hybrid HF-DFT SCF calculation will be
 performed using Pulay DIIS extrapolation
 Polarizable Continuum solvation model will be applied
 Exchange:     0.1670 Hartree-Fock + 1.0000 wB97X-V + LR-HF
 Correlation:  1.0000 wB97X-V
 Using SG-2 standard quadrature grid
 Nonlocal Correlation:  VV10 with C = 0.0100 and b = 6.00
 Grid used for NLC:  SG-1 standard quadrature
 SCF converges when DIIS error is below 1.0E-08
Using Q-Chem read-in guess as SCF_GUESS READ specified.

 using 16 threads for integral computing
 -------------------------------------------------------
 OpenMP Integral computing Module                
 Release: version 1.0, May 2013, Q-Chem Inc. Pittsburgh 
 -------------------------------------------------------
 using 16 threads for integral computing
 -------------------------------------------------------
 OpenMP Integral computing Module                
 Release: version 1.0, May 2013, Q-Chem Inc. Pittsburgh 
 -------------------------------------------------------
 -------------------------------------------------------
 OpenMP BLAS3 based DFT computing Module                
 Release: version 1.0, May 2013, Q-Chem Inc. Pittsburgh 
 -------------------------------------------------------
 -------------------------------------------------------
 OpenMP BLAS3 based DFT computing Module                
 Release: version 1.0, May 2013, Q-Chem Inc. Pittsburgh 
 -------------------------------------------------------
 -------------------------------------------------------
 OpenMP BLAS3 based DFT computing Module                
 Release: version 1.0, May 2013, Q-Chem Inc. Pittsburgh 
 -------------------------------------------------------
 ---------------------------------------
  Cycle       Energy         DIIS Error
 ---------------------------------------
    1    -646.6656960253      3.11E-04
    2    -646.9594286326      3.40E-04
    3    -646.9643299788      1.54E-04
    4    -646.9651102258      1.13E-04
    5    -646.9655910536      8.58E-05
    6    -646.9658859995      6.46E-05
    7    -646.9661333130      3.88E-05
    8    -646.9662387827      1.92E-05
    9    -646.9662705982      4.88E-06
   10    -646.9662726750      1.12E-06
   11    -646.9662727826      1.69E-07
   12    -646.9662727847      4.25E-08
   13    -646.9662727848      8.42E-09 Convergence criterion met
 ---------------------------------------

************** Final PCM Free Energy Summary **************
 G_electrostatic  =      -0.30104692 hartree =    -188.90979080 kcal/mol
 G_cavitation     =       0.00000000 hartree =       0.00000000 kcal/mol
 G_dispersion     =       0.00000000 hartree =       0.00000000 kcal/mol
 G_repulsion      =       0.00000000 hartree =       0.00000000 kcal/mol
 --------------------------------------------------
 Non-electrostatic Free Energy =       0.00000000 hartree =       0.00000000 kcal/mol
 Total                         =      -0.30104692 hartree =    -188.90979080 kcal/mol
 --------------------------------------------------
 SCF Energy (H0 + V/2)                       =    -646.96627278 
 Solute Internal Energy (H0)                 =    -646.66522587 
 Total Free Energy (H0 + V/2 + non-elec)     =    -646.96627278 hartree
                                             = -405977.46359006 kcal/mol
***********************************************************

 SCF time:  CPU 3976.84 s  wall 282.71 s
 SCF   energy in the final basis set = -646.96627278
 Total energy in the final basis set = -646.96627278
 
 --------------------------------------------------------------
 
                    Orbital Energies (a.u.)
 --------------------------------------------------------------
 
 Alpha MOs
 -- Occupied --
-19.246 -19.227 -19.193 -19.141 -19.141 -19.110 -10.372 -10.343
-10.301 -10.246 -10.235  -1.232  -1.152  -1.145  -1.050  -1.049
 -0.997  -0.866  -0.835  -0.739  -0.675  -0.620  -0.601  -0.580
 -0.577  -0.549  -0.534  -0.527  -0.517  -0.506  -0.487  -0.482
 -0.473  -0.458  -0.452  -0.429  -0.400  -0.374  -0.360  -0.348
 -0.335  -0.331  -0.322  -0.309
 -- Virtual --
  0.060   0.071   0.081   0.083   0.097   0.103   0.107   0.115
  0.123   0.125   0.131   0.136   0.143   0.145   0.151   0.160
  0.166   0.171   0.176   0.180   0.186   0.188   0.201   0.207
  0.218   0.225   0.232   0.236   0.242   0.251   0.254   0.258
  0.262   0.270   0.274   0.283   0.293   0.296   0.303   0.306
  0.311   0.316   0.323   0.332   0.338   0.343   0.343   0.348
  0.353   0.356   0.368   0.369   0.376   0.378   0.388   0.389
  0.393   0.396   0.401   0.405   0.409   0.412   0.414   0.420
  0.422   0.429   0.435   0.441   0.445   0.454   0.460   0.466
  0.467   0.473   0.479   0.486   0.490   0.495   0.497   0.505
  0.507   0.513   0.521   0.528   0.531   0.538   0.545   0.547
  0.554   0.562   0.566   0.570   0.573   0.588   0.593   0.601
  0.607   0.610   0.617   0.629   0.640   0.648   0.652   0.659
  0.666   0.672   0.676   0.682   0.691   0.697   0.707   0.710
  0.715   0.722   0.727   0.740   0.741   0.752   0.754   0.761
  0.765   0.772   0.778   0.787   0.789   0.796   0.804   0.813
  0.815   0.822   0.828   0.833   0.836   0.848   0.852   0.856
  0.862   0.872   0.878   0.884   0.888   0.897   0.910   0.912
  0.926   0.932   0.941   0.947   0.957   0.974   0.983   0.989
  1.000   1.011   1.028   1.043   1.052   1.065   1.072   1.091
  1.096   1.116   1.126   1.132   1.136   1.141   1.166   1.179
  1.184   1.197   1.198   1.223   1.235   1.252   1.256   1.262
  1.269   1.282   1.312   1.323   1.326   1.348   1.363   1.373
  1.379   1.398   1.411   1.426   1.436   1.449   1.463   1.478
  1.505   1.530   1.533   1.544   1.552   1.558   1.577   1.603
  1.618   1.628   1.645   1.709   1.766   1.808   1.816   1.861
  1.881   1.888   1.897   1.914   1.918   1.936   1.953   1.966
  1.976   1.985   1.993   1.999   2.006   2.015   2.034   2.038
  2.050   2.062   2.068   2.080   2.112   2.124   2.140   2.166
  2.182   2.193   2.201   2.217   2.224   2.247   2.260   2.272
  2.294   2.319   2.342   2.348   2.355   2.364   2.381   2.391
  2.416   2.444   2.459   2.470   2.485   2.494   2.503   2.520
  2.531   2.571   2.575   2.614   2.618   2.638   2.669   2.682
  2.691   2.704   2.740   2.754   2.760   2.780   2.792   2.799
  2.844   2.866   2.876   2.898   2.908   2.934   2.950   2.968
  2.986   2.999   3.003   3.029   3.058   3.067   3.090   3.100
  3.121   3.142   3.166   3.213   3.248   3.256   3.273   3.285
  3.286   3.321   3.344   3.356   3.364   3.383   3.399   3.414
  3.431   3.446   3.454   3.470   3.476   3.514   3.522   3.530
  3.546   3.557   3.570   3.578   3.589   3.598   3.608   3.636
  3.646   3.660   3.678   3.683   3.688   3.706   3.721   3.724
  3.753   3.768   3.773   3.783   3.790   3.819   3.851   3.867
  3.890   3.910   3.939   3.989   4.024   4.050   4.073   4.079
  4.136   4.179   4.194   4.225   4.239   4.250   4.277   4.330
  4.451   4.504   4.572   4.596   4.604   4.654   4.668   4.735
  4.741   4.780   4.840   4.850   4.857   4.887   4.965   5.053
  5.063   5.082   5.144   5.237   5.255   5.318   5.339   5.356
  5.358   5.371   5.376   5.416   5.426   5.493   5.502   5.543
  5.572   5.605   5.636   5.686   5.712   5.715   5.746   5.774
  5.781   5.839   5.904   5.982   5.998   6.021   6.148   6.241
  6.264   6.288   6.289   6.302   6.322   6.414   6.426   6.475
  6.515   6.621   6.630   6.678   6.692   6.725   6.745   6.754
  6.761   6.792   6.836   6.859   6.929   6.940   6.943   6.962
  6.974   7.016   7.057   7.158   7.195   7.229   7.234   7.288
  7.331   7.351   7.378   7.414   7.416   7.477   7.540   7.589
  7.638   8.411  22.703  22.842  22.862  23.190  23.708  44.334
 44.340  44.369  44.402  44.496  44.826
 --------------------------------------------------------------
 
          Ground-State Mulliken Net Atomic Charges

     Atom                 Charge (a.u.)
  ----------------------------------------
      1 C                    -0.971205
      2 H                     0.227610
      3 H                     0.205566
      4 H                     0.231310
      5 C                     0.672846
      6 C                    -0.300026
      7 H                     0.218764
      8 H                     0.157727
      9 C                     0.090749
     10 H                     0.178905
     11 H                     0.074728
     12 C                     0.178900
     13 O                    -0.696420
     14 O                    -0.693515
     15 O                    -0.253712
     16 O                    -0.273915
     17 O                    -0.546118
     18 O                    -0.854320
     19 H                     0.352127
  ----------------------------------------
  Sum of atomic charges =    -2.000000

 -----------------------------------------------------------------
                    Cartesian Multipole Moments
 -----------------------------------------------------------------
    Charge (ESU x 10^10)
                -9.6064
    Dipole Moment (Debye)
         X     -13.5169      Y      -0.0534      Z      -2.1503
       Tot      13.6869
    Quadrupole Moments (Debye-Ang)
        XX    -163.6306     XY      20.8449     YY     -83.7153
        XZ      17.1040     YZ      -8.0540     ZZ     -88.3410
    Octopole Moments (Debye-Ang^2)
       XXX    -435.4206    XXY      42.3661    XYY     -53.9145
       YYY       8.5921    XXZ      41.8540    XYZ     -21.4466
       YYZ      16.2408    XZZ     -28.2304    YZZ       0.3616
       ZZZ     -30.9259
    Hexadecapole Moments (Debye-Ang^3)
      XXXX   -4113.3149   XXXY     586.7874   XXYY    -727.3101
      XYYY     389.8906   YYYY    -550.5283   XXXZ     530.2910
      XXYZ    -148.9829   XYYZ     153.1980   YYYZ    -123.9865
      XXZZ    -575.7696   XYZZ     134.9748   YYZZ    -180.0428
      XZZZ     363.0288   YZZZ    -145.6776   ZZZZ    -540.1754
 -----------------------------------------------------------------
 Calculating analytic gradient of the SCF energy
 Gradient of SCF Energy
            1           2           3           4           5           6
    1  -0.1007229   0.0246669  -0.0170403   0.0506370   0.1070232   0.0552361
    2  -0.0749487  -0.0188995   0.0803310  -0.0165726   0.0442567  -0.0403277
    3   0.0013131   0.0644410   0.0023657  -0.0605770   0.0047646   0.1094118
            7           8           9          10          11          12
    1  -0.0055514  -0.0226046  -0.0678271   0.0238013   0.0187645   0.0470684
    2   0.0527624  -0.0323052   0.0777882   0.0241541  -0.0683349  -0.0220487
    3  -0.0216232  -0.0713542  -0.1181981   0.0425233   0.0187682   0.0639117
           13          14          15          16          17          18
    1  -0.0321275  -0.0346766   0.0055862  -0.0028682   0.0236314  -0.0271330
    2   0.0485274  -0.0370814  -0.0298339   0.0303633   0.0231178  -0.0051728
    3   0.0118414  -0.0299872   0.0081625  -0.0084169   0.0371111  -0.0253798
           19
    1  -0.0458636
    2  -0.0357756
    3  -0.0290782
 Max gradient component =       1.182E-01
 RMS gradient           =       4.794E-02
 Computing fast CPCM-ISWIG gradient
 Updating gradient with PCM contributions...
 -- total gradient after adding PCM contribution --
---------------------------------------------------
  Atom         X              Y              Z     
---------------------------------------------------
   1      -0.000952       0.000111       0.000034
   2       0.000178      -0.000060       0.000183
   3       0.000105      -0.000092       0.000004
   4       0.000297      -0.000074      -0.000239
   5       0.000316       0.000102      -0.000012
   6       0.000074       0.000000       0.000024
   7      -0.000021      -0.000000      -0.000012
   8      -0.000007       0.000000      -0.000002
   9      -0.000016       0.000010       0.000018
  10       0.000005      -0.000024       0.000007
  11      -0.000012      -0.000008      -0.000024
  12       0.000008       0.000021       0.000003
  13       0.000002      -0.000008      -0.000010
  14      -0.000010      -0.000019      -0.000008
  15      -0.000046       0.000026      -0.000013
  16       0.000040       0.000006       0.000006
  17      -0.000004      -0.000001      -0.000011
  18       0.000048       0.000014       0.000050
  19      -0.000004      -0.000005       0.000000
---------------------------------------------------
 Number of fixed atoms: 0
 Gradient time:  CPU 1045.33 s  wall 76.12 s
 ----------------------------------------------------------------
             Standard Nuclear Orientation (Angstroms)
    I     Atom           X                Y                Z
 ----------------------------------------------------------------
    1      C      -2.9552780808     0.0737266929     0.5881341030
    2      H      -3.4088519667     0.3583754043    -0.3649762984
    3      H      -2.7566480762    -1.0008567032     0.5816067761
    4      H      -3.6542393835     0.2969114344     1.3987367828
    5      C      -1.6496156004     0.8293090544     0.8378800810
    6      C       1.0005611796    -0.8911134276    -0.0671632513
    7      H       1.1648288490    -1.9608241569     0.1082728381
    8      H       1.1985404572    -0.3432316776     0.8589180944
    9      C       1.8918823912    -0.3983170581    -1.2031786494
   10      H       1.6640726560    -0.9677414715    -2.1090934018
   11      H       1.6934380326     0.6612863184    -1.3824057812
   12      C       3.3663214478    -0.5921084372    -0.8194351357
   13      O       3.9177251408    -1.6689298837    -1.1693862454
   14      O       3.9085061929     0.3255625968    -0.1489596682
   15      O      -0.3870973251    -0.8057424425    -0.3731709812
   16      O      -0.7627910015     0.5696873373    -0.3787585602
   17      O      -1.9211065808     2.2229064541     0.5810653561
   18      O      -1.0453193446     0.6086275895     1.9579478694
   19      H      -1.2467415545     2.6874196576     1.0941543601
 ----------------------------------------------------------------
 Nuclear Repulsion Energy =   636.7326365729 hartrees
 There are       44 alpha and       44 beta electrons
 Discretize the solute cavity surface with Lebedev spheres
	Using 110 Lebedev grid points for each H atom
	Using 110 Lebedev grid points for other atoms
	Atomic van der Waals radii will be scaled by 1.20
 Remove points where switching function is < 1.0e-08
 Keep 1137 surface tesserae and discard 953 interior tesserae
 Molecular Surface Area = 203.049 Angst**2
 Requested basis set is def2-TZVPD
 There are 189 shells and 497 basis functions
 A cutoff of  1.0D-14 yielded  15844 shell pairs
 There are    109452 function pairs (    139342 Cartesian)
 Smallest overlap matrix eigenvalue = 5.33E-06
 Guess MOs from SCF MO coefficient file
 Reading MOs from coefficient file
 Reading MOs from coefficient file
 Long-range K will be added via erf
 Coulomb attenuation parameter = 0.3 bohr**(-1)
 A restricted hybrid HF-DFT SCF calculation will be
 performed using Pulay DIIS extrapolation
 Polarizable Continuum solvation model will be applied
 Exchange:     0.1670 Hartree-Fock + 1.0000 wB97X-V + LR-HF
 Correlation:  1.0000 wB97X-V
 Using SG-2 standard quadrature grid
 Nonlocal Correlation:  VV10 with C = 0.0100 and b = 6.00
 Grid used for NLC:  SG-1 standard quadrature
 SCF converges when DIIS error is below 1.0E-08
Using Q-Chem read-in guess as SCF_GUESS READ specified.

 using 16 threads for integral computing
 -------------------------------------------------------
 OpenMP Integral computing Module                
 Release: version 1.0, May 2013, Q-Chem Inc. Pittsburgh 
 -------------------------------------------------------
 using 16 threads for integral computing
 -------------------------------------------------------
 OpenMP Integral computing Module                
 Release: version 1.0, May 2013, Q-Chem Inc. Pittsburgh 
 -------------------------------------------------------
 -------------------------------------------------------
 OpenMP BLAS3 based DFT computing Module                
 Release: version 1.0, May 2013, Q-Chem Inc. Pittsburgh 
 -------------------------------------------------------
 -------------------------------------------------------
 OpenMP BLAS3 based DFT computing Module                
 Release: version 1.0, May 2013, Q-Chem Inc. Pittsburgh 
 -------------------------------------------------------
 -------------------------------------------------------
 OpenMP BLAS3 based DFT computing Module                
 Release: version 1.0, May 2013, Q-Chem Inc. Pittsburgh 
 -------------------------------------------------------
 ---------------------------------------
  Cycle       Energy         DIIS Error
 ---------------------------------------
    1    -646.6648151922      3.11E-04
    2    -646.9594340810      3.39E-04
    3    -646.9643298423      1.54E-04
    4    -646.9651087654      1.13E-04
    5    -646.9655878211      8.60E-05
    6    -646.9658619359      6.66E-05
    7    -646.9660843890      4.51E-05
    8    -646.9662085744      2.63E-05
    9    -646.9662653728      8.88E-06
   10    -646.9662720183      2.60E-06
   11    -646.9662726050      5.10E-07
   12    -646.9662726269      1.11E-07
   13    -646.9662726279      1.11E-08
   14    -646.9662726279      4.78E-09 Convergence criterion met
 ---------------------------------------

************** Final PCM Free Energy Summary **************
 G_electrostatic  =      -0.30105926 hartree =    -188.91753918 kcal/mol
 G_cavitation     =       0.00000000 hartree =       0.00000000 kcal/mol
 G_dispersion     =       0.00000000 hartree =       0.00000000 kcal/mol
 G_repulsion      =       0.00000000 hartree =       0.00000000 kcal/mol
 --------------------------------------------------
 Non-electrostatic Free Energy =       0.00000000 hartree =       0.00000000 kcal/mol
 Total                         =      -0.30105926 hartree =    -188.91753918 kcal/mol
 --------------------------------------------------
 SCF Energy (H0 + V/2)                       =    -646.96627263 
 Solute Internal Energy (H0)                 =    -646.66521336 
 Total Free Energy (H0 + V/2 + non-elec)     =    -646.96627263 hartree
                                             = -405977.46349159 kcal/mol
***********************************************************

 SCF time:  CPU 4296.78 s  wall 305.79 s
 SCF   energy in the final basis set = -646.96627263
 Total energy in the final basis set = -646.96627263
 
 --------------------------------------------------------------
 
                    Orbital Energies (a.u.)
 --------------------------------------------------------------
 
 Alpha MOs
 -- Occupied --
-19.246 -19.227 -19.193 -19.141 -19.141 -19.110 -10.372 -10.343
-10.301 -10.246 -10.235  -1.232  -1.152  -1.145  -1.050  -1.049
 -0.997  -0.866  -0.835  -0.739  -0.675  -0.620  -0.601  -0.580
 -0.577  -0.549  -0.534  -0.527  -0.517  -0.506  -0.487  -0.482
 -0.473  -0.457  -0.452  -0.429  -0.400  -0.374  -0.360  -0.348
 -0.335  -0.331  -0.322  -0.309
 -- Virtual --
  0.060   0.071   0.081   0.083   0.097   0.103   0.107   0.115
  0.123   0.125   0.131   0.136   0.143   0.145   0.151   0.160
  0.166   0.171   0.176   0.180   0.186   0.188   0.201   0.207
  0.218   0.225   0.232   0.236   0.242   0.251   0.254   0.258
  0.262   0.270   0.274   0.283   0.293   0.296   0.303   0.306
  0.311   0.316   0.323   0.332   0.337   0.343   0.343   0.348
  0.353   0.356   0.368   0.369   0.376   0.378   0.388   0.389
  0.393   0.396   0.401   0.405   0.409   0.412   0.414   0.420
  0.422   0.429   0.435   0.441   0.445   0.454   0.460   0.466
  0.467   0.474   0.479   0.486   0.490   0.495   0.497   0.505
  0.507   0.513   0.521   0.528   0.531   0.539   0.545   0.547
  0.554   0.562   0.566   0.570   0.573   0.588   0.593   0.601
  0.607   0.610   0.617   0.629   0.640   0.648   0.652   0.659
  0.666   0.672   0.676   0.682   0.691   0.697   0.707   0.710
  0.715   0.722   0.727   0.740   0.741   0.752   0.754   0.761
  0.765   0.772   0.778   0.787   0.789   0.796   0.804   0.813
  0.815   0.822   0.828   0.833   0.836   0.848   0.852   0.856
  0.862   0.872   0.878   0.884   0.888   0.897   0.910   0.912
  0.926   0.932   0.942   0.947   0.957   0.974   0.983   0.989
  1.000   1.011   1.028   1.043   1.052   1.065   1.072   1.091
  1.096   1.116   1.126   1.132   1.136   1.141   1.166   1.179
  1.184   1.197   1.198   1.223   1.235   1.252   1.256   1.262
  1.269   1.282   1.312   1.323   1.327   1.348   1.364   1.373
  1.379   1.398   1.411   1.426   1.436   1.449   1.463   1.478
  1.505   1.530   1.533   1.544   1.552   1.558   1.577   1.603
  1.618   1.628   1.645   1.709   1.766   1.808   1.816   1.861
  1.881   1.888   1.897   1.914   1.918   1.936   1.953   1.966
  1.976   1.985   1.994   1.999   2.006   2.015   2.034   2.038
  2.050   2.062   2.068   2.080   2.112   2.124   2.140   2.166
  2.182   2.193   2.201   2.217   2.224   2.247   2.260   2.272
  2.294   2.319   2.342   2.348   2.355   2.364   2.381   2.391
  2.416   2.444   2.459   2.470   2.485   2.494   2.503   2.520
  2.531   2.571   2.575   2.615   2.618   2.638   2.669   2.683
  2.691   2.704   2.740   2.754   2.760   2.780   2.792   2.799
  2.844   2.866   2.876   2.898   2.908   2.934   2.950   2.968
  2.986   3.000   3.003   3.029   3.058   3.067   3.090   3.100
  3.121   3.142   3.166   3.214   3.248   3.256   3.273   3.285
  3.287   3.321   3.344   3.356   3.364   3.383   3.398   3.414
  3.431   3.446   3.454   3.470   3.475   3.513   3.522   3.529
  3.546   3.557   3.570   3.578   3.589   3.598   3.608   3.636
  3.646   3.660   3.678   3.683   3.688   3.706   3.721   3.724
  3.753   3.768   3.774   3.783   3.790   3.819   3.851   3.867
  3.890   3.910   3.940   3.989   4.025   4.050   4.073   4.079
  4.137   4.180   4.195   4.226   4.239   4.250   4.277   4.330
  4.451   4.504   4.572   4.596   4.604   4.654   4.668   4.735
  4.742   4.780   4.840   4.850   4.857   4.887   4.965   5.053
  5.063   5.082   5.144   5.237   5.255   5.318   5.339   5.356
  5.358   5.371   5.376   5.416   5.426   5.494   5.502   5.543
  5.572   5.605   5.636   5.686   5.712   5.715   5.746   5.774
  5.781   5.839   5.904   5.982   5.998   6.022   6.148   6.241
  6.264   6.288   6.289   6.302   6.322   6.414   6.426   6.475
  6.515   6.621   6.630   6.678   6.692   6.725   6.745   6.754
  6.761   6.792   6.836   6.859   6.929   6.940   6.943   6.962
  6.974   7.016   7.057   7.158   7.195   7.229   7.235   7.288
  7.331   7.351   7.378   7.414   7.416   7.477   7.540   7.589
  7.638   8.411  22.703  22.842  22.862  23.191  23.708  44.334
 44.340  44.369  44.402  44.497  44.826
 --------------------------------------------------------------
 
          Ground-State Mulliken Net Atomic Charges

     Atom                 Charge (a.u.)
  ----------------------------------------
      1 C                    -0.971963
      2 H                     0.227750
      3 H                     0.205186
      4 H                     0.231271
      5 C                     0.673996
      6 C                    -0.300014
      7 H                     0.218739
      8 H                     0.157713
      9 C                     0.090744
     10 H                     0.178907
     11 H                     0.074711
     12 C                     0.178910
     13 O                    -0.696420
     14 O                    -0.693516
     15 O                    -0.253646
     16 O                    -0.273949
     17 O                    -0.546148
     18 O                    -0.854382
     19 H                     0.352111
  ----------------------------------------
  Sum of atomic charges =    -2.000000

 -----------------------------------------------------------------
                    Cartesian Multipole Moments
 -----------------------------------------------------------------
    Charge (ESU x 10^10)
                -9.6064
    Dipole Moment (Debye)
         X     -13.5189      Y      -0.0544      Z      -2.1509
       Tot      13.6891
    Quadrupole Moments (Debye-Ang)
        XX    -163.6190     XY      20.8491     YY     -83.7182
        XZ      17.1049     YZ      -8.0547     ZZ     -88.3432
    Octopole Moments (Debye-Ang^2)
       XXX    -435.4933    XXY      42.3442    XYY     -53.9140
       YYY       8.5735    XXZ      41.8528    XYZ     -21.4439
       YYZ      16.2388    XZZ     -28.2312    YZZ       0.3551
       ZZZ     -30.9308
    Hexadecapole Moments (Debye-Ang^3)
      XXXX   -4112.8721   XXXY     586.9010   XXYY    -727.2947
      XYYY     389.9431   YYYY    -550.5500   XXXZ     530.2828
      XXYZ    -148.9971   XYYZ     153.1996   YYYZ    -123.9977
      XXZZ    -575.7488   XYZZ     134.9956   YYZZ    -180.0479
      XZZZ     363.0324   YZZZ    -145.6885   ZZZZ    -540.1892
 -----------------------------------------------------------------
 Calculating analytic gradient of the SCF energy
 Gradient of SCF Energy
            1           2           3           4           5           6
    1  -0.1002446   0.0246275  -0.0169492   0.0504627   0.1067570   0.0552427
    2  -0.0742823  -0.0188739   0.0798244  -0.0165284   0.0440904  -0.0403341
    3   0.0012646   0.0643723   0.0023660  -0.0603807   0.0047050   0.1094164
            7           8           9          10          11          12
    1  -0.0055517  -0.0226040  -0.0678331   0.0238004   0.0187670   0.0470696
    2   0.0527607  -0.0323054   0.0777961   0.0241534  -0.0683349  -0.0220507
    3  -0.0216217  -0.0713589  -0.1182041   0.0425250   0.0187685   0.0639124
           13          14          15          16          17          18
    1  -0.0321279  -0.0346774   0.0055919  -0.0029074   0.0236068  -0.0271625
    2   0.0485277  -0.0370816  -0.0298340   0.0303701   0.0230613  -0.0051716
    3   0.0118418  -0.0299872   0.0081705  -0.0083927   0.0371051  -0.0254312
           19
    1  -0.0458680
    2  -0.0357873
    3  -0.0290711
 Max gradient component =       1.182E-01
 RMS gradient           =       4.787E-02
 Computing fast CPCM-ISWIG gradient
 Updating gradient with PCM contributions...
 -- total gradient after adding PCM contribution --
---------------------------------------------------
  Atom         X              Y              Z     
---------------------------------------------------
   1      -0.000084       0.001090      -0.000004
   2       0.000056      -0.000130       0.000116
   3       0.000099      -0.000589      -0.000001
   4       0.000069      -0.000112      -0.000074
   5      -0.000065      -0.000195      -0.000046
   6       0.000074      -0.000000       0.000024
   7      -0.000021      -0.000000      -0.000012
   8      -0.000007       0.000000      -0.000002
   9      -0.000016       0.000010       0.000019
  10       0.000005      -0.000024       0.000007
  11      -0.000012      -0.000008      -0.000024
  12       0.000008       0.000021       0.000003
  13       0.000002      -0.000008      -0.000010
  14      -0.000010      -0.000019      -0.000008
  15      -0.000052       0.000026      -0.000012
  16      -0.000002       0.000001       0.000025
  17      -0.000056      -0.000075      -0.000020
  18       0.000017       0.000022       0.000011
  19      -0.000004      -0.000011       0.000005
---------------------------------------------------
 Number of fixed atoms: 0
 Gradient time:  CPU 1091.58 s  wall 78.90 s
 ----------------------------------------------------------------
             Standard Nuclear Orientation (Angstroms)
    I     Atom           X                Y                Z
 ----------------------------------------------------------------
    1      C      -2.9552780808     0.0717266929     0.5881341030
    2      H      -3.4088519667     0.3583754043    -0.3649762984
    3      H      -2.7566480762    -1.0008567032     0.5816067761
    4      H      -3.6542393835     0.2969114344     1.3987367828
    5      C      -1.6496156004     0.8293090544     0.8378800810
    6      C       1.0005611796    -0.8911134276    -0.0671632513
    7      H       1.1648288490    -1.9608241569     0.1082728381
    8      H       1.1985404572    -0.3432316776     0.8589180944
    9      C       1.8918823912    -0.3983170581    -1.2031786494
   10      H       1.6640726560    -0.9677414715    -2.1090934018
   11      H       1.6934380326     0.6612863184    -1.3824057812
   12      C       3.3663214478    -0.5921084372    -0.8194351357
   13      O       3.9177251408    -1.6689298837    -1.1693862454
   14      O       3.9085061929     0.3255625968    -0.1489596682
   15      O      -0.3870973251    -0.8057424425    -0.3731709812
   16      O      -0.7627910015     0.5696873373    -0.3787585602
   17      O      -1.9211065808     2.2229064541     0.5810653561
   18      O      -1.0453193446     0.6086275895     1.9579478694
   19      H      -1.2467415545     2.6874196576     1.0941543601
 ----------------------------------------------------------------
 Nuclear Repulsion Energy =   636.7180919712 hartrees
 There are       44 alpha and       44 beta electrons
 Discretize the solute cavity surface with Lebedev spheres
	Using 110 Lebedev grid points for each H atom
	Using 110 Lebedev grid points for other atoms
	Atomic van der Waals radii will be scaled by 1.20
 Remove points where switching function is < 1.0e-08
 Keep 1137 surface tesserae and discard 953 interior tesserae
 Molecular Surface Area = 203.066 Angst**2
 Requested basis set is def2-TZVPD
 There are 189 shells and 497 basis functions
 A cutoff of  1.0D-14 yielded  15844 shell pairs
 There are    109452 function pairs (    139342 Cartesian)
 Smallest overlap matrix eigenvalue = 5.33E-06
 Guess MOs from SCF MO coefficient file
 Reading MOs from coefficient file
 Reading MOs from coefficient file
 Long-range K will be added via erf
 Coulomb attenuation parameter = 0.3 bohr**(-1)
 A restricted hybrid HF-DFT SCF calculation will be
 performed using Pulay DIIS extrapolation
 Polarizable Continuum solvation model will be applied
 Exchange:     0.1670 Hartree-Fock + 1.0000 wB97X-V + LR-HF
 Correlation:  1.0000 wB97X-V
 Using SG-2 standard quadrature grid
 Nonlocal Correlation:  VV10 with C = 0.0100 and b = 6.00
 Grid used for NLC:  SG-1 standard quadrature
 SCF converges when DIIS error is below 1.0E-08
Using Q-Chem read-in guess as SCF_GUESS READ specified.

 using 16 threads for integral computing
 -------------------------------------------------------
 OpenMP Integral computing Module                
 Release: version 1.0, May 2013, Q-Chem Inc. Pittsburgh 
 -------------------------------------------------------
 using 16 threads for integral computing
 -------------------------------------------------------
 OpenMP Integral computing Module                
 Release: version 1.0, May 2013, Q-Chem Inc. Pittsburgh 
 -------------------------------------------------------
 -------------------------------------------------------
 OpenMP BLAS3 based DFT computing Module                
 Release: version 1.0, May 2013, Q-Chem Inc. Pittsburgh 
 -------------------------------------------------------
 -------------------------------------------------------
 OpenMP BLAS3 based DFT computing Module                
 Release: version 1.0, May 2013, Q-Chem Inc. Pittsburgh 
 -------------------------------------------------------
 -------------------------------------------------------
 OpenMP BLAS3 based DFT computing Module                
 Release: version 1.0, May 2013, Q-Chem Inc. Pittsburgh 
 -------------------------------------------------------
 ---------------------------------------
  Cycle       Energy         DIIS Error
 ---------------------------------------
    1    -646.6655542744      3.11E-04
    2    -646.9594162436      3.40E-04
    3    -646.9643279627      1.54E-04
    4    -646.9651097960      1.13E-04
    5    -646.9655931382      8.57E-05
    6    -646.9658844015      6.47E-05
    7    -646.9661260461      3.98E-05
    8    -646.9662351819      2.01E-05
    9    -646.9662701267      5.31E-06
   10    -646.9662725750      1.27E-06
   11    -646.9662727147      1.96E-07
   12    -646.9662727177      4.12E-08
   13    -646.9662727178      8.07E-09 Convergence criterion met
 ---------------------------------------

************** Final PCM Free Energy Summary **************
 G_electrostatic  =      -0.30105329 hartree =    -188.91379063 kcal/mol
 G_cavitation     =       0.00000000 hartree =       0.00000000 kcal/mol
 G_dispersion     =       0.00000000 hartree =       0.00000000 kcal/mol
 G_repulsion      =       0.00000000 hartree =       0.00000000 kcal/mol
 --------------------------------------------------
 Non-electrostatic Free Energy =       0.00000000 hartree =       0.00000000 kcal/mol
 Total                         =      -0.30105329 hartree =    -188.91379063 kcal/mol
 --------------------------------------------------
 SCF Energy (H0 + V/2)                       =    -646.96627272 
 Solute Internal Energy (H0)                 =    -646.66521943 
 Total Free Energy (H0 + V/2 + non-elec)     =    -646.96627272 hartree
                                             = -405977.46354800 kcal/mol
***********************************************************

 SCF time:  CPU 3974.04 s  wall 282.64 s
 SCF   energy in the final basis set = -646.96627272
 Total energy in the final basis set = -646.96627272
 
 --------------------------------------------------------------
 
                    Orbital Energies (a.u.)
 --------------------------------------------------------------
 
 Alpha MOs
 -- Occupied --
-19.246 -19.227 -19.193 -19.141 -19.141 -19.110 -10.372 -10.343
-10.301 -10.246 -10.235  -1.232  -1.152  -1.145  -1.050  -1.049
 -0.997  -0.866  -0.835  -0.739  -0.675  -0.620  -0.601  -0.580
 -0.577  -0.549  -0.534  -0.527  -0.517  -0.506  -0.487  -0.481
 -0.473  -0.457  -0.452  -0.429  -0.400  -0.374  -0.360  -0.348
 -0.335  -0.331  -0.322  -0.309
 -- Virtual --
  0.060   0.071   0.081   0.083   0.097   0.103   0.107   0.115
  0.123   0.125   0.131   0.136   0.143   0.145   0.151   0.160
  0.166   0.171   0.176   0.180   0.186   0.188   0.201   0.207
  0.218   0.225   0.232   0.236   0.242   0.251   0.254   0.258
  0.262   0.270   0.274   0.283   0.293   0.296   0.303   0.306
  0.311   0.316   0.323   0.332   0.338   0.343   0.343   0.348
  0.353   0.356   0.368   0.369   0.376   0.378   0.388   0.389
  0.393   0.396   0.401   0.405   0.409   0.412   0.414   0.420
  0.422   0.429   0.435   0.441   0.445   0.454   0.460   0.466
  0.467   0.474   0.479   0.486   0.490   0.495   0.497   0.505
  0.507   0.513   0.521   0.528   0.531   0.538   0.545   0.547
  0.554   0.562   0.566   0.570   0.573   0.588   0.593   0.601
  0.607   0.610   0.617   0.629   0.640   0.648   0.652   0.659
  0.666   0.672   0.676   0.682   0.691   0.697   0.707   0.710
  0.715   0.722   0.727   0.740   0.741   0.752   0.754   0.761
  0.765   0.772   0.778   0.787   0.789   0.796   0.804   0.813
  0.815   0.822   0.828   0.833   0.836   0.848   0.852   0.856
  0.862   0.873   0.878   0.884   0.888   0.896   0.910   0.912
  0.926   0.932   0.941   0.947   0.957   0.974   0.983   0.989
  0.999   1.011   1.028   1.043   1.052   1.065   1.072   1.091
  1.096   1.116   1.126   1.132   1.136   1.141   1.166   1.179
  1.184   1.197   1.198   1.223   1.235   1.252   1.256   1.262
  1.269   1.282   1.312   1.323   1.326   1.348   1.364   1.373
  1.379   1.398   1.411   1.426   1.436   1.449   1.463   1.478
  1.505   1.530   1.533   1.544   1.552   1.558   1.577   1.603
  1.618   1.628   1.645   1.709   1.766   1.808   1.816   1.861
  1.881   1.888   1.897   1.914   1.918   1.936   1.953   1.966
  1.976   1.985   1.994   1.999   2.006   2.015   2.034   2.038
  2.050   2.062   2.068   2.080   2.112   2.124   2.140   2.166
  2.182   2.193   2.201   2.217   2.224   2.247   2.260   2.272
  2.294   2.319   2.342   2.348   2.355   2.364   2.381   2.391
  2.416   2.444   2.459   2.470   2.485   2.494   2.503   2.520
  2.531   2.571   2.575   2.614   2.618   2.638   2.669   2.682
  2.691   2.704   2.740   2.754   2.760   2.780   2.792   2.799
  2.844   2.866   2.876   2.898   2.908   2.934   2.950   2.968
  2.986   2.999   3.003   3.029   3.058   3.067   3.090   3.100
  3.121   3.142   3.166   3.214   3.248   3.256   3.273   3.285
  3.286   3.321   3.344   3.356   3.364   3.383   3.399   3.414
  3.430   3.446   3.454   3.470   3.476   3.513   3.522   3.530
  3.546   3.557   3.570   3.578   3.589   3.598   3.608   3.636
  3.646   3.660   3.678   3.683   3.688   3.706   3.721   3.724
  3.753   3.768   3.773   3.783   3.790   3.819   3.851   3.867
  3.890   3.910   3.940   3.989   4.024   4.050   4.073   4.079
  4.136   4.179   4.194   4.225   4.239   4.250   4.277   4.330
  4.451   4.504   4.572   4.596   4.604   4.655   4.669   4.735
  4.741   4.780   4.840   4.850   4.857   4.888   4.965   5.053
  5.063   5.082   5.144   5.237   5.255   5.318   5.339   5.356
  5.358   5.371   5.376   5.416   5.426   5.493   5.502   5.543
  5.572   5.605   5.636   5.686   5.712   5.715   5.746   5.774
  5.781   5.839   5.904   5.982   5.998   6.022   6.148   6.241
  6.264   6.288   6.289   6.302   6.322   6.414   6.426   6.475
  6.515   6.621   6.630   6.678   6.692   6.725   6.745   6.754
  6.761   6.792   6.836   6.859   6.929   6.940   6.943   6.962
  6.974   7.016   7.057   7.158   7.195   7.229   7.234   7.288
  7.331   7.351   7.378   7.414   7.416   7.477   7.540   7.589
  7.638   8.411  22.703  22.842  22.862  23.191  23.708  44.334
 44.340  44.369  44.402  44.496  44.826
 --------------------------------------------------------------
 
          Ground-State Mulliken Net Atomic Charges

     Atom                 Charge (a.u.)
  ----------------------------------------
      1 C                    -0.971608
      2 H                     0.227316
      3 H                     0.206349
      4 H                     0.230946
      5 C                     0.673111
      6 C                    -0.300128
      7 H                     0.218790
      8 H                     0.157719
      9 C                     0.090772
     10 H                     0.178908
     11 H                     0.074719
     12 C                     0.178907
     13 O                    -0.696422
     14 O                    -0.693517
     15 O                    -0.253630
     16 O                    -0.273987
     17 O                    -0.546105
     18 O                    -0.854380
     19 H                     0.352241
  ----------------------------------------
  Sum of atomic charges =    -2.000000

 -----------------------------------------------------------------
                    Cartesian Multipole Moments
 -----------------------------------------------------------------
    Charge (ESU x 10^10)
                -9.6064
    Dipole Moment (Debye)
[...]
 Red. Mass:       1.8764                 2.9074                 2.0523
 IR Active:          YES                    YES                    YES
 IR Intens:      191.160                 68.612                236.025
 Raman Active:       YES                    YES                    YES
               X      Y      Z        X      Y      Z        X      Y      Z
 C          0.093 -0.061 -0.131    0.024 -0.070  0.004    0.003 -0.115  0.050
 H         -0.353  0.055  0.125    0.043  0.145  0.055    0.163  0.221  0.059
 H         -0.332 -0.131  0.189   -0.290 -0.122 -0.050   -0.461 -0.197 -0.170
 H          0.597  0.434  0.183    0.039  0.132 -0.032   -0.148  0.094 -0.130
 C         -0.139  0.057  0.114   -0.009  0.091  0.022    0.084  0.168 -0.021
 C         -0.024 -0.034  0.054    0.233  0.066 -0.035   -0.072 -0.009  0.004
 H         -0.009 -0.029  0.083    0.315  0.047 -0.275   -0.102 -0.009  0.056
 H         -0.015 -0.016  0.045    0.232 -0.007 -0.007   -0.068 -0.012  0.009
 C          0.015  0.037 -0.055   -0.027 -0.112  0.059    0.005  0.019 -0.015
 H          0.093  0.018 -0.064   -0.549 -0.013  0.132    0.126  0.016 -0.045
 H         -0.007  0.029 -0.078    0.241 -0.038  0.218   -0.060  0.005 -0.035
 C         -0.013 -0.012  0.024    0.015  0.003 -0.015   -0.004  0.001  0.002
 O          0.006 -0.007 -0.008   -0.028  0.035  0.015    0.006 -0.009 -0.004
 O          0.001  0.006 -0.003    0.016  0.003  0.013   -0.002  0.001 -0.001
 O          0.010  0.011 -0.007   -0.200  0.069 -0.042    0.076 -0.033  0.004
 O         -0.014 -0.015  0.010    0.033 -0.083  0.008   -0.040  0.012  0.036
 O          0.012  0.006 -0.018    0.020 -0.022  0.014    0.054 -0.064  0.049
 O          0.035 -0.010 -0.010   -0.015 -0.007 -0.033   -0.056 -0.001 -0.071
 H          0.041 -0.070  0.016   -0.070  0.189 -0.065   -0.246  0.609 -0.188
 TransDip  -0.320  0.155  0.264    0.248  0.091 -0.027   -0.057  0.488 -0.017

 Mode:                31                     32                     33
 Frequency:      1216.26                1234.15                1273.31
 Force Cnst:      2.0840                 1.2799                 1.3779
 Red. Mass:       2.3910                 1.4263                 1.4424
 IR Active:          YES                    YES                    YES
 IR Intens:      193.742                 26.231                  2.748
 Raman Active:       YES                    YES                    YES
               X      Y      Z        X      Y      Z        X      Y      Z
 C          0.007 -0.056  0.043    0.000  0.005 -0.004    0.000 -0.001  0.002
 H          0.071  0.113  0.046   -0.005 -0.005 -0.003   -0.001 -0.001  0.001
 H         -0.235 -0.095 -0.146    0.024  0.009  0.018   -0.009 -0.003 -0.007
 H         -0.170  0.048 -0.135    0.020 -0.002  0.015   -0.010 -0.002 -0.006
 C         -0.017  0.229 -0.153   -0.007 -0.021  0.018    0.004  0.008 -0.006
 C          0.001  0.024  0.003    0.023  0.140  0.065   -0.013 -0.018  0.032
 H         -0.108  0.002 -0.032   -0.258  0.042 -0.277    0.251  0.014 -0.032
 H         -0.012 -0.027  0.034    0.400 -0.164  0.169    0.358  0.038 -0.079
 C          0.002 -0.005 -0.005    0.007 -0.044 -0.018   -0.155 -0.020  0.064
 H          0.074  0.020 -0.037    0.445  0.125 -0.226    0.586  0.082 -0.184
 H         -0.108 -0.015  0.055   -0.483 -0.077  0.305    0.573  0.070 -0.209
 C          0.001  0.001  0.004   -0.001  0.011  0.010   -0.014  0.032 -0.058
 O          0.002 -0.002 -0.001    0.010 -0.013 -0.003    0.016 -0.037 -0.002
 O         -0.003 -0.004 -0.003   -0.012 -0.014 -0.013    0.013  0.020  0.026
 O          0.012 -0.015 -0.007   -0.040 -0.060 -0.029   -0.002  0.010 -0.022
 O          0.003 -0.019  0.003    0.016  0.014  0.002   -0.002 -0.003  0.001
 O         -0.059  0.009 -0.043    0.006 -0.002  0.003   -0.002  0.000 -0.001
 O          0.061 -0.070  0.132   -0.004  0.006 -0.012    0.001 -0.002  0.003
 H          0.301 -0.747  0.213   -0.024  0.063 -0.020    0.009 -0.021  0.006
 TransDip  -0.059  0.138 -0.420    0.025  0.112  0.117    0.020  0.031 -0.039

 Mode:                34                     35                     36
 Frequency:      1315.26                1363.38                1394.23
 Force Cnst:      1.1232                 1.5336                 1.6202
 Red. Mass:       1.1020                 1.4003                 1.4146
 IR Active:          YES                    YES                    YES
 IR Intens:        2.279                122.060                 54.912
 Raman Active:       YES                    YES                    YES
               X      Y      Z        X      Y      Z        X      Y      Z
 C          0.002  0.000 -0.000   -0.106 -0.078  0.000   -0.025 -0.014  0.001
 H         -0.006 -0.001  0.003    0.400  0.348 -0.103    0.066  0.041 -0.025
 H         -0.008 -0.002  0.002    0.533  0.054 -0.023    0.088  0.008 -0.018
 H         -0.003 -0.003 -0.003    0.308  0.422  0.198    0.043  0.064  0.035
 C         -0.001  0.004  0.004   -0.070 -0.004 -0.084    0.019  0.011 -0.009
 C          0.003 -0.011 -0.010    0.017  0.002 -0.006   -0.149 -0.028  0.045
 H         -0.569 -0.058  0.240   -0.092 -0.011  0.019    0.659  0.063 -0.171
 H          0.639  0.058 -0.180   -0.059 -0.001  0.011    0.572  0.093 -0.176
 C          0.013  0.060  0.025   -0.012  0.001  0.003    0.094  0.000 -0.006
 H         -0.236 -0.109  0.193    0.027 -0.001 -0.006   -0.224 -0.000  0.069
 H          0.141  0.048 -0.189    0.034  0.007 -0.014   -0.215 -0.045  0.048
 C          0.007 -0.010  0.001    0.003  0.000 -0.001   -0.026 -0.003  0.001
 O         -0.005  0.009  0.002   -0.000  0.000  0.000    0.004 -0.004 -0.003
 O         -0.001 -0.001 -0.001   -0.001 -0.001 -0.000    0.005  0.006  0.002
 O         -0.014 -0.044 -0.020    0.001 -0.002  0.002    0.004  0.018 -0.015
 O          0.005  0.010  0.004    0.008 -0.000 -0.003   -0.005 -0.007  0.003
 O         -0.000 -0.001 -0.001    0.019  0.001  0.014   -0.005  0.002 -0.001
 O          0.000 -0.001 -0.002    0.032 -0.005  0.051   -0.001 -0.002  0.003
 H          0.004 -0.011  0.002   -0.081  0.220 -0.066    0.015 -0.036  0.012
 TransDip   0.044 -0.019  0.002   -0.025  0.164 -0.313   -0.231  0.050  0.023

 Mode:                37                     38                     39
 Frequency:      1426.07                1442.15                1466.10
 Force Cnst:      5.3788                 3.5173                 1.3554
 Red. Mass:       4.4890                 2.8704                 1.0703
 IR Active:          YES                    YES                    YES
 IR Intens:      304.360                474.646                 13.479
 Raman Active:       YES                    YES                    YES
               X      Y      Z        X      Y      Z        X      Y      Z
 C          0.004 -0.000  0.001   -0.136 -0.059 -0.056    0.021 -0.042  0.021
 H         -0.016  0.001  0.010    0.224  0.266 -0.120   -0.449  0.095  0.271
 H         -0.002 -0.001 -0.005    0.280  0.009  0.267    0.377  0.038 -0.240
 H         -0.010  0.010 -0.013    0.240  0.029  0.256   -0.292  0.511 -0.398
 C         -0.007 -0.000 -0.003    0.254  0.093  0.197    0.032 -0.018  0.034
 C         -0.043 -0.002  0.004    0.019  0.009 -0.012    0.001  0.001  0.000
 H          0.256  0.064  0.183   -0.067  0.010  0.084   -0.008 -0.001 -0.002
 H          0.156 -0.194  0.088   -0.074 -0.082  0.065   -0.008  0.001  0.002
 C         -0.079 -0.019  0.033   -0.013 -0.002 -0.000   -0.001  0.001 -0.002
 H         -0.022  0.445 -0.304    0.032  0.010 -0.019    0.006 -0.014  0.006
 H         -0.082 -0.085 -0.490    0.022  0.003 -0.008    0.006  0.004  0.015
 C          0.401 -0.052  0.113    0.006 -0.000  0.001    0.000  0.000 -0.000
 O         -0.121  0.174  0.046   -0.001  0.002  0.001   -0.000 -0.000  0.000
 O         -0.120 -0.143 -0.116   -0.001 -0.002 -0.001   -0.000 -0.000 -0.000
 O          0.013  0.010 -0.009   -0.002 -0.004 -0.001   -0.001  0.000  0.000
 O          0.000 -0.002 -0.001   -0.020 -0.003  0.009   -0.002  0.001 -0.000
 O          0.001 -0.000  0.001   -0.050 -0.007 -0.036   -0.005  0.001 -0.004
 O          0.002 -0.000  0.002   -0.077  0.003 -0.113   -0.010  0.005 -0.015
 H         -0.006  0.015 -0.004    0.211 -0.570  0.172    0.021 -0.055  0.016
 TransDip   0.547 -0.053  0.102    0.469 -0.042  0.515    0.070  0.017  0.093

 Mode:                40                     41                     42
 Frequency:      1472.05                1473.18                1488.54
 Force Cnst:      1.4817                 1.4193                 1.4906
 Red. Mass:       1.1605                 1.1100                 1.1418
 IR Active:          YES                    YES                    YES
 IR Intens:       11.808                 34.191                 23.189
 Raman Active:       YES                    YES                    YES
               X      Y      Z        X      Y      Z        X      Y      Z
 C         -0.008  0.012  0.028    0.020 -0.016 -0.038    0.002  0.001 -0.000
 H          0.065 -0.328 -0.116   -0.120  0.497  0.193    0.003  0.010  0.002
 H         -0.040  0.005 -0.383    0.064 -0.006  0.566   -0.006 -0.001  0.014
 H          0.107  0.163  0.074   -0.188 -0.236 -0.140   -0.003 -0.013 -0.001
 C         -0.001  0.003  0.014   -0.014 -0.012 -0.036   -0.006 -0.001 -0.007
 C          0.003  0.031 -0.059   -0.002  0.017 -0.034   -0.030  0.018 -0.038
 H          0.117  0.126  0.465    0.090  0.077  0.273    0.166  0.104  0.346
 H          0.066 -0.461  0.230    0.053 -0.272  0.131    0.109 -0.344  0.155
 C          0.024 -0.018  0.033    0.019 -0.012  0.022   -0.036  0.027 -0.065
 H         -0.078  0.246 -0.113   -0.058  0.165 -0.073    0.145 -0.506  0.239
 H         -0.098 -0.083 -0.241   -0.070 -0.056 -0.162    0.162  0.155  0.539
 C         -0.059  0.007 -0.013   -0.039  0.005 -0.009    0.046 -0.001  0.005
 O          0.017 -0.024 -0.006    0.011 -0.016 -0.004   -0.011  0.015  0.005
 O          0.016  0.019  0.015    0.011  0.012  0.010   -0.012 -0.014 -0.010
 O         -0.011  0.004 -0.001   -0.006  0.003 -0.001    0.000  0.005 -0.002
 O          0.001 -0.004  0.000    0.003 -0.002 -0.001    0.001 -0.003 -0.000
 O         -0.001  0.000 -0.002    0.004  0.001  0.005    0.001  0.000  0.001
 O         -0.000 -0.000 -0.004    0.006  0.000  0.013    0.002 -0.000  0.003
 H          0.006 -0.014  0.004   -0.021  0.053 -0.015   -0.005  0.013 -0.004
 TransDip  -0.107  0.005 -0.024   -0.170  0.043 -0.066    0.112 -0.040  0.099

 Mode:                43                     44                     45
 Frequency:      1586.10                3058.67                3061.08
 Force Cnst:     14.8110                 5.8299                 5.7220
 Red. Mass:       9.9924                 1.0577                 1.0364
 IR Active:          YES                    YES                    YES
 IR Intens:     1307.079                 46.356                 26.042
 Raman Active:       YES                    YES                    YES
               X      Y      Z        X      Y      Z        X      Y      Z
 C         -0.000 -0.000 -0.000    0.008  0.002  0.001   -0.046 -0.015 -0.009
 H          0.000 -0.001 -0.000   -0.038  0.026 -0.083    0.251 -0.171  0.551
 H         -0.000  0.000 -0.000    0.014 -0.068 -0.000   -0.096  0.463  0.001
 H          0.001  0.000  0.000   -0.062  0.021  0.075    0.373 -0.127 -0.446
 C          0.000  0.000  0.001   -0.001 -0.000  0.001    0.003  0.002  0.001
 C          0.000 -0.011 -0.002    0.017 -0.039  0.051    0.003 -0.007  0.008
 H         -0.010 -0.009  0.010   -0.119  0.771 -0.117   -0.019  0.124 -0.019
 H          0.012  0.022 -0.022   -0.101 -0.304 -0.487   -0.015 -0.046 -0.073
 C          0.005 -0.052 -0.027   -0.002  0.004 -0.006    0.001 -0.000  0.002
 H         -0.366  0.047  0.031    0.012  0.032  0.046   -0.005 -0.014 -0.023
 H          0.323  0.034  0.003    0.014 -0.075  0.010   -0.003  0.019 -0.003
 C         -0.006  0.681  0.348    0.001 -0.000  0.001    0.000 -0.000  0.000
 O          0.116 -0.252 -0.087   -0.000  0.000 -0.000   -0.000  0.000  0.000
 O         -0.112 -0.218 -0.153   -0.000 -0.000 -0.000   -0.000 -0.000 -0.000
 O         -0.000 -0.000 -0.000    0.002 -0.001  0.001    0.000 -0.000  0.000
 O         -0.000  0.000  0.000   -0.000  0.001 -0.000   -0.000 -0.000  0.000
 O         -0.000 -0.000 -0.000    0.000 -0.000 -0.000   -0.000 -0.000 -0.000
 O         -0.000 -0.000 -0.000   -0.000  0.000 -0.000   -0.000 -0.000 -0.000
 H          0.000 -0.001  0.000   -0.001 -0.000 -0.001    0.000 -0.001  0.001
 TransDip  -0.006  1.032  0.525    0.105 -0.138  0.132   -0.152 -0.059  0.004

 Mode:                46                     47                     48
 Frequency:      3076.37                3112.49                3133.99
 Force Cnst:      5.9084                 6.3036                 6.3859
 Red. Mass:       1.0596                 1.1044                 1.1035
 IR Active:          YES                    YES                    YES
 IR Intens:       41.100                  9.170                 52.584
 Raman Active:       YES                    YES                    YES
               X      Y      Z        X      Y      Z        X      Y      Z
 C         -0.002 -0.001 -0.001   -0.000 -0.000  0.001    0.014  0.003 -0.092
 H          0.014 -0.009  0.030   -0.002  0.001 -0.004    0.286 -0.187  0.593
 H         -0.005  0.023 -0.000   -0.000  0.000  0.000    0.004 -0.003 -0.017
 H          0.016 -0.005 -0.019    0.003 -0.001 -0.003   -0.463  0.155  0.531
 C          0.000  0.000  0.000   -0.000  0.000 -0.000    0.000  0.000 -0.002
 C         -0.003  0.008 -0.001   -0.004 -0.072 -0.045   -0.000  0.001  0.000
 H          0.017 -0.099  0.016   -0.076  0.503 -0.084    0.002 -0.012  0.002
 H          0.001  0.004  0.004    0.128  0.373  0.627   -0.000 -0.002 -0.003
 C         -0.023  0.012 -0.063   -0.002  0.038  0.008    0.000  0.003  0.002
 H          0.161  0.431  0.661   -0.044 -0.102 -0.164   -0.006 -0.014 -0.023
 H          0.099 -0.563  0.081    0.069 -0.359  0.059    0.005 -0.026  0.005
 C          0.003 -0.001  0.000    0.000  0.001  0.000   -0.000  0.000  0.000
 O         -0.000  0.000  0.000   -0.000 -0.000 -0.000    0.000 -0.000 -0.000
 O         -0.000 -0.000 -0.000   -0.000 -0.000  0.000    0.000 -0.000  0.000
 O          0.000  0.000  0.000   -0.000 -0.001 -0.001   -0.000  0.000 -0.000
 O         -0.000 -0.000  0.000   -0.000  0.000  0.001    0.000  0.000  0.000
 O          0.000 -0.000 -0.000   -0.000  0.000  0.000    0.000  0.000  0.000
 O          0.000 -0.000 -0.000    0.000 -0.000 -0.000   -0.000 -0.000  0.000
 H         -0.000 -0.000 -0.000    0.000  0.000  0.000   -0.000 -0.000 -0.000
 TransDip  -0.068  0.033 -0.191   -0.048 -0.045 -0.071    0.026  0.003 -0.231

 Mode:                49                     50                     51
 Frequency:      3137.51                3151.35                3810.01
 Force Cnst:      6.4227                 6.4488                 9.1092
 Red. Mass:       1.1074                 1.1021                 1.0651
 IR Active:          YES                    YES                    YES
 IR Intens:       65.667                 35.979                 61.276
 Raman Active:       YES                    YES                    YES
               X      Y      Z        X      Y      Z        X      Y      Z
 C          0.001 -0.000 -0.004    0.041 -0.083  0.004    0.000  0.000  0.000
 H          0.009 -0.006  0.019   -0.133  0.080 -0.301    0.000  0.001 -0.000
 H         -0.000  0.002 -0.001   -0.161  0.863  0.006   -0.000  0.001  0.001
 H         -0.021  0.007  0.025   -0.204  0.056  0.248   -0.001  0.000  0.001
 C         -0.000  0.000 -0.000    0.001 -0.002  0.000   -0.001 -0.002 -0.001
 C         -0.001 -0.036 -0.019   -0.000  0.000 -0.000    0.000 -0.000  0.000
 H         -0.036  0.257 -0.043    0.001 -0.005  0.001   -0.001  0.001 -0.000
 H          0.053  0.161  0.272    0.000  0.001  0.001   -0.000 -0.000 -0.001
 C          0.001 -0.082 -0.027    0.000  0.000  0.000   -0.000  0.000 -0.000
 H          0.110  0.280  0.451   -0.001 -0.002 -0.003    0.000  0.000  0.000
 H         -0.128  0.702 -0.119    0.000 -0.003  0.001    0.000 -0.000  0.000
 C         -0.000 -0.002 -0.001   -0.000  0.000 -0.000    0.000 -0.000  0.000
 O         -0.000  0.001  0.000    0.000 -0.000  0.000   -0.000  0.000 -0.000
 O         -0.000  0.001  0.000    0.000  0.000  0.000   -0.000 -0.000 -0.000
 O         -0.000 -0.000 -0.000    0.000  0.000 -0.000   -0.000  0.000  0.000
 O          0.000  0.000  0.000   -0.000 -0.000  0.000   -0.000  0.000 -0.000
 O         -0.000  0.000  0.000   -0.000  0.000 -0.000   -0.042 -0.031 -0.033
 O          0.000 -0.000 -0.000   -0.000  0.000 -0.000   -0.000  0.000 -0.000
 H         -0.000  0.000 -0.000   -0.001 -0.000  0.000    0.688  0.497  0.525
 TransDip  -0.027 -0.231 -0.116    0.097 -0.164  0.025    0.120  0.171  0.139

 STANDARD THERMODYNAMIC QUANTITIES AT   298.15 K  AND     1.00 ATM

   This Molecule has  0 Imaginary Frequencies
   Zero point vibrational energy:       86.806 kcal/mol

   Atom    1 Element C  Has Mass   12.00000
   Atom    2 Element H  Has Mass    1.00783
   Atom    3 Element H  Has Mass    1.00783
   Atom    4 Element H  Has Mass    1.00783
   Atom    5 Element C  Has Mass   12.00000
   Atom    6 Element C  Has Mass   12.00000
   Atom    7 Element H  Has Mass    1.00783
   Atom    8 Element H  Has Mass    1.00783
   Atom    9 Element C  Has Mass   12.00000
   Atom   10 Element H  Has Mass    1.00783
   Atom   11 Element H  Has Mass    1.00783
   Atom   12 Element C  Has Mass   12.00000
   Atom   13 Element O  Has Mass   15.99491
   Atom   14 Element O  Has Mass   15.99491
   Atom   15 Element O  Has Mass   15.99491
   Atom   16 Element O  Has Mass   15.99491
   Atom   17 Element O  Has Mass   15.99491
   Atom   18 Element O  Has Mass   15.99491
   Atom   19 Element H  Has Mass    1.00783
   Molecular Mass:   164.032100 amu
   Principal axes and moments of inertia in amu*Bohr^2:
                             1           2           3
    Eigenvalues --      664.03037  3991.37163  4220.33704
          X               0.92194     0.37013     0.11419
          Y              -0.27992     0.84041    -0.46406
          Z              -0.26772     0.39587     0.87841
   Rotational Symmetry Number is   1
   The Molecule is an Asymmetric Top
   Translational Enthalpy:        0.889 kcal/mol
   Rotational Enthalpy:           0.889 kcal/mol
   Vibrational Enthalpy:         92.480 kcal/mol
   gas constant (RT):             0.592 kcal/mol
   Translational Entropy:        41.193  cal/mol.K
   Rotational Entropy:           30.793  cal/mol.K
   Vibrational Entropy:          39.452  cal/mol.K

   Total Enthalpy:               94.850 kcal/mol
   Total Entropy:               111.437  cal/mol.K
Archival summary:
1\1\c4-65\FREQ\ProcedureUnspecified\BasisUnspecified\658(2-,1)\leeping\SatMar2105:02:162020SatMar2105:02:162020\0\\#,FREQ,ProcedureUnspecified,BasisUnspecified,\\-2,1\O\O,1,1.42583\C,2,1.42356,1,108.393\H,3,1.09407,2,109.166,1,53.2991,0\H,3,1.09638,2,103.825,1,169.467,0\C,3,1.52572,2,112.957,1,-71.0577,0\H,6,1.09282,3,109.22,2,62.6978,0\H,6,1.09399,3,109.075,2,-56.7428,0\C,1,1.52777,2,108.286,3,-109.843,0\O,9,1.29168,1,112.951,2,61.7508,0\O,9,1.44284,1,97.563,2,-178.082,0\H,11,0.966334,9,103.796,1,-94.0533,0\C,9,1.52956,1,106.345,2,-68.0964,0\H,13,1.09182,9,109.394,1,65.809,0\H,13,1.0935,9,111.542,1,-54.9745,0\H,13,1.09356,9,108.854,1,-175.423,0\C,6,1.53583,3,109.515,2,-177.108,0\O,17,1.25921,6,117.029,3,-85.8107,0\O,17,1.25939,6,117.309,3,92.2754,0\\\@

 Total job time:  44641.24s(wall), 625260.86s(cpu) 
 Sat Mar 21 05:02:16 2020

        *************************************************************
        *                                                           *
        *  Thank you very much for using Q-Chem.  Have a nice day.  *
        *                                                           *
        *************************************************************


