
Running Job 1 of 1 qc-freq2.in
qchem qc-freq2.in_3779.0 /scratch/leeping//qc-freq2.d/ 1
/home/leeping/opt/qchem/5.0.2-openmp/exe/qcprog.exe_s qc-freq2.in_3779.0 /scratch/leeping//qc-freq2.d/
Check license passed

                  Welcome to Q-Chem
     A Quantum Leap Into The Future Of Chemistry


 Q-Chem 5.0, Q-Chem, Inc., Pleasanton, CA (2017)

 Yihan Shao,  Zhengting Gan,  E. Epifanovsky,  A. T. B. Gilbert,  M. Wormit,  
 J. Kussmann,  A. W. Lange,  A. Behn,  Jia Deng,  Xintian Feng,  D. Ghosh,  
 M. Goldey,  P. R. Horn,  L. D. Jacobson,  I. Kaliman,  T. Kus,  A. Landau,  
 Jie Liu,  E. I. Proynov,  R. M. Richard,  R. P. Steele,  E. J. Sundstrom,  
 H. L. Woodcock III,  P. M. Zimmerman,  D. Zuev,  B. Albrecht,  E. Alguire,  
 S. A. Baeppler,  D. Barton,  Z. Benda,  Y. A. Bernard,  E. J. Berquist,  
 K. B. Bravaya,  H. Burton,  D. Casanova,  Chun-Min Chang,  Yunqing Chen,  
 A. Chien,  K. D. Closser,  M. P. Coons,  S. Dasgupta,  A. L. Dempwolff,  
 M. Diedenhofen,  Hainam Do,  R. G. Edgar,  Po-Tung Fang,  S. Fatehi,  
 Qingguo Feng,  J. Fosso-Tande,  Qinghui Ge,  A. Ghysels,  G. Gidofalvi,  
 J. Gomes,  J. Gonthier,  A. Gunina,  M. W. D. Hanson-Heine,  
 P. H. P. Harbach,  A. W. Hauser,  J. E. Herr,  E. G. Hohenstein,  
 Z. C. Holden,  Kerwin Hui,  T.-C. Jagau,  Hyunjun Ji,  B. Kaduk,  
 K. Khistyaev,  Jaehoon Kim,  P. Klunzinger,  K. Koh,  D. Kosenkov,  
 L. Koulias,  T. Kowalczyk,  C. M. Krauter,  A. Kunitsa,  Ka Un Lao,  
 A. Laurent,  K. V. Lawler,  Joonho Lee,  D. Lefrancois,  S. Lehtola,  
 D. S. Levine,  Yi-Pei Li,  You-Sheng Lin,  Fenglai Liu,  E. Livshits,  
 A. Luenser,  P. Manohar,  E. Mansoor,  S. F. Manzer,  Shan-Ping Mao,  
 Yuezhi Mao,  N. Mardirossian,  A. V. Marenich,  T. Markovich,  
 L. A. Martinez-Martinez,  S. A. Maurer,  N. J. Mayhall,  S. C. McKenzie,  
 J.-M. Mewes,  A. F. Morrison,  J. W. Mullinax,  K. Nanda,  
 T. S. Nguyen-Beck,  R. Olivares-Amaya,  J. A. Parkhill,  T. M. Perrine,  
 F. Plasser,  S. Prager,  A. Prociuk,  E. Ramos,  D. R. Rehn,  F. Rob,  
 M. Schneider,  N. Sergueev,  S. M. Sharada,  S. Sharma,  D. W. Small,  
 T. Stauch,  T. Stein,  Yu-Chuan Su,  A. J. W. Thom,  A. Tkatchenko,  
 T. Tsuchimochi,  L. Vogt,  O. Vydrov,  M. A. Watson,  J. Wenzel,  
 M. de Wergifosse,  T. A. Wesolowski,  A. White,  J. Witte,  A. Yamada,  
 Jun Yang,  K. Yao,  S. Yeganeh,  S. R. Yost,  Zhi-Qiang You,  A. Zech,  
 Igor Ying Zhang,  Xing Zhang,  Yan Zhao,  Ying Zhu,  B. R. Brooks,  
 G. K. L. Chan,  C. J. Cramer,  M. S. Gordon,  W. J. Hehre,  A. Klamt,  
 M. W. Schmidt,  C. D. Sherrill,  D. G. Truhlar,  A. Aspuru-Guzik,  R. Baer,  
 A. T. Bell,  N. A. Besley,  Jeng-Da Chai,  R. A. DiStasio Jr.,  A. Dreuw,  
 B. D. Dunietz,  T. R. Furlani,  Chao-Ping Hsu,  Yousung Jung,  Jing Kong,  
 D. S. Lambrecht,  WanZhen Liang,  C. Ochsenfeld,  V. A. Rassolov,  
 L. V. Slipchenko,  J. E. Subotnik,  T. Van Voorhis,  J. M. Herbert,  
 A. I. Krylov,  P. M. W. Gill,  M. Head-Gordon

 Contributors to earlier versions of Q-Chem not listed above: 
 R. D. Adamson,  B. Austin,  J. Baker,  G. J. O. Beran,  K. Brandhorst,  
 S. T. Brown,  E. F. C. Byrd,  A. K. Chakraborty,  C.-L. Cheng,  
 Siu Hung Chien,  D. M. Chipman,  D. L. Crittenden,  H. Dachsel,  
 R. J. Doerksen,  A. D. Dutoi,  L. Fusti-Molnar,  W. A. Goddard III,  
 A. Golubeva-Zadorozhnaya,  S. R. Gwaltney,  G. Hawkins,  A. Heyden,  
 S. Hirata,  G. Kedziora,  F. J. Keil,  C. Kelley,  Jihan Kim,  R. A. King,  
 R. Z. Khaliullin,  P. P. Korambath,  W. Kurlancheek,  A. M. Lee,  M. S. Lee,  
 S. V. Levchenko,  Ching Yeh Lin,  D. Liotard,  R. C. Lochan,  I. Lotan,  
 P. E. Maslen,  N. Nair,  D. P. O'Neill,  D. Neuhauser,  E. Neuscamman,  
 C. M. Oana,  R. Olson,  B. Peters,  R. Peverati,  P. A. Pieniazek,  
 Y. M. Rhee,  J. Ritchie,  M. A. Rohrdanz,  E. Rosta,  N. J. Russ,  
 H. F. Schaefer III,  N. E. Schultz,  N. Shenvi,  A. C. Simmonett,  A. Sodt,  
 D. Stuck,  K. S. Thanthiriwatte,  V. Vanovschi,  Tao Wang,  A. Warshel,  
 C. F. Williams,  Q. Wu,  X. Xu,  W. Zhang

 Please cite Q-Chem as follows:
 Y. Shao et al., Mol. Phys. 113, 184-215 (2015)
 DOI: 10.1080/00268976.2014.952696

 Q-Chem 5.0.2 for Intel X86 EM64T Linux

 Parts of Q-Chem use Armadillo 5.200.1 (Boston Tea Smuggler).
 http://arma.sourceforge.net/

 Q-Chem begins on Thu Apr 30 10:00:18 2020  

Host: 
0

     Scratch files written to /scratch/leeping//qc-freq2.d//
 Dec517 15110_ 26548  26544 5633   
Processing $rem in /home/leeping/opt/qchem/5.0.2-openmp/config/preferences.
 MEM_STATIC 2000
 MEM_TOTAL  8000
 SYMMETRY   OFF
 SYM_IGNORE TRUE 
Symmetry turned off for PCM/SM12/SMD calculation

Checking the input file for inconsistencies... 	...done.

--------------------------------------------------------------
User input:
--------------------------------------------------------------
$molecule
-3 1
C        0.4498159202    1.1922410740   -3.2709558192
O        0.2062437699    2.3612039992   -3.6812360169
O        0.9119312320    0.2557427828   -3.9729523743
C        0.1181956199    0.9161064348   -1.7920719326
H       -0.9736597233    0.9091300668   -1.7197448983
H        0.4503597865    1.7773984891   -1.2104901404
C        0.6993540473   -0.3722607612   -1.2235537857
H        1.7863257824   -0.3666794617   -1.3280459360
H        0.3294066881   -1.2270045495   -1.7927141959
C        0.3925673896   -0.6388580219    0.2474403013
C       -1.0999291698   -0.7760794151    0.5408408401
H       -1.6347730854    0.1311033842    0.2597090060
H       -1.2439088984   -0.9518107009    1.6058015072
H       -1.5170005374   -1.6151596245   -0.0187456023
O        1.0674390802   -1.8280767572    0.6386526602
O        0.9584004234    0.4357977033    1.0013413374
H        1.2653142922   -1.5864804552    1.5817527313
O        1.1304677543   -0.0301325763    2.3902676553
H       -0.2020436058    0.1830829591    3.4428336611
O       -0.9015816971    0.2127581748    4.1488879546
O       -1.0901688209    1.6827209891    4.3622166197
$end

$rem
jobtype               freq
method                b3lyp
basis                 def2-tzvpd
dft_d                 d3_bj
symmetry              off
sym_ignore            true
incdft                false
incfock               0
!scf_algorithm        diis_gdm
scf_convergence       8
thresh                14
unrestricted          true
!purecart             112
scf_guess             read
max_scf_cycles        1000
geom_opt_max_cycles   500
geom_opt_dmax         100
geom_opt_tol_gradient 10
solvent_method        pcm
ideriv                1
rpath_tol_displacement 1000
rpath_max_cycles      100
rpath_direction       1
$end

$pcm
theory              cosmo
method              iswig
Radii               bondi
vdwScale            1.20
hpoints             110
heavypoints         110
$end

$solvent
dielectric 78.400000
$end

--------------------------------------------------------------
 Adding empirical dispersion correction 
 ----------------------------------------------------------------
 Doing -D3(BJ) with
 s6 =   1.00000
 s8 =   1.98890
 a1 =   0.39810
 a2 =   4.42110
 -D3 energy without 3body term =     -0.0301725921 hartrees
 ----------------------------------------------------------------
             Standard Nuclear Orientation (Angstroms)
    I     Atom           X                Y                Z
 ----------------------------------------------------------------
    1      C       0.4498159202     1.1922410740    -3.2709558192
    2      O       0.2062437699     2.3612039992    -3.6812360169
    3      O       0.9119312320     0.2557427828    -3.9729523743
    4      C       0.1181956199     0.9161064348    -1.7920719326
    5      H      -0.9736597233     0.9091300668    -1.7197448983
    6      H       0.4503597865     1.7773984891    -1.2104901404
    7      C       0.6993540473    -0.3722607612    -1.2235537857
    8      H       1.7863257824    -0.3666794617    -1.3280459360
    9      H       0.3294066881    -1.2270045495    -1.7927141959
   10      C       0.3925673896    -0.6388580219     0.2474403013
   11      C      -1.0999291698    -0.7760794151     0.5408408401
   12      H      -1.6347730854     0.1311033842     0.2597090060
   13      H      -1.2439088984    -0.9518107009     1.6058015072
   14      H      -1.5170005374    -1.6151596245    -0.0187456023
   15      O       1.0674390802    -1.8280767572     0.6386526602
   16      O       0.9584004234     0.4357977033     1.0013413374
   17      H       1.2653142922    -1.5864804552     1.5817527313
   18      O       1.1304677543    -0.0301325763     2.3902676553
   19      H      -0.2020436058     0.1830829591     3.4428336611
   20      O      -0.9015816971     0.2127581748     4.1488879546
   21      O      -1.0901688209     1.6827209891     4.3622166197
 ----------------------------------------------------------------
 Nuclear Repulsion Energy =   715.8504775552 hartrees
 There are       49 alpha and       49 beta electrons
 Requested basis set is def2-TZVPD
 There are 208 shells and 546 basis functions

 Total QAlloc Memory Limit   8000 MB
 Mega-Array Size      1956 MB
 MEM_STATIC part      2000 MB
 Discretize the solute cavity surface with Lebedev spheres
	Using 110 Lebedev grid points for each H atom
	Using 110 Lebedev grid points for other atoms
	Atomic van der Waals radii will be scaled by 1.20
 Remove points where switching function is < 1.0e-08
 Keep 1241 surface tesserae and discard 1069 interior tesserae
 Molecular Surface Area = 229.611 Angst**2
 A cutoff of  1.0D-14 yielded  18685 shell pairs
 There are    127051 function pairs (    160769 Cartesian)
 
 -------------------------------------------------------
 OpenMP Integral Computing Module                       
 Release: version 1.0, May 2013, Q-Chem Inc. Pittsburgh 
 -------------------------------------------------------
 Integral Job Info:
 Integral job number is                      11
 Integral operator is                         1
 short-range coefficients                     0
 long-range coefficients              100000000
 Omega coefficients                           0
 if combine SR and LR in K                    0
 Integral screening is                        0
 Integral computing path is                   2
 max size of driver memory is            800000
 size of driver memory is                776718
 size of scratch memory is              4384136
 max col of scratch BK array              10000
 max len of scratch array in speh3          662
 max len of scratch index in speh4           32
 max int batch size is                      520
 min int batch size is                       52
 fixed nKL is                                52
 max L of basis functions is                  3
 order of int derivative is                   0
 number of shells is                        208
 number of basis is                         618
 number of cartesian basis is               618
 number of contracted shell pairs         18685
 number of primitive shell pairs          36996
 maxK2 (contraction) of shell pair           36
 max number of K2 of shell pair               1
 max number of CS2 of shell pair           3185
 max number of PS2 of shell pair           4194
 mem total for path MDJ                  850220
 -------------------------------------------------------
 Smallest overlap matrix eigenvalue = 2.17E-06
 Guess MOs from SCF MO coefficient file
 Reading MOs from coefficient file
 Reading MOs from coefficient file
 An unrestricted hybrid HF-DFT SCF calculation will be
 performed using Pulay DIIS extrapolation
 Polarizable Continuum solvation model will be applied
 Exchange:     0.2000 Hartree-Fock + 0.0800 Slater + 0.7200 B88
 Correlation:  0.1900 VWN1RPA + 0.8100 LYP
 Using SG-1 standard quadrature grid
 Dispersion:   Grimme D3
 SCF converges when DIIS error is below 1.0E-08
Using Q-Chem read-in guess as SCF_GUESS READ specified.

 using 8 threads for integral computing
 -------------------------------------------------------
 OpenMP Integral computing Module                
 Release: version 1.0, May 2013, Q-Chem Inc. Pittsburgh 
 -------------------------------------------------------
 -------------------------------------------------------
 OpenMP BLAS3 based DFT computing Module                
 Release: version 1.0, May 2013, Q-Chem Inc. Pittsburgh 
 -------------------------------------------------------
 ---------------------------------------
  Cycle       Energy         DIIS Error
 ---------------------------------------
    1    -722.4872485246      3.71E-04
    2    -722.2556053030      3.05E-03
    3    -723.0720878294      4.99E-04
    4    -723.0872281379      2.36E-04
    5    -723.0896401656      1.61E-04
    6    -723.0910943691      1.20E-04
    7    -723.0918115881      9.11E-05
    8    -723.0923131446      6.56E-05
    9    -723.0925472365      4.88E-05
   10    -723.0927706323      2.41E-05
   11    -723.0928338092      8.26E-06
   12    -723.0928409623      1.74E-06
   13    -723.0928412123      5.58E-07
   14    -723.0928412407      1.22E-07
   15    -723.0928412420      3.35E-08
   16    -723.0928412420      1.38E-08
   17    -723.0928412420      6.82E-09 Convergence criterion met
 ---------------------------------------

************** Final PCM Free Energy Summary **************
 G_electrostatic  =      -0.60544374 hartree =    -379.92168264 kcal/mol
 G_cavitation     =       0.00000000 hartree =       0.00000000 kcal/mol
 G_dispersion     =       0.00000000 hartree =       0.00000000 kcal/mol
 G_repulsion      =       0.00000000 hartree =       0.00000000 kcal/mol
 --------------------------------------------------
 Non-electrostatic Free Energy =       0.00000000 hartree =       0.00000000 kcal/mol
 Total                         =      -0.60544374 hartree =    -379.92168264 kcal/mol
 --------------------------------------------------
 SCF Energy (H0 + V/2)                       =    -723.09284124 
 Solute Internal Energy (H0)                 =    -722.48739750 
 Total Free Energy (H0 + V/2 + non-elec)     =    -723.09284124 hartree
                                             = -453747.60629167 kcal/mol
***********************************************************

 <S^2> = 0.0000
 SCF time:  CPU 5405.37 s  wall 751.82 s
 SCF   energy in the final basis set = -723.09284124
 Total energy in the final basis set = -723.09284124
 
 --------------------------------------------------------------
 
                    Orbital Energies (a.u.)
 --------------------------------------------------------------
 
 Alpha MOs
 -- Occupied --
-19.131 -19.100 -19.091 -19.073 -19.057 -19.055 -19.044 -10.248
-10.243 -10.150 -10.150 -10.140  -1.057  -1.012  -0.975  -0.970
 -0.922  -0.815  -0.752  -0.738  -0.705  -0.641  -0.535  -0.500
 -0.482  -0.455  -0.449  -0.427  -0.423  -0.406  -0.402  -0.393
 -0.380  -0.361  -0.349  -0.343  -0.334  -0.331  -0.322  -0.305
 -0.300  -0.268  -0.247  -0.234  -0.226  -0.222  -0.198  -0.178
 -0.160
 -- Virtual --
  0.008   0.015   0.023   0.033   0.034   0.042   0.047   0.055
  0.064   0.066   0.072   0.076   0.080   0.083   0.093   0.097
  0.101   0.104   0.112   0.114   0.116   0.125   0.129   0.134
  0.137   0.144   0.148   0.158   0.162   0.165   0.172   0.181
  0.182   0.186   0.193   0.196   0.203   0.208   0.216   0.219
  0.226   0.229   0.230   0.238   0.244   0.248   0.254   0.261
  0.264   0.271   0.278   0.282   0.285   0.286   0.291   0.293
  0.303   0.310   0.312   0.319   0.319   0.328   0.331   0.335
  0.337   0.346   0.348   0.351   0.357   0.364   0.372   0.373
  0.379   0.383   0.389   0.393   0.395   0.404   0.408   0.417
  0.423   0.427   0.431   0.433   0.440   0.444   0.449   0.453
  0.460   0.464   0.468   0.470   0.476   0.478   0.484   0.487
  0.495   0.497   0.502   0.506   0.509   0.517   0.520   0.525
  0.526   0.535   0.537   0.539   0.547   0.552   0.559   0.563
  0.573   0.578   0.579   0.589   0.595   0.600   0.603   0.616
  0.622   0.630   0.639   0.642   0.643   0.652   0.660   0.669
  0.671   0.684   0.689   0.694   0.698   0.703   0.707   0.711
  0.714   0.727   0.731   0.741   0.745   0.750   0.755   0.761
  0.765   0.766   0.773   0.780   0.785   0.794   0.797   0.800
  0.809   0.810   0.818   0.830   0.834   0.847   0.857   0.861
  0.873   0.884   0.887   0.900   0.907   0.911   0.921   0.932
  0.942   0.945   0.950   0.963   0.969   0.977   0.980   0.996
  1.008   1.021   1.029   1.047   1.047   1.072   1.080   1.091
  1.097   1.107   1.111   1.125   1.134   1.142   1.153   1.154
  1.162   1.194   1.199   1.229   1.235   1.244   1.253   1.263
  1.281   1.298   1.305   1.328   1.332   1.346   1.352   1.369
  1.378   1.392   1.414   1.423   1.456   1.465   1.483   1.505
  1.512   1.538   1.560   1.576   1.609   1.613   1.636   1.651
  1.691   1.701   1.738   1.753   1.760   1.790   1.805   1.811
  1.818   1.833   1.837   1.842   1.849   1.853   1.873   1.878
  1.895   1.899   1.912   1.917   1.923   1.934   1.941   1.951
  1.959   1.984   1.996   2.012   2.048   2.056   2.069   2.077
  2.106   2.125   2.139   2.149   2.156   2.179   2.181   2.202
  2.216   2.220   2.239   2.246   2.265   2.277   2.301   2.313
  2.334   2.342   2.359   2.362   2.374   2.403   2.411   2.435
  2.444   2.464   2.475   2.485   2.503   2.521   2.549   2.570
  2.587   2.603   2.622   2.635   2.647   2.672   2.689   2.715
  2.744   2.750   2.780   2.799   2.810   2.826   2.842   2.857
  2.889   2.893   2.904   2.907   2.910   2.919   2.935   2.946
  2.971   2.973   2.987   3.007   3.017   3.044   3.075   3.077
  3.100   3.119   3.144   3.173   3.187   3.191   3.202   3.210
  3.248   3.259   3.265   3.271   3.287   3.312   3.344   3.358
  3.378   3.383   3.412   3.422   3.433   3.442   3.449   3.473
  3.477   3.487   3.499   3.500   3.532   3.549   3.563   3.579
  3.583   3.600   3.606   3.623   3.634   3.640   3.663   3.675
  3.695   3.700   3.709   3.742   3.754   3.778   3.808   3.832
  3.877   3.914   3.945   4.016   4.040   4.055   4.080   4.106
  4.111   4.128   4.170   4.196   4.231   4.253   4.288   4.354
  4.364   4.489   4.553   4.575   4.586   4.616   4.682   4.707
  4.720   4.734   4.779   4.824   4.856   4.872   4.907   4.910
  4.933   5.003   5.017   5.047   5.090   5.123   5.139   5.165
  5.210   5.226   5.250   5.250   5.258   5.261   5.265   5.268
  5.281   5.324   5.350   5.391   5.402   5.440   5.477   5.501
  5.505   5.542   5.568   5.602   5.615   5.628   5.668   5.734
  5.819   5.842   5.872   5.891   5.909   5.961   6.050   6.091
  6.131   6.192   6.193   6.212   6.238   6.314   6.390   6.469
  6.488   6.500   6.500   6.503   6.520   6.540   6.579   6.588
  6.594   6.623   6.636   6.653   6.693   6.722   6.779   6.839
  6.854   6.856   6.896   6.929   6.937   6.941   7.017   7.052
  7.093   7.104   7.132   7.184   7.245   7.279   7.291   7.310
  7.329   7.376   7.488   7.974   8.140  22.647  22.790  22.856
 22.912  23.610  43.737  44.139  44.188  44.255  44.308  44.433
 44.631
 
 Beta MOs
 -- Occupied --
-19.131 -19.100 -19.091 -19.073 -19.057 -19.055 -19.044 -10.248
-10.243 -10.150 -10.150 -10.140  -1.057  -1.012  -0.975  -0.970
 -0.922  -0.815  -0.752  -0.738  -0.705  -0.641  -0.535  -0.500
 -0.482  -0.455  -0.449  -0.427  -0.423  -0.406  -0.402  -0.393
 -0.380  -0.361  -0.349  -0.343  -0.334  -0.331  -0.322  -0.305
 -0.300  -0.268  -0.247  -0.234  -0.226  -0.222  -0.198  -0.178
 -0.160
 -- Virtual --
  0.008   0.015   0.023   0.033   0.034   0.042   0.047   0.055
  0.064   0.066   0.072   0.076   0.080   0.083   0.093   0.097
  0.101   0.104   0.112   0.114   0.116   0.125   0.129   0.134
  0.137   0.144   0.148   0.158   0.162   0.165   0.172   0.181
  0.182   0.186   0.193   0.196   0.203   0.208   0.216   0.219
  0.226   0.229   0.230   0.238   0.244   0.248   0.254   0.261
  0.264   0.271   0.278   0.282   0.285   0.286   0.291   0.293
  0.303   0.310   0.312   0.319   0.319   0.328   0.331   0.335
  0.337   0.346   0.348   0.351   0.357   0.364   0.372   0.373
  0.379   0.383   0.389   0.393   0.395   0.404   0.408   0.417
  0.423   0.427   0.431   0.433   0.440   0.444   0.449   0.453
  0.460   0.464   0.468   0.470   0.476   0.478   0.484   0.487
  0.495   0.497   0.502   0.506   0.509   0.517   0.520   0.525
  0.526   0.535   0.537   0.539   0.547   0.552   0.559   0.563
  0.573   0.578   0.579   0.589   0.595   0.600   0.603   0.616
  0.622   0.630   0.639   0.642   0.643   0.652   0.660   0.669
  0.671   0.684   0.689   0.694   0.698   0.703   0.707   0.711
  0.714   0.727   0.731   0.741   0.745   0.750   0.755   0.761
  0.765   0.766   0.773   0.780   0.785   0.794   0.797   0.800
  0.809   0.810   0.818   0.830   0.834   0.847   0.857   0.861
  0.873   0.884   0.887   0.900   0.907   0.911   0.921   0.932
  0.942   0.945   0.950   0.963   0.969   0.977   0.980   0.996
  1.008   1.021   1.029   1.047   1.047   1.072   1.080   1.091
  1.097   1.107   1.111   1.125   1.134   1.142   1.153   1.154
  1.162   1.194   1.199   1.229   1.235   1.244   1.253   1.263
  1.281   1.298   1.305   1.328   1.332   1.346   1.352   1.369
  1.378   1.392   1.414   1.423   1.456   1.465   1.483   1.505
  1.512   1.538   1.560   1.576   1.609   1.613   1.636   1.651
  1.691   1.701   1.738   1.753   1.760   1.790   1.805   1.811
  1.818   1.833   1.837   1.842   1.849   1.853   1.873   1.878
  1.895   1.899   1.912   1.917   1.923   1.934   1.941   1.951
  1.959   1.984   1.996   2.012   2.048   2.056   2.069   2.077
  2.106   2.125   2.139   2.149   2.156   2.179   2.181   2.202
  2.216   2.220   2.239   2.246   2.265   2.277   2.301   2.313
  2.334   2.342   2.359   2.362   2.374   2.403   2.411   2.435
  2.444   2.464   2.475   2.485   2.503   2.521   2.549   2.570
  2.587   2.603   2.622   2.635   2.647   2.672   2.689   2.715
  2.744   2.750   2.780   2.799   2.810   2.826   2.842   2.857
  2.889   2.893   2.904   2.907   2.910   2.919   2.935   2.946
  2.971   2.973   2.987   3.007   3.017   3.044   3.075   3.077
  3.100   3.119   3.144   3.173   3.187   3.191   3.202   3.210
  3.248   3.259   3.265   3.271   3.287   3.312   3.344   3.358
  3.378   3.383   3.412   3.422   3.433   3.442   3.449   3.473
  3.477   3.487   3.499   3.500   3.532   3.549   3.563   3.579
  3.583   3.600   3.606   3.623   3.634   3.640   3.663   3.675
  3.695   3.700   3.709   3.742   3.754   3.778   3.808   3.832
  3.877   3.914   3.945   4.016   4.040   4.055   4.080   4.106
  4.111   4.128   4.170   4.196   4.231   4.253   4.288   4.354
  4.364   4.489   4.553   4.575   4.586   4.616   4.682   4.707
  4.720   4.734   4.779   4.824   4.856   4.872   4.907   4.910
  4.933   5.003   5.017   5.047   5.090   5.123   5.139   5.165
  5.210   5.226   5.250   5.250   5.258   5.261   5.265   5.268
  5.281   5.324   5.350   5.391   5.402   5.440   5.477   5.501
  5.505   5.542   5.568   5.602   5.615   5.628   5.668   5.734
  5.819   5.842   5.872   5.891   5.909   5.961   6.050   6.091
  6.131   6.192   6.193   6.212   6.238   6.314   6.390   6.469
  6.488   6.500   6.500   6.503   6.520   6.540   6.579   6.588
  6.594   6.623   6.636   6.653   6.693   6.722   6.779   6.839
  6.854   6.856   6.896   6.929   6.937   6.941   7.017   7.052
  7.093   7.104   7.132   7.184   7.245   7.279   7.291   7.310
  7.329   7.376   7.488   7.974   8.140  22.647  22.790  22.856
 22.912  23.610  43.737  44.139  44.188  44.255  44.308  44.433
 44.631
 --------------------------------------------------------------
 
          Ground-State Mulliken Net Atomic Charges

     Atom                 Charge (a.u.)    Spin (a.u.)
  --------------------------------------------------------
      1 C                     0.211668      -0.000000
      2 O                    -0.781885       0.000000
      3 O                    -0.760227      -0.000000
      4 C                    -0.427282       0.000000
      5 H                     0.252097      -0.000000
      6 H                     0.229978      -0.000000
      7 C                    -0.424310       0.000000
      8 H                     0.225031       0.000000
      9 H                     0.193688      -0.000000
     10 C                     1.680731      -0.000000
     11 C                    -1.790093      -0.000000
     12 H                     0.358175       0.000000
     13 H                     0.350017      -0.000000
     14 H                     0.304317       0.000000
     15 O                    -0.693632      -0.000000
     16 O                    -0.302629       0.000000
     17 H                     0.387484      -0.000000
     18 O                    -1.004056      -0.000000
     19 H                     0.385471      -0.000000
     20 O                    -0.490867      -0.000000
     21 O                    -0.903674       0.000000
  --------------------------------------------------------
  Sum of atomic charges =    -3.000000
  Sum of spin   charges =     0.000000

 -----------------------------------------------------------------
                    Cartesian Multipole Moments
 -----------------------------------------------------------------
    Charge (ESU x 10^10)
               -14.4096
    Dipole Moment (Debye)
         X      -2.2701      Y     -12.9540      Z     -12.3277
       Tot      18.0259
    Quadrupole Moments (Debye-Ang)
        XX     -97.2251     XY       8.9549     YY    -117.8734
        XZ      32.6558     YZ      -6.9094     ZZ    -288.2047
    Octopole Moments (Debye-Ang^2)
       XXX     -44.4588    XXY     -30.6179    XYY     -10.2906
       YYY    -125.9743    XXZ     -44.6501    XYZ      37.4984
       YYZ       3.8794    XZZ      36.9145    YZZ    -279.6434
       ZZZ    -212.0815
    Hexadecapole Moments (Debye-Ang^3)
      XXXX    -502.7216   XXXY      61.1025   XXYY    -228.9446
      XYYY      75.8740   YYYY    -941.1171   XXXZ     280.3097
      XXYZ      -8.4267   XYYZ     153.9545   YYYZ     208.9171
      XXZZ    -919.4522   XYZZ     138.1182   YYZZ   -1259.1348
      XZZZ     974.6568   YZZZ    -109.3999   ZZZZ   -7472.6879
 -----------------------------------------------------------------
 Calculating analytic gradient of the SCF energy
 Gradient of SCF Energy
            1           2           3           4           5           6
    1   0.0046679   0.0080744  -0.0215055  -0.0949210   0.0708371  -0.0352726
    2  -0.0254835  -0.0464775   0.0428454   0.1462951   0.0018223  -0.0675558
    3  -0.0323961   0.0243550   0.0314355   0.0966451   0.0068284  -0.0446201
            7           8           9          10          11          12
    1   0.2570370  -0.0806586   0.0354732  -0.1000237  -0.1840526   0.0460934
    2  -0.1913568  -0.0043790   0.0659955   0.0745371   0.0160602  -0.1245448
    3  -0.1434306   0.0042522   0.0332815   0.0134613   0.1066951   0.0375314
           13          14          15          16          17          18
    1   0.0264481   0.0390831   0.0271723  -0.0049706  -0.0156989   0.0307800
    2   0.0295436   0.0905881  -0.0027351   0.0398032  -0.0136906  -0.0155821
    3  -0.1307774   0.0625881   0.0279505  -0.0953869  -0.0889736   0.0999739
           19          20          21
    1  -0.0685822   0.0711396  -0.0111204
    2   0.0004485  -0.0977281   0.0815942
    3   0.0551494  -0.0722892   0.0077267
 Max gradient component =       2.570E-01
 RMS gradient           =       7.723E-02
 Computing fast CPCM-ISWIG gradient
 Updating gradient with PCM contributions...
 -- total gradient after adding PCM contribution --
---------------------------------------------------
  Atom         X              Y              Z     
---------------------------------------------------
   1      -0.000009       0.000004       0.000009
   2      -0.000001      -0.000004       0.000003
   3       0.000002      -0.000012      -0.000002
   4       0.000000       0.000019      -0.000017
   5      -0.000002      -0.000006       0.000005
   6      -0.000003      -0.000005       0.000000
   7       0.000009      -0.000030       0.000014
   8      -0.000001       0.000005       0.000004
   9      -0.000002       0.000006      -0.000002
  10      -0.000016      -0.000026      -0.000031
  11       0.000002       0.000005       0.000002
  12      -0.000002      -0.000001       0.000006
  13      -0.000001      -0.000006      -0.000000
  14       0.000002      -0.000001      -0.000002
  15      -0.000001       0.000004      -0.000005
  16       0.000013       0.000023       0.000025
  17       0.000004       0.000005       0.000012
  18      -0.000002       0.000002      -0.000016
  19       0.000010       0.000006      -0.000017
  20      -0.000007       0.000014       0.000015
  21       0.000002      -0.000003      -0.000002
---------------------------------------------------
 Number of fixed atoms: 0
 Gradient time:  CPU 1148.36 s  wall 156.26 s
 ######################################################
 ######################################################
 # Starting finite difference calculation for IDERIV  #
 Finite diff step size:  1.88973e-03 a.u.
 Adding empirical dispersion correction 
 ----------------------------------------------------------------
 Doing -D3(BJ) with
 s6 =   1.00000
 s8 =   1.98890
 a1 =   0.39810
 a2 =   4.42110
 -D3 energy without 3body term =     -0.0301725818 hartrees
 ----------------------------------------------------------------
             Standard Nuclear Orientation (Angstroms)
    I     Atom           X                Y                Z
 ----------------------------------------------------------------
    1      C       0.4508159202     1.1922410740    -3.2709558192
    2      O       0.2062437699     2.3612039992    -3.6812360169
    3      O       0.9119312320     0.2557427828    -3.9729523743
    4      C       0.1181956199     0.9161064348    -1.7920719326
    5      H      -0.9736597233     0.9091300668    -1.7197448983
    6      H       0.4503597865     1.7773984891    -1.2104901404
    7      C       0.6993540473    -0.3722607612    -1.2235537857
    8      H       1.7863257824    -0.3666794617    -1.3280459360
    9      H       0.3294066881    -1.2270045495    -1.7927141959
   10      C       0.3925673896    -0.6388580219     0.2474403013
   11      C      -1.0999291698    -0.7760794151     0.5408408401
   12      H      -1.6347730854     0.1311033842     0.2597090060
   13      H      -1.2439088984    -0.9518107009     1.6058015072
   14      H      -1.5170005374    -1.6151596245    -0.0187456023
   15      O       1.0674390802    -1.8280767572     0.6386526602
   16      O       0.9584004234     0.4357977033     1.0013413374
   17      H       1.2653142922    -1.5864804552     1.5817527313
   18      O       1.1304677543    -0.0301325763     2.3902676553
   19      H      -0.2020436058     0.1830829591     3.4428336611
   20      O      -0.9015816971     0.2127581748     4.1488879546
   21      O      -1.0901688209     1.6827209891     4.3622166197
 ----------------------------------------------------------------
 Nuclear Repulsion Energy =   715.8512390633 hartrees
 There are       49 alpha and       49 beta electrons
 Discretize the solute cavity surface with Lebedev spheres
	Using 110 Lebedev grid points for each H atom
	Using 110 Lebedev grid points for other atoms
	Atomic van der Waals radii will be scaled by 1.20
 Remove points where switching function is < 1.0e-08
 Keep 1241 surface tesserae and discard 1069 interior tesserae
 Molecular Surface Area = 229.609 Angst**2
 Requested basis set is def2-TZVPD
 There are 208 shells and 546 basis functions
 A cutoff of  1.0D-14 yielded  18685 shell pairs
 There are    127051 function pairs (    160769 Cartesian)
 Smallest overlap matrix eigenvalue = 2.17E-06
 Guess MOs from SCF MO coefficient file
 Reading MOs from coefficient file
 Reading MOs from coefficient file
 An unrestricted hybrid HF-DFT SCF calculation will be
 performed using Pulay DIIS extrapolation
 Polarizable Continuum solvation model will be applied
 Exchange:     0.2000 Hartree-Fock + 0.0800 Slater + 0.7200 B88
 Correlation:  0.1900 VWN1RPA + 0.8100 LYP
 Using SG-1 standard quadrature grid
 Dispersion:   Grimme D3
 SCF converges when DIIS error is below 1.0E-08
Using Q-Chem read-in guess as SCF_GUESS READ specified.

 using 8 threads for integral computing
 -------------------------------------------------------
 OpenMP Integral computing Module                
 Release: version 1.0, May 2013, Q-Chem Inc. Pittsburgh 
 -------------------------------------------------------
 -------------------------------------------------------
 OpenMP BLAS3 based DFT computing Module                
 Release: version 1.0, May 2013, Q-Chem Inc. Pittsburgh 
 -------------------------------------------------------
 ---------------------------------------
  Cycle       Energy         DIIS Error
 ---------------------------------------
    1    -722.4875699573      3.69E-04
    2    -722.2566815530      3.05E-03
    3    -723.0720511204      5.00E-04
    4    -723.0871994001      2.37E-04
    5    -723.0896076585      1.62E-04
    6    -723.0910245082      1.22E-04
    7    -723.0917063819      9.55E-05
    8    -723.0921614992      7.41E-05
    9    -723.0923568767      6.25E-05
   10    -723.0925584118      4.77E-05
   11    -723.0927413554      2.85E-05
   12    -723.0928098294      1.58E-05
   13    -723.0928258124      1.10E-05
   14    -723.0928372104      5.33E-06
   15    -723.0928404933      1.29E-06
   16    -723.0928406917      1.95E-07
   17    -723.0928406963      2.32E-08
   18    -723.0928406963      3.16E-09 Convergence criterion met
 ---------------------------------------

************** Final PCM Free Energy Summary **************
 G_electrostatic  =      -0.60544146 hartree =    -379.92024999 kcal/mol
 G_cavitation     =       0.00000000 hartree =       0.00000000 kcal/mol
 G_dispersion     =       0.00000000 hartree =       0.00000000 kcal/mol
 G_repulsion      =       0.00000000 hartree =       0.00000000 kcal/mol
 --------------------------------------------------
 Non-electrostatic Free Energy =       0.00000000 hartree =       0.00000000 kcal/mol
 Total                         =      -0.60544146 hartree =    -379.92024999 kcal/mol
 --------------------------------------------------
 SCF Energy (H0 + V/2)                       =    -723.09284070 
 Solute Internal Energy (H0)                 =    -722.48739924 
 Total Free Energy (H0 + V/2 + non-elec)     =    -723.09284070 hartree
                                             = -453747.60594925 kcal/mol
***********************************************************

 <S^2> = 0.0000
 SCF time:  CPU 5692.63 s  wall 790.81 s
 SCF   energy in the final basis set = -723.09284070
 Total energy in the final basis set = -723.09284070
 
 --------------------------------------------------------------
 
                    Orbital Energies (a.u.)
 --------------------------------------------------------------
 
 Alpha MOs
 -- Occupied --
-19.131 -19.100 -19.091 -19.073 -19.057 -19.055 -19.044 -10.248
-10.243 -10.150 -10.150 -10.140  -1.057  -1.012  -0.975  -0.970
 -0.922  -0.815  -0.752  -0.738  -0.705  -0.641  -0.535  -0.500
 -0.482  -0.455  -0.449  -0.427  -0.423  -0.406  -0.402  -0.393
 -0.380  -0.361  -0.349  -0.343  -0.334  -0.331  -0.322  -0.305
 -0.300  -0.268  -0.247  -0.234  -0.226  -0.222  -0.198  -0.178
 -0.160
 -- Virtual --
  0.008   0.015   0.023   0.033   0.034   0.042   0.047   0.055
  0.064   0.066   0.072   0.076   0.080   0.083   0.093   0.097
  0.101   0.104   0.112   0.114   0.116   0.125   0.129   0.134
  0.137   0.144   0.148   0.158   0.162   0.165   0.172   0.181
  0.182   0.186   0.193   0.196   0.203   0.208   0.216   0.219
  0.226   0.229   0.230   0.238   0.244   0.248   0.254   0.261
  0.263   0.271   0.278   0.282   0.285   0.286   0.291   0.293
  0.303   0.310   0.312   0.319   0.319   0.328   0.331   0.335
  0.337   0.346   0.348   0.351   0.357   0.364   0.372   0.373
  0.379   0.383   0.389   0.393   0.395   0.404   0.408   0.417
  0.422   0.427   0.431   0.433   0.440   0.444   0.449   0.453
  0.460   0.464   0.468   0.470   0.476   0.478   0.484   0.487
  0.495   0.497   0.502   0.506   0.509   0.517   0.520   0.525
  0.526   0.535   0.538   0.539   0.547   0.552   0.559   0.563
  0.573   0.578   0.579   0.589   0.595   0.600   0.603   0.615
  0.622   0.630   0.639   0.642   0.643   0.652   0.660   0.670
  0.671   0.684   0.689   0.694   0.698   0.703   0.707   0.711
  0.714   0.727   0.731   0.741   0.745   0.750   0.755   0.761
  0.765   0.766   0.773   0.780   0.785   0.794   0.797   0.800
  0.809   0.810   0.818   0.830   0.834   0.848   0.857   0.861
  0.873   0.884   0.887   0.900   0.907   0.911   0.921   0.932
  0.942   0.945   0.950   0.963   0.969   0.977   0.980   0.996
  1.008   1.021   1.029   1.047   1.047   1.072   1.080   1.091
  1.097   1.107   1.111   1.125   1.134   1.142   1.153   1.154
  1.162   1.194   1.199   1.229   1.235   1.244   1.253   1.263
  1.281   1.298   1.305   1.328   1.332   1.346   1.352   1.369
  1.378   1.392   1.414   1.423   1.456   1.465   1.483   1.505
  1.512   1.538   1.560   1.576   1.609   1.613   1.636   1.651
  1.691   1.701   1.738   1.753   1.760   1.790   1.805   1.811
  1.818   1.833   1.837   1.842   1.849   1.853   1.873   1.878
  1.895   1.899   1.912   1.917   1.923   1.934   1.941   1.951
  1.959   1.984   1.996   2.012   2.048   2.056   2.069   2.077
  2.106   2.125   2.139   2.149   2.156   2.179   2.181   2.202
  2.216   2.220   2.239   2.246   2.265   2.277   2.301   2.313
  2.334   2.342   2.359   2.362   2.374   2.403   2.411   2.435
  2.444   2.464   2.475   2.485   2.503   2.521   2.549   2.570
  2.587   2.603   2.622   2.635   2.647   2.672   2.689   2.715
  2.744   2.750   2.780   2.799   2.810   2.826   2.842   2.857
  2.889   2.893   2.904   2.907   2.910   2.919   2.935   2.946
  2.971   2.973   2.987   3.007   3.017   3.044   3.075   3.077
  3.100   3.119   3.144   3.173   3.187   3.191   3.202   3.210
  3.248   3.259   3.265   3.271   3.287   3.312   3.344   3.358
  3.378   3.383   3.412   3.422   3.433   3.442   3.449   3.473
  3.477   3.487   3.499   3.500   3.532   3.549   3.563   3.579
  3.583   3.600   3.606   3.623   3.634   3.640   3.663   3.675
  3.695   3.700   3.709   3.742   3.754   3.778   3.808   3.832
  3.877   3.914   3.945   4.016   4.040   4.055   4.080   4.106
  4.111   4.128   4.170   4.196   4.231   4.253   4.288   4.354
  4.364   4.489   4.552   4.574   4.586   4.616   4.682   4.707
  4.720   4.734   4.779   4.824   4.856   4.872   4.907   4.910
  4.933   5.003   5.017   5.047   5.090   5.123   5.139   5.165
  5.210   5.226   5.250   5.250   5.258   5.261   5.265   5.268
  5.281   5.324   5.350   5.391   5.402   5.440   5.477   5.501
  5.505   5.542   5.568   5.602   5.615   5.628   5.668   5.734
  5.819   5.842   5.872   5.891   5.909   5.961   6.050   6.091
  6.131   6.192   6.193   6.212   6.238   6.314   6.390   6.469
  6.488   6.500   6.501   6.503   6.520   6.540   6.579   6.588
  6.594   6.623   6.636   6.653   6.693   6.722   6.779   6.839
  6.854   6.856   6.896   6.929   6.937   6.941   7.017   7.052
  7.093   7.104   7.132   7.184   7.245   7.279   7.291   7.310
  7.329   7.376   7.488   7.974   8.140  22.647  22.790  22.856
 22.912  23.611  43.737  44.139  44.189  44.255  44.308  44.433
 44.631
 
 Beta MOs
 -- Occupied --
-19.131 -19.100 -19.091 -19.073 -19.057 -19.055 -19.044 -10.248
-10.243 -10.150 -10.150 -10.140  -1.057  -1.012  -0.975  -0.970
 -0.922  -0.815  -0.752  -0.738  -0.705  -0.641  -0.535  -0.500
 -0.482  -0.455  -0.449  -0.427  -0.423  -0.406  -0.402  -0.393
 -0.380  -0.361  -0.349  -0.343  -0.334  -0.331  -0.322  -0.305
 -0.300  -0.268  -0.247  -0.234  -0.226  -0.222  -0.198  -0.178
 -0.160
 -- Virtual --
  0.008   0.015   0.023   0.033   0.034   0.042   0.047   0.055
  0.064   0.066   0.072   0.076   0.080   0.083   0.093   0.097
  0.101   0.104   0.112   0.114   0.116   0.125   0.129   0.134
  0.137   0.144   0.148   0.158   0.162   0.165   0.172   0.181
  0.182   0.186   0.193   0.196   0.203   0.208   0.216   0.219
  0.226   0.229   0.230   0.238   0.244   0.248   0.254   0.261
  0.263   0.271   0.278   0.282   0.285   0.286   0.291   0.293
  0.303   0.310   0.312   0.319   0.319   0.328   0.331   0.335
  0.337   0.346   0.348   0.351   0.357   0.364   0.372   0.373
  0.379   0.383   0.389   0.393   0.395   0.404   0.408   0.417
  0.422   0.427   0.431   0.433   0.440   0.444   0.449   0.453
  0.460   0.464   0.468   0.470   0.476   0.478   0.484   0.487
  0.495   0.497   0.502   0.506   0.509   0.517   0.520   0.525
  0.526   0.535   0.538   0.539   0.547   0.552   0.559   0.563
  0.573   0.578   0.579   0.589   0.595   0.600   0.603   0.615
  0.622   0.630   0.639   0.642   0.643   0.652   0.660   0.670
  0.671   0.684   0.689   0.694   0.698   0.703   0.707   0.711
  0.714   0.727   0.731   0.741   0.745   0.750   0.755   0.761
  0.765   0.766   0.773   0.780   0.785   0.794   0.797   0.800
  0.809   0.810   0.818   0.830   0.834   0.848   0.857   0.861
  0.873   0.884   0.887   0.900   0.907   0.911   0.921   0.932
  0.942   0.945   0.950   0.963   0.969   0.977   0.980   0.996
  1.008   1.021   1.029   1.047   1.047   1.072   1.080   1.091
  1.097   1.107   1.111   1.125   1.134   1.142   1.153   1.154
  1.162   1.194   1.199   1.229   1.235   1.244   1.253   1.263
  1.281   1.298   1.305   1.328   1.332   1.346   1.352   1.369
  1.378   1.392   1.414   1.423   1.456   1.465   1.483   1.505
  1.512   1.538   1.560   1.576   1.609   1.613   1.636   1.651
  1.691   1.701   1.738   1.753   1.760   1.790   1.805   1.811
  1.818   1.833   1.837   1.842   1.849   1.853   1.873   1.878
  1.895   1.899   1.912   1.917   1.923   1.934   1.941   1.951
  1.959   1.984   1.996   2.012   2.048   2.056   2.069   2.077
  2.106   2.125   2.139   2.149   2.156   2.179   2.181   2.202
  2.216   2.220   2.239   2.246   2.265   2.277   2.301   2.313
  2.334   2.342   2.359   2.362   2.374   2.403   2.411   2.435
  2.444   2.464   2.475   2.485   2.503   2.521   2.549   2.570
  2.587   2.603   2.622   2.635   2.647   2.672   2.689   2.715
  2.744   2.750   2.780   2.799   2.810   2.826   2.842   2.857
  2.889   2.893   2.904   2.907   2.910   2.919   2.935   2.946
  2.971   2.973   2.987   3.007   3.017   3.044   3.075   3.077
  3.100   3.119   3.144   3.173   3.187   3.191   3.202   3.210
  3.248   3.259   3.265   3.271   3.287   3.312   3.344   3.358
  3.378   3.383   3.412   3.422   3.433   3.442   3.449   3.473
  3.477   3.487   3.499   3.500   3.532   3.549   3.563   3.579
  3.583   3.600   3.606   3.623   3.634   3.640   3.663   3.675
  3.695   3.700   3.709   3.742   3.754   3.778   3.808   3.832
  3.877   3.914   3.945   4.016   4.040   4.055   4.080   4.106
  4.111   4.128   4.170   4.196   4.231   4.253   4.288   4.354
  4.364   4.489   4.552   4.574   4.586   4.616   4.682   4.707
  4.720   4.734   4.779   4.824   4.856   4.872   4.907   4.910
  4.933   5.003   5.017   5.047   5.090   5.123   5.139   5.165
  5.210   5.226   5.250   5.250   5.258   5.261   5.265   5.268
  5.281   5.324   5.350   5.391   5.402   5.440   5.477   5.501
  5.505   5.542   5.568   5.602   5.615   5.628   5.668   5.734
  5.819   5.842   5.872   5.891   5.909   5.961   6.050   6.091
  6.131   6.192   6.193   6.212   6.238   6.314   6.390   6.469
  6.488   6.500   6.501   6.503   6.520   6.540   6.579   6.588
  6.594   6.623   6.636   6.653   6.693   6.722   6.779   6.839
  6.854   6.856   6.896   6.929   6.937   6.941   7.017   7.052
  7.093   7.104   7.132   7.184   7.245   7.279   7.291   7.310
  7.329   7.376   7.488   7.974   8.140  22.647  22.790  22.856
 22.912  23.611  43.737  44.139  44.189  44.255  44.308  44.433
 44.631
 --------------------------------------------------------------
 
          Ground-State Mulliken Net Atomic Charges

     Atom                 Charge (a.u.)    Spin (a.u.)
  --------------------------------------------------------
      1 C                     0.211955      -0.000000
      2 O                    -0.782136       0.000000
      3 O                    -0.759751       0.000000
      4 C                    -0.427740       0.000000
      5 H                     0.252366      -0.000000
      6 H                     0.229877       0.000000
      7 C                    -0.424620       0.000000
      8 H                     0.225020       0.000000
      9 H                     0.193770      -0.000000
     10 C                     1.680743      -0.000000
     11 C                    -1.790100       0.000000
     12 H                     0.358201      -0.000000
     13 H                     0.350007       0.000000
     14 H                     0.304309      -0.000000
     15 O                    -0.693635       0.000000
     16 O                    -0.302604       0.000000
     17 H                     0.387490       0.000000
     18 O                    -1.004079       0.000000
     19 H                     0.385469      -0.000000
     20 O                    -0.490868      -0.000000
     21 O                    -0.903674       0.000000
  --------------------------------------------------------
  Sum of atomic charges =    -3.000000
  Sum of spin   charges =     0.000000

 -----------------------------------------------------------------
                    Cartesian Multipole Moments
 -----------------------------------------------------------------
    Charge (ESU x 10^10)
               -14.4096
    Dipole Moment (Debye)
         X      -2.2676      Y     -12.9575      Z     -12.3298
       Tot      18.0295
    Quadrupole Moments (Debye-Ang)
        XX     -97.2221     XY       8.9559     YY    -117.8832
        XZ      32.6449     YZ      -6.8968     ZZ    -288.1933
    Octopole Moments (Debye-Ang^2)
       XXX     -44.4690    XXY     -30.6173    XYY     -10.2992
       YYY    -126.0056    XXZ     -44.6628    XYZ      37.4946
       YYZ       3.9108    XZZ      36.9502    YZZ    -279.6922
       ZZZ    -212.1444
    Hexadecapole Moments (Debye-Ang^3)
      XXXX    -502.7406   XXXY      61.0856   XXYY    -228.9553
      XYYY      75.8354   YYYY    -941.2217   XXXZ     280.3375
      XXYZ      -8.4272   XYYZ     153.9814   YYYZ     209.0318
      XXZZ    -919.4102   XYZZ     138.1254   YYZZ   -1259.2586
      XZZZ     974.5476   YZZZ    -109.1955   ZZZZ   -7472.3798
 -----------------------------------------------------------------
 Calculating analytic gradient of the SCF energy
 Gradient of SCF Energy
            1           2           3           4           5           6
    1   0.0048634   0.0080576  -0.0216182  -0.0949579   0.0708496  -0.0352611
    2  -0.0258933  -0.0463088   0.0430983   0.1462997   0.0018134  -0.0675867
    3  -0.0326344   0.0243318   0.0316467   0.0967589   0.0068376  -0.0446622
            7           8           9          10          11          12
    1   0.2569874  -0.0806739   0.0354526  -0.0999825  -0.1840607   0.0460956
    2  -0.1913236  -0.0043686   0.0660178   0.0744993   0.0160527  -0.1245417
    3  -0.1434619   0.0042469   0.0332933   0.0134521   0.1067057   0.0375266
           13          14          15          16          17          18
    1   0.0264474   0.0390828   0.0271709  -0.0049703  -0.0156979   0.0307785
    2   0.0295436   0.0905921  -0.0027358   0.0398037  -0.0136938  -0.0155836
    3  -0.1307777   0.0625870   0.0279478  -0.0953850  -0.0889760   0.0999763
           19          20          21
    1  -0.0685830   0.0711401  -0.0111204
    2   0.0004489  -0.0977290   0.0815954
    3   0.0551506  -0.0722902   0.0077261
 Max gradient component =       2.570E-01
 RMS gradient           =       7.724E-02
 Computing fast CPCM-ISWIG gradient
 Updating gradient with PCM contributions...
 -- total gradient after adding PCM contribution --
---------------------------------------------------
  Atom         X              Y              Z     
---------------------------------------------------
   1       0.000584      -0.000274      -0.000151
   2      -0.000171       0.000095      -0.000024
   3      -0.000239       0.000176       0.000155
   4      -0.000172       0.000003      -0.000002
   5      -0.000018      -0.000013       0.000071
   6       0.000002       0.000002      -0.000025
   7       0.000016      -0.000033      -0.000014
   8      -0.000002       0.000006       0.000002
   9      -0.000001       0.000007      -0.000000
  10      -0.000020      -0.000021      -0.000026
  11       0.000002       0.000005       0.000002
  12      -0.000001      -0.000001       0.000006
  13      -0.000000      -0.000006      -0.000000
  14       0.000002      -0.000001      -0.000002
  15      -0.000002       0.000006      -0.000009
  16       0.000013       0.000023       0.000024
  17       0.000004       0.000006       0.000012
  18      -0.000002       0.000003      -0.000016
  19       0.000010       0.000006      -0.000017
  20      -0.000007       0.000014       0.000015
  21       0.000002      -0.000003      -0.000002
---------------------------------------------------
 Number of fixed atoms: 0
 Gradient time:  CPU 1161.43 s  wall 156.85 s
 Adding empirical dispersion correction 
 ----------------------------------------------------------------
 Doing -D3(BJ) with
 s6 =   1.00000
 s8 =   1.98890
 a1 =   0.39810
 a2 =   4.42110
 -D3 energy without 3body term =     -0.0301726021 hartrees
 ----------------------------------------------------------------
             Standard Nuclear Orientation (Angstroms)
    I     Atom           X                Y                Z
 ----------------------------------------------------------------
    1      C       0.4488159202     1.1922410740    -3.2709558192
    2      O       0.2062437699     2.3612039992    -3.6812360169
    3      O       0.9119312320     0.2557427828    -3.9729523743
    4      C       0.1181956199     0.9161064348    -1.7920719326
    5      H      -0.9736597233     0.9091300668    -1.7197448983
    6      H       0.4503597865     1.7773984891    -1.2104901404
    7      C       0.6993540473    -0.3722607612    -1.2235537857
    8      H       1.7863257824    -0.3666794617    -1.3280459360
    9      H       0.3294066881    -1.2270045495    -1.7927141959
   10      C       0.3925673896    -0.6388580219     0.2474403013
   11      C      -1.0999291698    -0.7760794151     0.5408408401
   12      H      -1.6347730854     0.1311033842     0.2597090060
   13      H      -1.2439088984    -0.9518107009     1.6058015072
   14      H      -1.5170005374    -1.6151596245    -0.0187456023
   15      O       1.0674390802    -1.8280767572     0.6386526602
   16      O       0.9584004234     0.4357977033     1.0013413374
   17      H       1.2653142922    -1.5864804552     1.5817527313
   18      O       1.1304677543    -0.0301325763     2.3902676553
   19      H      -0.2020436058     0.1830829591     3.4428336611
   20      O      -0.9015816971     0.2127581748     4.1488879546
   21      O      -1.0901688209     1.6827209891     4.3622166197
 ----------------------------------------------------------------
 Nuclear Repulsion Energy =   715.8496900875 hartrees
 There are       49 alpha and       49 beta electrons
 Discretize the solute cavity surface with Lebedev spheres
	Using 110 Lebedev grid points for each H atom
	Using 110 Lebedev grid points for other atoms
	Atomic van der Waals radii will be scaled by 1.20
 Remove points where switching function is < 1.0e-08
 Keep 1242 surface tesserae and discard 1068 interior tesserae
 Molecular Surface Area = 229.613 Angst**2
 Requested basis set is def2-TZVPD
 There are 208 shells and 546 basis functions
 A cutoff of  1.0D-14 yielded  18685 shell pairs
 There are    127051 function pairs (    160769 Cartesian)
 Smallest overlap matrix eigenvalue = 2.17E-06
 Guess MOs from SCF MO coefficient file
 Reading MOs from coefficient file
 Reading MOs from coefficient file
 An unrestricted hybrid HF-DFT SCF calculation will be
 performed using Pulay DIIS extrapolation
 Polarizable Continuum solvation model will be applied
 Exchange:     0.2000 Hartree-Fock + 0.0800 Slater + 0.7200 B88
 Correlation:  0.1900 VWN1RPA + 0.8100 LYP
 Using SG-1 standard quadrature grid
 Dispersion:   Grimme D3
 SCF converges when DIIS error is below 1.0E-08
Using Q-Chem read-in guess as SCF_GUESS READ specified.

 using 8 threads for integral computing
 -------------------------------------------------------
 OpenMP Integral computing Module                
 Release: version 1.0, May 2013, Q-Chem Inc. Pittsburgh 
 -------------------------------------------------------
 -------------------------------------------------------
 OpenMP BLAS3 based DFT computing Module                
 Release: version 1.0, May 2013, Q-Chem Inc. Pittsburgh 
 -------------------------------------------------------
 ---------------------------------------
  Cycle       Energy         DIIS Error
 ---------------------------------------
    1    -722.4870532918      3.70E-04
    2    -722.2556068113      3.05E-03
    3    -723.0720559495      5.00E-04
    4    -723.0872068824      2.37E-04
    5    -723.0896166055      1.62E-04
    6    -723.0910446325      1.21E-04
    7    -723.0917392893      9.42E-05
    8    -723.0922113682      7.14E-05
    9    -723.0924260032      5.78E-05
   10    -723.0926686466      3.73E-05
   11    -723.0928060128      1.70E-05
   12    -723.0928363689      5.97E-06
   13    -723.0928396625      2.88E-06
   14    -723.0928405752      8.71E-07
   15    -723.0928406631      1.85E-07
   16    -723.0928406669      2.82E-08
   17    -723.0928406670      1.03E-08
   18    -723.0928406670      1.37E-09 Convergence criterion met
 ---------------------------------------

************** Final PCM Free Energy Summary **************
 G_electrostatic  =      -0.60544604 hartree =    -379.92312451 kcal/mol
 G_cavitation     =       0.00000000 hartree =       0.00000000 kcal/mol
 G_dispersion     =       0.00000000 hartree =       0.00000000 kcal/mol
 G_repulsion      =       0.00000000 hartree =       0.00000000 kcal/mol
 --------------------------------------------------
 Non-electrostatic Free Energy =       0.00000000 hartree =       0.00000000 kcal/mol
 Total                         =      -0.60544604 hartree =    -379.92312451 kcal/mol
 --------------------------------------------------
 SCF Energy (H0 + V/2)                       =    -723.09284067 
 Solute Internal Energy (H0)                 =    -722.48739463 
 Total Free Energy (H0 + V/2 + non-elec)     =    -723.09284067 hartree
                                             = -453747.60593084 kcal/mol
***********************************************************

 <S^2> = 0.0000
 SCF time:  CPU 5722.62 s  wall 795.30 s
 SCF   energy in the final basis set = -723.09284067
 Total energy in the final basis set = -723.09284067
 
 --------------------------------------------------------------
 
                    Orbital Energies (a.u.)
 --------------------------------------------------------------
 
 Alpha MOs
 -- Occupied --
-19.131 -19.100 -19.091 -19.073 -19.057 -19.055 -19.044 -10.248
-10.243 -10.150 -10.150 -10.140  -1.057  -1.012  -0.975  -0.970
 -0.922  -0.815  -0.752  -0.738  -0.705  -0.641  -0.535  -0.500
 -0.482  -0.455  -0.449  -0.427  -0.423  -0.406  -0.402  -0.393
 -0.380  -0.361  -0.349  -0.343  -0.334  -0.331  -0.322  -0.305
 -0.300  -0.268  -0.247  -0.234  -0.226  -0.222  -0.198  -0.178
 -0.160
 -- Virtual --
  0.008   0.014   0.023   0.033   0.034   0.042   0.047   0.055
  0.064   0.066   0.072   0.076   0.080   0.083   0.093   0.097
  0.101   0.104   0.112   0.114   0.116   0.125   0.129   0.134
  0.137   0.144   0.148   0.158   0.162   0.165   0.172   0.181
  0.182   0.186   0.193   0.195   0.203   0.208   0.216   0.219
  0.226   0.229   0.230   0.238   0.244   0.248   0.254   0.261
  0.264   0.271   0.278   0.282   0.285   0.286   0.291   0.293
  0.303   0.311   0.312   0.319   0.319   0.328   0.331   0.335
  0.337   0.346   0.348   0.351   0.357   0.364   0.372   0.373
  0.379   0.383   0.389   0.393   0.395   0.404   0.408   0.417
  0.423   0.427   0.432   0.433   0.440   0.444   0.449   0.453
  0.460   0.464   0.468   0.470   0.476   0.478   0.484   0.487
  0.495   0.497   0.502   0.506   0.509   0.517   0.520   0.525
  0.526   0.535   0.537   0.539   0.547   0.552   0.559   0.563
  0.573   0.578   0.578   0.589   0.595   0.600   0.603   0.616
  0.622   0.630   0.639   0.642   0.643   0.652   0.660   0.669
  0.671   0.684   0.689   0.694   0.698   0.703   0.707   0.711
  0.714   0.727   0.731   0.741   0.745   0.750   0.755   0.761
  0.765   0.766   0.773   0.780   0.785   0.794   0.797   0.800
  0.809   0.810   0.818   0.830   0.834   0.847   0.857   0.861
  0.873   0.884   0.887   0.900   0.907   0.911   0.921   0.932
  0.942   0.945   0.950   0.963   0.969   0.977   0.980   0.996
  1.008   1.021   1.029   1.047   1.047   1.072   1.080   1.091
  1.097   1.107   1.111   1.125   1.134   1.143   1.153   1.154
  1.162   1.194   1.199   1.229   1.235   1.244   1.253   1.263
  1.281   1.298   1.305   1.328   1.332   1.346   1.352   1.369
  1.378   1.392   1.414   1.423   1.456   1.465   1.483   1.505
  1.512   1.538   1.560   1.576   1.609   1.613   1.636   1.651
  1.691   1.701   1.738   1.753   1.760   1.790   1.805   1.811
  1.818   1.833   1.837   1.842   1.849   1.853   1.873   1.878
  1.895   1.899   1.912   1.917   1.923   1.934   1.941   1.951
  1.959   1.984   1.996   2.012   2.048   2.056   2.069   2.077
  2.106   2.125   2.139   2.149   2.156   2.179   2.181   2.202
  2.216   2.220   2.239   2.246   2.265   2.277   2.301   2.313
  2.334   2.342   2.359   2.362   2.374   2.403   2.411   2.435
  2.444   2.464   2.475   2.485   2.503   2.521   2.549   2.571
  2.587   2.603   2.622   2.635   2.647   2.672   2.689   2.715
  2.744   2.750   2.780   2.799   2.810   2.826   2.842   2.857
  2.889   2.893   2.904   2.907   2.910   2.919   2.935   2.946
  2.971   2.973   2.987   3.007   3.017   3.044   3.075   3.077
  3.100   3.119   3.144   3.173   3.187   3.191   3.202   3.210
  3.248   3.259   3.265   3.271   3.287   3.312   3.344   3.358
  3.378   3.383   3.412   3.422   3.433   3.442   3.449   3.473
  3.477   3.487   3.499   3.499   3.532   3.549   3.563   3.579
  3.583   3.600   3.606   3.623   3.634   3.640   3.663   3.675
  3.695   3.700   3.709   3.742   3.754   3.778   3.807   3.832
  3.877   3.914   3.945   4.016   4.040   4.055   4.080   4.106
  4.111   4.128   4.170   4.196   4.231   4.253   4.288   4.354
  4.364   4.489   4.553   4.575   4.586   4.616   4.682   4.707
  4.720   4.734   4.779   4.825   4.856   4.872   4.907   4.911
  4.933   5.003   5.017   5.047   5.090   5.123   5.139   5.165
  5.210   5.226   5.250   5.250   5.258   5.261   5.265   5.268
  5.281   5.324   5.350   5.391   5.402   5.440   5.477   5.501
  5.505   5.542   5.568   5.602   5.615   5.628   5.668   5.734
  5.819   5.842   5.872   5.890   5.909   5.961   6.050   6.091
  6.131   6.192   6.193   6.213   6.238   6.314   6.390   6.469
  6.488   6.500   6.500   6.503   6.520   6.540   6.579   6.588
  6.594   6.623   6.636   6.653   6.693   6.722   6.779   6.839
  6.854   6.857   6.896   6.929   6.937   6.941   7.017   7.052
  7.093   7.104   7.132   7.184   7.245   7.279   7.291   7.310
  7.329   7.376   7.488   7.974   8.140  22.647  22.790  22.856
 22.912  23.610  43.737  44.139  44.188  44.255  44.308  44.433
 44.631
 
 Beta MOs
 -- Occupied --
-19.131 -19.100 -19.091 -19.073 -19.057 -19.055 -19.044 -10.248
-10.243 -10.150 -10.150 -10.140  -1.057  -1.012  -0.975  -0.970
 -0.922  -0.815  -0.752  -0.738  -0.705  -0.641  -0.535  -0.500
 -0.482  -0.455  -0.449  -0.427  -0.423  -0.406  -0.402  -0.393
 -0.380  -0.361  -0.349  -0.343  -0.334  -0.331  -0.322  -0.305
 -0.300  -0.268  -0.247  -0.234  -0.226  -0.222  -0.198  -0.178
 -0.160
 -- Virtual --
  0.008   0.014   0.023   0.033   0.034   0.042   0.047   0.055
  0.064   0.066   0.072   0.076   0.080   0.083   0.093   0.097
  0.101   0.104   0.112   0.114   0.116   0.125   0.129   0.134
  0.137   0.144   0.148   0.158   0.162   0.165   0.172   0.181
  0.182   0.186   0.193   0.195   0.203   0.208   0.216   0.219
  0.226   0.229   0.230   0.238   0.244   0.248   0.254   0.261
  0.264   0.271   0.278   0.282   0.285   0.286   0.291   0.293
  0.303   0.311   0.312   0.319   0.319   0.328   0.331   0.335
  0.337   0.346   0.348   0.351   0.357   0.364   0.372   0.373
  0.379   0.383   0.389   0.393   0.395   0.404   0.408   0.417
  0.423   0.427   0.432   0.433   0.440   0.444   0.449   0.453
  0.460   0.464   0.468   0.470   0.476   0.478   0.484   0.487
  0.495   0.497   0.502   0.506   0.509   0.517   0.520   0.525
  0.526   0.535   0.537   0.539   0.547   0.552   0.559   0.563
  0.573   0.578   0.578   0.589   0.595   0.600   0.603   0.616
  0.622   0.630   0.639   0.642   0.643   0.652   0.660   0.669
  0.671   0.684   0.689   0.694   0.698   0.703   0.707   0.711
  0.714   0.727   0.731   0.741   0.745   0.750   0.755   0.761
  0.765   0.766   0.773   0.780   0.785   0.794   0.797   0.800
  0.809   0.810   0.818   0.830   0.834   0.847   0.857   0.861
  0.873   0.884   0.887   0.900   0.907   0.911   0.921   0.932
  0.942   0.945   0.950   0.963   0.969   0.977   0.980   0.996
  1.008   1.021   1.029   1.047   1.047   1.072   1.080   1.091
  1.097   1.107   1.111   1.125   1.134   1.143   1.153   1.154
  1.162   1.194   1.199   1.229   1.235   1.244   1.253   1.263
  1.281   1.298   1.305   1.328   1.332   1.346   1.352   1.369
  1.378   1.392   1.414   1.423   1.456   1.465   1.483   1.505
  1.512   1.538   1.560   1.576   1.609   1.613   1.636   1.651
  1.691   1.701   1.738   1.753   1.760   1.790   1.805   1.811
  1.818   1.833   1.837   1.842   1.849   1.853   1.873   1.878
  1.895   1.899   1.912   1.917   1.923   1.934   1.941   1.951
  1.959   1.984   1.996   2.012   2.048   2.056   2.069   2.077
  2.106   2.125   2.139   2.149   2.156   2.179   2.181   2.202
  2.216   2.220   2.239   2.246   2.265   2.277   2.301   2.313
  2.334   2.342   2.359   2.362   2.374   2.403   2.411   2.435
  2.444   2.464   2.475   2.485   2.503   2.521   2.549   2.571
  2.587   2.603   2.622   2.635   2.647   2.672   2.689   2.715
  2.744   2.750   2.780   2.799   2.810   2.826   2.842   2.857
  2.889   2.893   2.904   2.907   2.910   2.919   2.935   2.946
  2.971   2.973   2.987   3.007   3.017   3.044   3.075   3.077
  3.100   3.119   3.144   3.173   3.187   3.191   3.202   3.210
  3.248   3.259   3.265   3.271   3.287   3.312   3.344   3.358
  3.378   3.383   3.412   3.422   3.433   3.442   3.449   3.473
  3.477   3.487   3.499   3.499   3.532   3.549   3.563   3.579
  3.583   3.600   3.606   3.623   3.634   3.640   3.663   3.675
  3.695   3.700   3.709   3.742   3.754   3.778   3.807   3.832
  3.877   3.914   3.945   4.016   4.040   4.055   4.080   4.106
  4.111   4.128   4.170   4.196   4.231   4.253   4.288   4.354
  4.364   4.489   4.553   4.575   4.586   4.616   4.682   4.707
  4.720   4.734   4.779   4.825   4.856   4.872   4.907   4.911
  4.933   5.003   5.017   5.047   5.090   5.123   5.139   5.165
  5.210   5.226   5.250   5.250   5.258   5.261   5.265   5.268
  5.281   5.324   5.350   5.391   5.402   5.440   5.477   5.501
  5.505   5.542   5.568   5.602   5.615   5.628   5.668   5.734
  5.819   5.842   5.872   5.890   5.909   5.961   6.050   6.091
  6.131   6.192   6.193   6.213   6.238   6.314   6.390   6.469
  6.488   6.500   6.500   6.503   6.520   6.540   6.579   6.588
  6.594   6.623   6.636   6.653   6.693   6.722   6.779   6.839
  6.854   6.857   6.896   6.929   6.937   6.941   7.017   7.052
  7.093   7.104   7.132   7.184   7.245   7.279   7.291   7.310
  7.329   7.376   7.488   7.974   8.140  22.647  22.790  22.856
 22.912  23.610  43.737  44.139  44.188  44.255  44.308  44.433
 44.631
 --------------------------------------------------------------
 
          Ground-State Mulliken Net Atomic Charges

     Atom                 Charge (a.u.)    Spin (a.u.)
  --------------------------------------------------------
      1 C                     0.211380      -0.000000
      2 O                    -0.781635       0.000000
      3 O                    -0.760702       0.000000
      4 C                    -0.426822       0.000000
      5 H                     0.251829       0.000000
      6 H                     0.230078       0.000000
      7 C                    -0.424001      -0.000000
      8 H                     0.225041       0.000000
      9 H                     0.193606       0.000000
     10 C                     1.680719       0.000000
     11 C                    -1.790086      -0.000000
     12 H                     0.358149      -0.000000
     13 H                     0.350026       0.000000
     14 H                     0.304324      -0.000000
     15 O                    -0.693629       0.000000
     16 O                    -0.302654      -0.000000
     17 H                     0.387479       0.000000
     18 O                    -1.004033       0.000000
     19 H                     0.385472       0.000000
     20 O                    -0.490866       0.000000
     21 O                    -0.903674      -0.000000
  --------------------------------------------------------
  Sum of atomic charges =    -3.000000
  Sum of spin   charges =     0.000000

 -----------------------------------------------------------------
                    Cartesian Multipole Moments
 -----------------------------------------------------------------
    Charge (ESU x 10^10)
               -14.4096
    Dipole Moment (Debye)
         X      -2.2727      Y     -12.9505      Z     -12.3255
       Tot      18.0222
    Quadrupole Moments (Debye-Ang)
        XX     -97.2281     XY       8.9539     YY    -117.8637
        XZ      32.6667     YZ      -6.9219     ZZ    -288.2160
    Octopole Moments (Debye-Ang^2)
       XXX     -44.4486    XXY     -30.6184    XYY     -10.2819
       YYY    -125.9430    XXZ     -44.6373    XYZ      37.5023
       YYZ       3.8481    XZZ      36.8789    YZZ    -279.5948
       ZZZ    -212.0187
    Hexadecapole Moments (Debye-Ang^3)
      XXXX    -502.7026   XXXY      61.1195   XXYY    -228.9340
      XYYY      75.9127   YYYY    -941.0128   XXXZ     280.2819
      XXYZ      -8.4263   XYYZ     153.9276   YYYZ     208.8026
      XXZZ    -919.4943   XYZZ     138.1111   YYZZ   -1259.0113
      XZZZ     974.7663   YZZZ    -109.6043   ZZZZ   -7472.9977
 -----------------------------------------------------------------
 Calculating analytic gradient of the SCF energy
 Gradient of SCF Energy
            1           2           3           4           5           6
    1   0.0044722   0.0080908  -0.0213924  -0.0948842   0.0708247  -0.0352841
    2  -0.0250741  -0.0466459   0.0425927   0.1462900   0.0018313  -0.0675248
    3  -0.0321576   0.0243780   0.0312244   0.0965313   0.0068190  -0.0445779
            7           8           9          10          11          12
    1   0.2570865  -0.0806432   0.0354939  -0.1000649  -0.1840444   0.0460913
    2  -0.1913897  -0.0043894   0.0659732   0.0745751   0.0160676  -0.1245479
    3  -0.1433996   0.0042575   0.0332699   0.0134703   0.1066845   0.0375362
           13          14          15          16          17          18
    1   0.0264487   0.0390834   0.0271737  -0.0049709  -0.0157000   0.0307816
    2   0.0295435   0.0905841  -0.0027344   0.0398027  -0.0136874  -0.0155806
    3  -0.1307770   0.0625891   0.0279532  -0.0953889  -0.0889713   0.0999715
           19          20          21
    1  -0.0685813   0.0711390  -0.0111203
    2   0.0004482  -0.0977272   0.0815930
    3   0.0551481  -0.0722881   0.0077272
 Max gradient component =       2.571E-01
 RMS gradient           =       7.723E-02
 Computing fast CPCM-ISWIG gradient
 Updating gradient with PCM contributions...
 -- total gradient after adding PCM contribution --
---------------------------------------------------
  Atom         X              Y              Z     
---------------------------------------------------
   1      -0.000602       0.000282       0.000170
   2       0.000168      -0.000104       0.000030
   3       0.000244      -0.000200      -0.000159
   4       0.000173       0.000036      -0.000033
   5       0.000015       0.000001      -0.000062
   6      -0.000007      -0.000012       0.000025
   7       0.000003      -0.000027       0.000042
   8      -0.000000       0.000005       0.000005
   9      -0.000003       0.000004      -0.000004
  10      -0.000012      -0.000031      -0.000036
  11       0.000003       0.000004       0.000002
  12      -0.000002      -0.000000       0.000006
  13      -0.000001      -0.000006      -0.000000
  14       0.000002      -0.000001      -0.000002
  15      -0.000001       0.000002      -0.000000
  16       0.000013       0.000023       0.000026
  17       0.000004       0.000005       0.000012
  18      -0.000002       0.000002      -0.000016
  19       0.000010       0.000006      -0.000017
  20      -0.000007       0.000014       0.000015
  21       0.000002      -0.000003      -0.000002
---------------------------------------------------
 Number of fixed atoms: 0
 Gradient time:  CPU 1151.81 s  wall 155.41 s
 Adding empirical dispersion correction 
 ----------------------------------------------------------------
 Doing -D3(BJ) with
 s6 =   1.00000
 s8 =   1.98890
 a1 =   0.39810
 a2 =   4.42110
 -D3 energy without 3body term =     -0.0301720547 hartrees
 ----------------------------------------------------------------
             Standard Nuclear Orientation (Angstroms)
    I     Atom           X                Y                Z
 ----------------------------------------------------------------
    1      C       0.4498159202     1.1932410740    -3.2709558192
    2      O       0.2062437699     2.3612039992    -3.6812360169
    3      O       0.9119312320     0.2557427828    -3.9729523743
    4      C       0.1181956199     0.9161064348    -1.7920719326
    5      H      -0.9736597233     0.9091300668    -1.7197448983
    6      H       0.4503597865     1.7773984891    -1.2104901404
    7      C       0.6993540473    -0.3722607612    -1.2235537857
    8      H       1.7863257824    -0.3666794617    -1.3280459360
    9      H       0.3294066881    -1.2270045495    -1.7927141959
   10      C       0.3925673896    -0.6388580219     0.2474403013
   11      C      -1.0999291698    -0.7760794151     0.5408408401
   12      H      -1.6347730854     0.1311033842     0.2597090060
   13      H      -1.2439088984    -0.9518107009     1.6058015072
   14      H      -1.5170005374    -1.6151596245    -0.0187456023
   15      O       1.0674390802    -1.8280767572     0.6386526602
   16      O       0.9584004234     0.4357977033     1.0013413374
   17      H       1.2653142922    -1.5864804552     1.5817527313
   18      O       1.1304677543    -0.0301325763     2.3902676553
   19      H      -0.2020436058     0.1830829591     3.4428336611
   20      O      -0.9015816971     0.2127581748     4.1488879546
   21      O      -1.0901688209     1.6827209891     4.3622166197
 ----------------------------------------------------------------
 Nuclear Repulsion Energy =   715.8474660867 hartrees
 There are       49 alpha and       49 beta electrons
 Discretize the solute cavity surface with Lebedev spheres
	Using 110 Lebedev grid points for each H atom
	Using 110 Lebedev grid points for other atoms
	Atomic van der Waals radii will be scaled by 1.20
 Remove points where switching function is < 1.0e-08
 Keep 1241 surface tesserae and discard 1069 interior tesserae
 Molecular Surface Area = 229.611 Angst**2
 Requested basis set is def2-TZVPD
 There are 208 shells and 546 basis functions
 A cutoff of  1.0D-14 yielded  18685 shell pairs
 There are    127051 function pairs (    160769 Cartesian)
 Smallest overlap matrix eigenvalue = 2.17E-06
 Guess MOs from SCF MO coefficient file
 Reading MOs from coefficient file
 Reading MOs from coefficient file
 An unrestricted hybrid HF-DFT SCF calculation will be
 performed using Pulay DIIS extrapolation
 Polarizable Continuum solvation model will be applied
 Exchange:     0.2000 Hartree-Fock + 0.0800 Slater + 0.7200 B88
 Correlation:  0.1900 VWN1RPA + 0.8100 LYP
 Using SG-1 standard quadrature grid
 Dispersion:   Grimme D3
 SCF converges when DIIS error is below 1.0E-08
Using Q-Chem read-in guess as SCF_GUESS READ specified.

 using 8 threads for integral computing
 -------------------------------------------------------
 OpenMP Integral computing Module                
 Release: version 1.0, May 2013, Q-Chem Inc. Pittsburgh 
 -------------------------------------------------------
 -------------------------------------------------------
 OpenMP BLAS3 based DFT computing Module                
 Release: version 1.0, May 2013, Q-Chem Inc. Pittsburgh 
 -------------------------------------------------------
 ---------------------------------------
  Cycle       Energy         DIIS Error
 ---------------------------------------
    1    -722.4876616451      3.69E-04
    2    -722.2570628215      3.05E-03
    3    -723.0720462008      5.00E-04
    4    -723.0871999708      2.37E-04
    5    -723.0896112119      1.62E-04
    6    -723.0910327576      1.22E-04
    7    -723.0917206907      9.49E-05
    8    -723.0921854020      7.28E-05
    9    -723.0923931838      6.00E-05
   10    -723.0926263166      4.16E-05
   11    -723.0927851792      2.12E-05
   12    -723.0928297031      9.15E-06
   13    -723.0928367132      5.12E-06
   14    -723.0928395416      1.76E-06
   15    -723.0928399046      3.49E-07
   16    -723.0928399188      5.49E-08
   17    -723.0928399192      1.36E-08
   18    -723.0928399192      1.71E-09 Convergence criterion met
 ---------------------------------------

************** Final PCM Free Energy Summary **************
 G_electrostatic  =      -0.60543613 hartree =    -379.91690259 kcal/mol
 G_cavitation     =       0.00000000 hartree =       0.00000000 kcal/mol
 G_dispersion     =       0.00000000 hartree =       0.00000000 kcal/mol
 G_repulsion      =       0.00000000 hartree =       0.00000000 kcal/mol
 --------------------------------------------------
 Non-electrostatic Free Energy =       0.00000000 hartree =       0.00000000 kcal/mol
 Total                         =      -0.60543613 hartree =    -379.91690259 kcal/mol
 --------------------------------------------------
 SCF Energy (H0 + V/2)                       =    -723.09283992 
 Solute Internal Energy (H0)                 =    -722.48740379 
 Total Free Energy (H0 + V/2 + non-elec)     =    -723.09283992 hartree
                                             = -453747.60546156 kcal/mol
***********************************************************

 <S^2> = 0.0000
 SCF time:  CPU 5745.22 s  wall 799.12 s
 SCF   energy in the final basis set = -723.09283992
 Total energy in the final basis set = -723.09283992
 
 --------------------------------------------------------------
 
                    Orbital Energies (a.u.)
 --------------------------------------------------------------
 
 Alpha MOs
 -- Occupied --
-19.131 -19.100 -19.091 -19.073 -19.057 -19.055 -19.044 -10.248
-10.243 -10.150 -10.150 -10.140  -1.057  -1.012  -0.975  -0.970
 -0.922  -0.815  -0.752  -0.738  -0.705  -0.641  -0.535  -0.500
 -0.482  -0.455  -0.449  -0.427  -0.423  -0.406  -0.402  -0.393
 -0.380  -0.361  -0.349  -0.343  -0.334  -0.331  -0.322  -0.305
 -0.300  -0.268  -0.247  -0.234  -0.226  -0.222  -0.198  -0.178
 -0.160
 -- Virtual --
  0.008   0.015   0.023   0.033   0.034   0.042   0.047   0.055
  0.064   0.066   0.072   0.076   0.080   0.083   0.093   0.097
  0.101   0.104   0.112   0.114   0.116   0.125   0.129   0.134
  0.137   0.144   0.148   0.158   0.162   0.165   0.172   0.181
  0.182   0.186   0.193   0.195   0.203   0.208   0.216   0.219
  0.226   0.229   0.230   0.238   0.244   0.248   0.254   0.261
  0.264   0.271   0.278   0.282   0.285   0.286   0.291   0.293
  0.303   0.310   0.312   0.319   0.319   0.328   0.331   0.335
  0.337   0.346   0.348   0.351   0.357   0.364   0.372   0.373
  0.379   0.383   0.389   0.393   0.395   0.404   0.408   0.417
  0.422   0.427   0.432   0.433   0.440   0.444   0.449   0.453
  0.460   0.464   0.468   0.470   0.476   0.478   0.484   0.487
  0.495   0.497   0.502   0.506   0.509   0.517   0.520   0.525
  0.526   0.535   0.537   0.539   0.547   0.552   0.559   0.563
  0.573   0.578   0.579   0.589   0.595   0.600   0.603   0.616
  0.622   0.630   0.639   0.642   0.643   0.652   0.660   0.670
  0.671   0.684   0.689   0.694   0.698   0.703   0.707   0.711
  0.714   0.727   0.731   0.741   0.745   0.750   0.755   0.761
  0.765   0.766   0.772   0.780   0.785   0.794   0.797   0.800
  0.809   0.810   0.818   0.830   0.834   0.847   0.857   0.861
  0.873   0.884   0.887   0.900   0.907   0.911   0.921   0.932
  0.942   0.945   0.950   0.963   0.969   0.977   0.980   0.996
  1.008   1.021   1.029   1.047   1.047   1.072   1.080   1.091
  1.097   1.106   1.111   1.125   1.134   1.142   1.153   1.154
  1.162   1.194   1.199   1.229   1.235   1.244   1.253   1.263
  1.281   1.298   1.305   1.328   1.332   1.346   1.352   1.369
  1.378   1.392   1.414   1.423   1.456   1.465   1.483   1.505
  1.512   1.538   1.560   1.576   1.609   1.613   1.636   1.651
  1.691   1.701   1.738   1.753   1.760   1.790   1.805   1.811
  1.818   1.833   1.837   1.842   1.849   1.853   1.873   1.878
  1.895   1.899   1.912   1.917   1.923   1.934   1.941   1.951
  1.959   1.984   1.996   2.013   2.048   2.056   2.069   2.077
  2.106   2.125   2.139   2.149   2.156   2.179   2.181   2.202
  2.216   2.220   2.239   2.246   2.265   2.276   2.301   2.313
  2.333   2.342   2.359   2.362   2.375   2.403   2.411   2.435
  2.444   2.464   2.475   2.485   2.503   2.521   2.549   2.570
  2.587   2.603   2.622   2.635   2.647   2.672   2.689   2.715
  2.744   2.750   2.780   2.799   2.810   2.826   2.842   2.857
  2.889   2.893   2.904   2.907   2.910   2.919   2.935   2.946
  2.971   2.973   2.988   3.007   3.017   3.044   3.075   3.077
  3.100   3.119   3.144   3.173   3.187   3.191   3.202   3.210
  3.248   3.259   3.265   3.271   3.287   3.312   3.344   3.358
  3.378   3.383   3.412   3.422   3.433   3.442   3.449   3.473
  3.477   3.487   3.499   3.499   3.531   3.549   3.563   3.579
  3.583   3.600   3.606   3.623   3.634   3.640   3.663   3.675
  3.695   3.700   3.709   3.742   3.754   3.778   3.808   3.832
  3.877   3.914   3.945   4.016   4.040   4.055   4.080   4.105
  4.111   4.128   4.170   4.196   4.231   4.253   4.288   4.354
  4.364   4.489   4.553   4.574   4.585   4.616   4.682   4.706
  4.720   4.734   4.779   4.824   4.856   4.872   4.907   4.910
  4.933   5.003   5.017   5.047   5.090   5.123   5.139   5.165
  5.210   5.226   5.249   5.250   5.258   5.261   5.265   5.268
  5.281   5.324   5.350   5.391   5.402   5.440   5.477   5.501
  5.505   5.542   5.568   5.602   5.615   5.628   5.668   5.734
  5.819   5.842   5.872   5.891   5.909   5.961   6.050   6.091
  6.132   6.192   6.193   6.212   6.238   6.314   6.390   6.469
  6.488   6.500   6.501   6.503   6.520   6.540   6.579   6.588
  6.594   6.623   6.636   6.653   6.693   6.722   6.779   6.839
  6.854   6.856   6.896   6.929   6.937   6.941   7.017   7.052
  7.093   7.104   7.132   7.184   7.245   7.279   7.291   7.310
  7.329   7.376   7.488   7.974   8.140  22.647  22.790  22.856
 22.912  23.611  43.737  44.139  44.188  44.255  44.308  44.433
 44.631
 
 Beta MOs
 -- Occupied --
-19.131 -19.100 -19.091 -19.073 -19.057 -19.055 -19.044 -10.248
-10.243 -10.150 -10.150 -10.140  -1.057  -1.012  -0.975  -0.970
 -0.922  -0.815  -0.752  -0.738  -0.705  -0.641  -0.535  -0.500
 -0.482  -0.455  -0.449  -0.427  -0.423  -0.406  -0.402  -0.393
 -0.380  -0.361  -0.349  -0.343  -0.334  -0.331  -0.322  -0.305
 -0.300  -0.268  -0.247  -0.234  -0.226  -0.222  -0.198  -0.178
 -0.160
 -- Virtual --
  0.008   0.015   0.023   0.033   0.034   0.042   0.047   0.055
  0.064   0.066   0.072   0.076   0.080   0.083   0.093   0.097
[...]
 O         -0.045  0.060 -0.022   -0.006  0.044  0.015   -0.020 -0.011  0.002
 O         -0.025  0.017 -0.026    0.010  0.014 -0.011   -0.026 -0.033  0.012
 H          0.076 -0.068 -0.003    0.220 -0.459  0.030   -0.027  0.139 -0.022
 O         -0.004 -0.003  0.011   -0.004 -0.014 -0.014    0.002  0.009  0.005
 H          0.013 -0.009  0.011    0.001  0.000 -0.004    0.006  0.001  0.012
 O         -0.000  0.000 -0.001   -0.001  0.000  0.001    0.001 -0.000 -0.001
 O         -0.000  0.000  0.000    0.000 -0.000 -0.000   -0.000  0.000  0.000
 TransDip   0.248 -0.283  0.052    0.085 -0.305  0.098    0.202  0.102 -0.002

 Mode:                37                     38                     39
 Frequency:      1271.65                1315.24                1365.28
 Force Cnst:      1.4015                 1.2037                 2.2589
 Red. Mass:       1.4710                 1.1810                 2.0568
 IR Active:          YES                    YES                    YES
 IR Intens:        1.857                 13.534                166.041
 Raman Active:       YES                    YES                    YES
               X      Y      Z        X      Y      Z        X      Y      Z
 C          0.020  0.035 -0.025   -0.024 -0.000 -0.017    0.027  0.058 -0.142
 O          0.005 -0.052  0.024    0.005 -0.007  0.004    0.015 -0.094  0.046
 O         -0.005  0.005  0.002    0.001  0.004  0.004   -0.029  0.049  0.050
 C         -0.018  0.080 -0.103   -0.047 -0.033 -0.017    0.003  0.047 -0.079
 H          0.030 -0.326  0.535   -0.071  0.343 -0.296    0.030 -0.163  0.332
 H          0.013 -0.277  0.415    0.100 -0.294  0.285   -0.049 -0.145  0.248
 C         -0.034  0.065 -0.052    0.031  0.017  0.035    0.002 -0.103  0.151
 H          0.013 -0.236  0.373    0.071 -0.365  0.388   -0.059  0.314 -0.470
 H          0.027 -0.165  0.246   -0.123  0.364 -0.375    0.011  0.285 -0.433
 C          0.049 -0.070  0.032    0.076  0.037 -0.031   -0.003  0.053 -0.027
 C         -0.001  0.021 -0.021   -0.007 -0.008  0.007   -0.033 -0.021  0.019
 H         -0.114 -0.021  0.062   -0.048 -0.027  0.008    0.136  0.056 -0.055
 H          0.008 -0.031 -0.024   -0.069  0.013  0.002    0.109  0.085  0.049
 H         -0.014 -0.036  0.068   -0.083  0.028  0.004    0.111  0.018 -0.134
 O         -0.009  0.014  0.001   -0.008  0.002  0.006    0.002 -0.008 -0.010
 O         -0.001  0.012 -0.006   -0.009 -0.011  0.002   -0.003 -0.012  0.001
 H          0.034 -0.076  0.014    0.036 -0.043 -0.002   -0.049  0.124 -0.022
 O         -0.002 -0.003 -0.002    0.000  0.001  0.001    0.002  0.002  0.004
 H          0.003 -0.008  0.000    0.003 -0.002  0.004   -0.006  0.039  0.000
 O         -0.000  0.000 -0.000    0.000  0.000 -0.000   -0.000 -0.002  0.001
 O         -0.000  0.000  0.000   -0.000  0.000  0.000    0.001 -0.000 -0.001
 TransDip   0.026  0.032  0.015    0.090  0.059 -0.048    0.025  0.298 -0.284

 Mode:                40                     41                     42
 Frequency:      1383.44                1385.06                1411.16
 Force Cnst:      1.6209                 3.4269                 1.5326
 Red. Mass:       1.4374                 3.0319                 1.3063
 IR Active:          YES                    YES                    YES
 IR Intens:      135.286                309.072                240.809
 Raman Active:       YES                    YES                    YES
               X      Y      Z        X      Y      Z        X      Y      Z
 C          0.015  0.011 -0.070   -0.051 -0.057  0.279    0.007  0.010 -0.040
 O          0.005 -0.028  0.014   -0.023  0.126 -0.063    0.003 -0.019  0.010
 O         -0.014  0.026  0.027    0.056 -0.100 -0.104   -0.007  0.012  0.014
 C         -0.007 -0.022  0.054    0.013  0.043 -0.135   -0.009 -0.008  0.029
 H         -0.017  0.020 -0.115    0.038 -0.003  0.306   -0.017  0.021 -0.086
 H          0.043  0.067 -0.112   -0.134 -0.154  0.250    0.037  0.027 -0.049
 C         -0.012  0.037 -0.042   -0.008 -0.031  0.060    0.005  0.004 -0.044
 H          0.015 -0.148  0.190   -0.022  0.038 -0.083    0.021 -0.067  0.076
 H          0.033 -0.109  0.142    0.021  0.146 -0.217    0.019 -0.008 -0.036
 C          0.034 -0.009 -0.037    0.045  0.014  0.020    0.021 -0.002  0.112
 C         -0.136 -0.013  0.040   -0.105 -0.021  0.014   -0.012 -0.001 -0.038
 H          0.404  0.211 -0.215    0.308  0.194 -0.056    0.048  0.099  0.180
 H          0.497  0.017  0.118    0.365  0.104  0.092    0.020  0.043 -0.017
 H          0.442 -0.077 -0.275    0.349 -0.085 -0.200    0.064 -0.126  0.107
 O         -0.004  0.012  0.017   -0.001 -0.016 -0.019    0.002 -0.031 -0.043
 O         -0.001  0.002  0.003   -0.005 -0.006 -0.001   -0.005 -0.003 -0.006
 H          0.092 -0.191  0.016   -0.122  0.253 -0.019   -0.249  0.514 -0.038
 O          0.001 -0.002 -0.003    0.001  0.003  0.004    0.001  0.000  0.004
 H         -0.005  0.019 -0.008   -0.014  0.133  0.002   -0.035  0.736  0.018
 O         -0.001 -0.001  0.001   -0.002 -0.006  0.002   -0.013 -0.031  0.013
 O          0.001 -0.000 -0.000    0.003 -0.002 -0.003    0.016 -0.009 -0.016
 TransDip   0.227 -0.061 -0.289   -0.039  0.029  0.561   -0.060  0.443  0.216

 Mode:                43                     44                     45
 Frequency:      1418.72                1451.78                1472.79
 Force Cnst:      1.4354                 1.3798                 1.3694
 Red. Mass:       1.2104                 1.1111                 1.0715
 IR Active:          YES                    YES                    YES
 IR Intens:       17.755                 21.462                  2.804
 Raman Active:       YES                    YES                    YES
               X      Y      Z        X      Y      Z        X      Y      Z
 C         -0.003 -0.007  0.021    0.001 -0.028  0.018    0.002 -0.014  0.001
 O         -0.002  0.011 -0.006   -0.004  0.018 -0.007   -0.001  0.007 -0.003
 O          0.003 -0.006 -0.007    0.000  0.002 -0.000   -0.001  0.003  0.002
 C          0.006  0.004 -0.015   -0.044  0.066  0.009   -0.013  0.016  0.014
 H          0.011 -0.016  0.047   -0.042 -0.565 -0.315   -0.016 -0.142 -0.116
 H         -0.020 -0.012  0.023    0.627 -0.166 -0.067    0.177 -0.036 -0.029
 C         -0.004  0.002  0.029    0.017 -0.032  0.007   -0.026  0.036  0.017
 H         -0.014  0.042 -0.048    0.018  0.238  0.112   -0.035 -0.337 -0.211
 H         -0.015 -0.011  0.055   -0.258  0.083  0.026    0.388 -0.093 -0.078
 C         -0.019 -0.005 -0.091    0.004  0.000 -0.006   -0.003 -0.015  0.021
 C          0.023  0.001  0.034   -0.005  0.001  0.002    0.016 -0.040  0.004
 H         -0.112 -0.133 -0.161    0.025  0.011 -0.020   -0.257 -0.131  0.168
 H         -0.032 -0.016  0.016    0.008 -0.025 -0.001    0.069  0.503  0.099
 H         -0.101  0.156 -0.122    0.011 -0.012  0.009    0.019  0.239 -0.400
 O         -0.002  0.028  0.036   -0.001  0.001 -0.001    0.001 -0.002 -0.005
 O          0.001  0.002  0.007    0.000 -0.000  0.001   -0.000  0.001 -0.002
 H          0.224 -0.443  0.031    0.001  0.004 -0.002   -0.022  0.045 -0.001
 O          0.002 -0.011 -0.004   -0.000  0.000  0.000    0.000  0.001  0.000
 H         -0.029  0.786  0.005    0.000  0.002  0.000   -0.007 -0.046 -0.008
 O         -0.016 -0.032  0.017   -0.000 -0.000  0.000    0.001  0.002 -0.000
 O          0.017 -0.011 -0.017    0.000 -0.000 -0.000   -0.001  0.001  0.001
 TransDip  -0.053 -0.090 -0.086    0.066 -0.130 -0.030    0.035 -0.023 -0.034

 Mode:                46                     47                     48
 Frequency:      1481.86                1487.62                1547.00
 Force Cnst:      1.4260                 1.4145                12.5755
 Red. Mass:       1.1022                 1.0848                 8.9185
 IR Active:          YES                    YES                    YES
 IR Intens:       43.219                  6.869               1135.786
 Raman Active:       YES                    YES                    YES
               X      Y      Z        X      Y      Z        X      Y      Z
 C          0.002 -0.016  0.008   -0.000 -0.003 -0.001   -0.233  0.664  0.138
 O         -0.002  0.010 -0.004   -0.000  0.001 -0.000    0.053 -0.233  0.065
 O         -0.000  0.002 -0.000   -0.000  0.001  0.001    0.107 -0.226 -0.154
 C         -0.013  0.018  0.006    0.006 -0.005 -0.004    0.005 -0.051  0.026
 H         -0.012 -0.151 -0.074    0.006  0.047  0.009   -0.016 -0.131 -0.286
 H          0.164 -0.045 -0.011   -0.045  0.007  0.009    0.283  0.113 -0.358
 C         -0.035  0.032  0.046    0.009 -0.007  0.007   -0.014  0.006  0.020
 H         -0.052 -0.393 -0.289    0.007  0.120  0.050   -0.027 -0.032 -0.044
 H          0.479 -0.083 -0.133   -0.134  0.016  0.067    0.065 -0.001 -0.008
 C         -0.007  0.024 -0.037   -0.008 -0.012 -0.063    0.003 -0.002 -0.018
 C         -0.007  0.026 -0.016   -0.006 -0.024 -0.036   -0.000 -0.001 -0.000
 H          0.227  0.163  0.025    0.072  0.232  0.622    0.001  0.011  0.031
 H         -0.170 -0.326 -0.091   -0.347  0.381 -0.004   -0.027  0.016 -0.001
 H          0.045 -0.258  0.367    0.355 -0.243  0.052    0.018 -0.012  0.003
 O          0.000  0.004  0.011   -0.001  0.012  0.017   -0.000  0.002  0.005
 O         -0.001 -0.003  0.001    0.001  0.001  0.004   -0.000  0.000  0.001
 H          0.048 -0.100  0.005    0.106 -0.193  0.012    0.023 -0.047  0.005
 O          0.001 -0.001  0.000    0.000 -0.002 -0.001    0.000 -0.000 -0.000
 H          0.006  0.041  0.005    0.001  0.027 -0.003    0.001  0.004 -0.001
 O         -0.001 -0.002  0.001   -0.001 -0.001  0.001   -0.000 -0.000  0.000
 O          0.001 -0.001 -0.001    0.000 -0.000 -0.001    0.000 -0.000 -0.000
 TransDip   0.064 -0.177 -0.094   -0.003 -0.082 -0.019   -0.337  1.016  0.140

 Mode:                49                     50                     51
 Frequency:      3034.54                3042.99                3047.51
 Force Cnst:      5.7572                 5.6713                 5.7953
 Red. Mass:       1.0612                 1.0395                 1.0591
 IR Active:          YES                    YES                    YES
 IR Intens:        5.217                 43.641                 56.205
 Raman Active:       YES                    YES                    YES
               X      Y      Z        X      Y      Z        X      Y      Z
 C         -0.001  0.001 -0.001   -0.000  0.001 -0.000   -0.001  0.001  0.001
 O          0.000 -0.000  0.000    0.000 -0.000  0.000    0.000 -0.000 -0.000
 O         -0.000 -0.000  0.000    0.000 -0.000 -0.000    0.000 -0.001 -0.000
 C         -0.057  0.021  0.019   -0.023  0.011  0.009   -0.016  0.005  0.005
 H          0.812  0.018 -0.052    0.337  0.007 -0.022    0.221  0.004 -0.014
 H         -0.121 -0.266 -0.174   -0.060 -0.135 -0.089   -0.032 -0.071 -0.047
 C          0.019 -0.008 -0.007   -0.001  0.006  0.004   -0.044  0.036  0.031
 H         -0.276 -0.005  0.025    0.047  0.002 -0.002    0.742  0.017 -0.065
 H          0.049  0.100  0.065   -0.032 -0.073 -0.049   -0.212 -0.452 -0.303
 C         -0.000 -0.000  0.001    0.001 -0.000 -0.000   -0.001  0.001 -0.000
 C          0.017 -0.000  0.001   -0.044 -0.012 -0.002    0.011 -0.001  0.000
 H         -0.109  0.194 -0.060    0.232 -0.418  0.130   -0.066  0.118 -0.037
 H         -0.015 -0.027  0.156    0.048  0.069 -0.432   -0.011 -0.017  0.094
 H         -0.077 -0.164 -0.109    0.232  0.491  0.329   -0.042 -0.089 -0.059
 O         -0.000  0.000 -0.000   -0.000  0.000  0.000    0.000 -0.000  0.000
 O          0.000  0.000 -0.000   -0.000 -0.000  0.000    0.000 -0.000 -0.000
 H         -0.000  0.001  0.001   -0.002 -0.000 -0.007   -0.000 -0.001 -0.003
 O         -0.000 -0.000 -0.000    0.000  0.000 -0.000   -0.000 -0.000  0.000
 H         -0.000 -0.000 -0.000    0.008  0.000 -0.008   -0.006 -0.000  0.006
 O          0.000 -0.000 -0.000   -0.001  0.000  0.001    0.000 -0.000 -0.000
 O         -0.000  0.000  0.000    0.000 -0.000 -0.000   -0.000  0.000  0.000
 TransDip  -0.021  0.069  0.012   -0.205  0.010 -0.052   -0.160  0.152  0.094

 Mode:                52                     53                     54
 Frequency:      3072.37                3093.64                3107.90
 Force Cnst:      6.0935                 6.2143                 6.2674
 Red. Mass:       1.0956                 1.1020                 1.1013
 IR Active:          YES                    YES                    YES
 IR Intens:        6.235                 78.161                 45.954
 Raman Active:       YES                    YES                    YES
               X      Y      Z        X      Y      Z        X      Y      Z
 C         -0.001 -0.001  0.000   -0.000 -0.001 -0.000    0.000  0.000 -0.000
 O          0.000  0.000  0.000    0.000  0.000  0.000   -0.000 -0.000  0.000
 O         -0.000  0.000  0.000   -0.000  0.000 -0.000   -0.000  0.000  0.000
 C         -0.040 -0.049 -0.032   -0.037 -0.034 -0.021    0.005  0.001  0.001
 H          0.258 -0.005 -0.029    0.285 -0.003 -0.024   -0.062 -0.000  0.005
 H          0.234  0.602  0.407    0.157  0.409  0.273   -0.004 -0.013 -0.009
 C          0.041  0.030  0.017   -0.058 -0.041 -0.024   -0.002 -0.003 -0.002
 H         -0.346  0.001  0.039    0.478 -0.002 -0.050    0.012  0.000 -0.002
 H         -0.155 -0.362 -0.248    0.213  0.501  0.338    0.019  0.043  0.030
 C          0.001  0.000 -0.000   -0.002 -0.001 -0.000   -0.000 -0.002 -0.001
 C         -0.000 -0.006 -0.000   -0.001  0.000  0.003    0.009 -0.087 -0.027
 H         -0.020  0.033 -0.011    0.008 -0.014  0.005   -0.342  0.579 -0.194
 H          0.001 -0.001 -0.008    0.005  0.007 -0.039   -0.020 -0.046  0.157
 H          0.017  0.035  0.024    0.003  0.004  0.003    0.262  0.522  0.356
 O         -0.000 -0.000  0.000    0.000  0.000 -0.000   -0.000  0.000 -0.001
 O         -0.000 -0.000 -0.000    0.000  0.000 -0.000   -0.000  0.000  0.000
 H          0.000 -0.000  0.002    0.001  0.000  0.004    0.006  0.001  0.017
 O         -0.000  0.000 -0.000    0.000  0.000  0.000   -0.000  0.000  0.000
 H         -0.001 -0.000  0.001    0.006  0.000 -0.006    0.002  0.000 -0.002
 O          0.000 -0.000 -0.000   -0.000  0.000  0.000   -0.000 -0.000  0.000
 O          0.000  0.000  0.000    0.000 -0.000 -0.000   -0.000 -0.000 -0.000
 TransDip   0.042 -0.060 -0.032   -0.208 -0.174 -0.083    0.031 -0.209 -0.049

 Mode:                55                     56                     57
 Frequency:      3126.48                3156.14                3263.65
 Force Cnst:      6.3466                 6.3131                 6.6748
 Red. Mass:       1.1020                 1.0757                 1.0636
 IR Active:          YES                    YES                    YES
 IR Intens:       30.600               1936.169                373.679
 Raman Active:       YES                    YES                    YES
               X      Y      Z        X      Y      Z        X      Y      Z
 C         -0.000 -0.000  0.000    0.000  0.000 -0.000    0.000 -0.000 -0.000
 O         -0.000  0.000 -0.000   -0.000 -0.000  0.000    0.000 -0.000  0.000
 O          0.000 -0.000 -0.000   -0.000  0.000  0.000   -0.000 -0.000  0.000
 C         -0.003 -0.001 -0.001   -0.000 -0.000  0.000   -0.000  0.000  0.000
 H          0.029 -0.001 -0.002    0.005 -0.000 -0.000    0.001  0.000 -0.000
 H          0.004  0.012  0.008    0.001  0.002  0.001   -0.001 -0.004 -0.002
 C         -0.001 -0.001  0.000    0.000 -0.000 -0.000   -0.000 -0.000  0.001
 H          0.008  0.000 -0.001   -0.001 -0.000 -0.000    0.001  0.000 -0.000
 H          0.002  0.006  0.004    0.003  0.006  0.006   -0.002 -0.006 -0.005
 C          0.000  0.001 -0.002   -0.001  0.000 -0.002   -0.002  0.007 -0.004
 C         -0.015  0.026 -0.087   -0.001  0.000 -0.001   -0.000  0.001 -0.000
 H          0.210 -0.365  0.101    0.009 -0.013  0.004    0.013 -0.015  0.004
 H         -0.114 -0.138  0.844   -0.003 -0.002  0.008   -0.001  0.000  0.004
 H          0.088  0.193  0.112    0.006  0.010  0.006   -0.003 -0.005 -0.003
 O          0.000  0.000  0.001   -0.002 -0.002 -0.010   -0.013 -0.012 -0.057
 O          0.000  0.000 -0.000   -0.000  0.000  0.001   -0.000 -0.001 -0.002
 H         -0.002 -0.002 -0.014    0.048  0.007  0.178    0.243  0.116  0.943
 O         -0.000 -0.000 -0.000   -0.002  0.002  0.002   -0.000  0.002  0.002
 H          0.011  0.000 -0.011   -0.687 -0.010  0.699    0.128  0.002 -0.129
 O         -0.001 -0.000  0.001    0.047 -0.002 -0.047   -0.008  0.000  0.008
 O          0.000  0.000 -0.000   -0.001  0.002  0.001    0.000 -0.000 -0.000
 TransDip  -0.034  0.059 -0.164   -0.797  0.387  1.096    0.266  0.328  0.452

 STANDARD THERMODYNAMIC QUANTITIES AT   298.15 K  AND     1.00 ATM

   This Molecule has  0 Imaginary Frequencies
   Zero point vibrational energy:       93.197 kcal/mol

   Atom    1 Element C  Has Mass   12.00000
   Atom    2 Element O  Has Mass   15.99491
   Atom    3 Element O  Has Mass   15.99491
   Atom    4 Element C  Has Mass   12.00000
   Atom    5 Element H  Has Mass    1.00783
   Atom    6 Element H  Has Mass    1.00783
   Atom    7 Element C  Has Mass   12.00000
   Atom    8 Element H  Has Mass    1.00783
   Atom    9 Element H  Has Mass    1.00783
   Atom   10 Element C  Has Mass   12.00000
   Atom   11 Element C  Has Mass   12.00000
   Atom   12 Element H  Has Mass    1.00783
   Atom   13 Element H  Has Mass    1.00783
   Atom   14 Element H  Has Mass    1.00783
   Atom   15 Element O  Has Mass   15.99491
   Atom   16 Element O  Has Mass   15.99491
   Atom   17 Element H  Has Mass    1.00783
   Atom   18 Element O  Has Mass   15.99491
   Atom   19 Element H  Has Mass    1.00783
   Atom   20 Element O  Has Mass   15.99491
   Atom   21 Element O  Has Mass   15.99491
   Molecular Mass:   181.034840 amu
   Principal axes and moments of inertia in amu*Bohr^2:
                             1           2           3
    Eigenvalues --     1157.99814  5318.18110  5925.61969
          X              -0.13427    -0.39274     0.90980
          Y              -0.08895     0.91918     0.38366
          Z               0.98695     0.02941     0.15835
   Rotational Symmetry Number is   1
   The Molecule is an Asymmetric Top
   Translational Enthalpy:        0.889 kcal/mol
   Rotational Enthalpy:           0.889 kcal/mol
   Vibrational Enthalpy:        100.401 kcal/mol
   gas constant (RT):             0.592 kcal/mol
   Translational Entropy:        41.487  cal/mol.K
   Rotational Entropy:           31.967  cal/mol.K
   Vibrational Entropy:          51.281  cal/mol.K

   Total Enthalpy:              102.771 kcal/mol
   Total Entropy:               124.735  cal/mol.K
Archival summary:
1\1\g4-12\FREQ\ProcedureUnspecified\BasisUnspecified\759(3-,1)\leeping\FriMay116:33:472020FriMay116:33:472020\0\\#,FREQ,ProcedureUnspecified,BasisUnspecified,\\-3,1\O\C,1,1.42948\O,2,1.42223,1,107.2\H,3,0.993459,2,98.76,1,31.2255,0\O,1,1.47506,2,107.777,3,-42.6782,0\C,2,1.52611,1,107.304,3,-116.277,0\H,6,1.09151,2,107.318,1,176.085,0\H,6,1.092,2,107.051,1,61.5665,0\C,6,1.52343,2,115.515,1,-61.124,0\H,9,1.09105,6,110.643,2,56.4654,0\H,9,1.09427,6,110.523,2,-60.4825,0\C,2,1.52724,1,110.674,3,119.503,0\H,12,1.08892,2,109.366,1,-58.6515,0\H,12,1.08999,2,110.805,1,61.237,0\H,12,1.09139,2,110.123,1,-178.503,0\C,9,1.54056,6,115.322,2,179.043,0\O,16,1.25832,9,118.764,6,14.5046,0\O,16,1.26259,9,115.872,6,-166.611,0\H,5,1.71142,1,116.675,2,-88.1658,0\O,19,0.994357,5,171.181,1,166.98,0\O,20,1.49729,19,102.655,5,127.719,0\\\@

 Total job time:  110009.48s(wall), 791882.76s(cpu) 
 Fri May  1 16:33:47 2020

        *************************************************************
        *                                                           *
        *  Thank you very much for using Q-Chem.  Have a nice day.  *
        *                                                           *
        *************************************************************


