21   
From 2-transition-freq.out: Frame 1 / 127, Energy=    -723.0587998517
C        0.4896174721    0.9335027394   -3.3765187097
O        0.2319549758    2.0550288498   -3.8974854120
O        0.9926862780   -0.0498280642   -3.9790057245
C        0.1303474574    0.7883555104   -1.8868453222
H       -0.9574001929    0.8786815139   -1.8233963774
H        0.5309285826    1.6602778494   -1.3656902427
C        0.5994832749   -0.4930171712   -1.2117471238
H        1.6820332063   -0.5924910727   -1.3098657795
H        0.1528838638   -1.3597003005   -1.7046107669
C        0.2721993619   -0.5966472771    0.2845547178
C       -1.2331477220   -0.5619039403    0.5632123081
H       -1.6593248309    0.4014835991    0.2814492020
H       -1.4073602763   -0.7185189725    1.6268358923
H       -1.7440598583   -1.3466325101    0.0019936662
O        0.7928125618   -1.8612597208    0.7314955055
O        0.9487150280    0.4258939837    0.9480585962
H        0.9435919388   -1.6619975320    1.6801916735
O        0.9616242818   -0.0510109086    2.6427506445
H        0.0480574845    0.1595765717    3.2571987107
O       -0.7735065588    0.2905588709    4.2326995319
O       -1.0021363268    1.6996479798    4.3047250102
