
Running Job 1 of 1 qc-freq1.in
qchem qc-freq1.in_26203.0 /scratch/leeping//qc-freq1.d/ 1
/home/leeping/opt/qchem/5.0.2-openmp/exe/qcprog.exe_s qc-freq1.in_26203.0 /scratch/leeping//qc-freq1.d/
Check license passed

                  Welcome to Q-Chem
     A Quantum Leap Into The Future Of Chemistry


 Q-Chem 5.0, Q-Chem, Inc., Pleasanton, CA (2017)

 Yihan Shao,  Zhengting Gan,  E. Epifanovsky,  A. T. B. Gilbert,  M. Wormit,  
 J. Kussmann,  A. W. Lange,  A. Behn,  Jia Deng,  Xintian Feng,  D. Ghosh,  
 M. Goldey,  P. R. Horn,  L. D. Jacobson,  I. Kaliman,  T. Kus,  A. Landau,  
 Jie Liu,  E. I. Proynov,  R. M. Richard,  R. P. Steele,  E. J. Sundstrom,  
 H. L. Woodcock III,  P. M. Zimmerman,  D. Zuev,  B. Albrecht,  E. Alguire,  
 S. A. Baeppler,  D. Barton,  Z. Benda,  Y. A. Bernard,  E. J. Berquist,  
 K. B. Bravaya,  H. Burton,  D. Casanova,  Chun-Min Chang,  Yunqing Chen,  
 A. Chien,  K. D. Closser,  M. P. Coons,  S. Dasgupta,  A. L. Dempwolff,  
 M. Diedenhofen,  Hainam Do,  R. G. Edgar,  Po-Tung Fang,  S. Fatehi,  
 Qingguo Feng,  J. Fosso-Tande,  Qinghui Ge,  A. Ghysels,  G. Gidofalvi,  
 J. Gomes,  J. Gonthier,  A. Gunina,  M. W. D. Hanson-Heine,  
 P. H. P. Harbach,  A. W. Hauser,  J. E. Herr,  E. G. Hohenstein,  
 Z. C. Holden,  Kerwin Hui,  T.-C. Jagau,  Hyunjun Ji,  B. Kaduk,  
 K. Khistyaev,  Jaehoon Kim,  P. Klunzinger,  K. Koh,  D. Kosenkov,  
 L. Koulias,  T. Kowalczyk,  C. M. Krauter,  A. Kunitsa,  Ka Un Lao,  
 A. Laurent,  K. V. Lawler,  Joonho Lee,  D. Lefrancois,  S. Lehtola,  
 D. S. Levine,  Yi-Pei Li,  You-Sheng Lin,  Fenglai Liu,  E. Livshits,  
 A. Luenser,  P. Manohar,  E. Mansoor,  S. F. Manzer,  Shan-Ping Mao,  
 Yuezhi Mao,  N. Mardirossian,  A. V. Marenich,  T. Markovich,  
 L. A. Martinez-Martinez,  S. A. Maurer,  N. J. Mayhall,  S. C. McKenzie,  
 J.-M. Mewes,  A. F. Morrison,  J. W. Mullinax,  K. Nanda,  
 T. S. Nguyen-Beck,  R. Olivares-Amaya,  J. A. Parkhill,  T. M. Perrine,  
 F. Plasser,  S. Prager,  A. Prociuk,  E. Ramos,  D. R. Rehn,  F. Rob,  
 M. Schneider,  N. Sergueev,  S. M. Sharada,  S. Sharma,  D. W. Small,  
 T. Stauch,  T. Stein,  Yu-Chuan Su,  A. J. W. Thom,  A. Tkatchenko,  
 T. Tsuchimochi,  L. Vogt,  O. Vydrov,  M. A. Watson,  J. Wenzel,  
 M. de Wergifosse,  T. A. Wesolowski,  A. White,  J. Witte,  A. Yamada,  
 Jun Yang,  K. Yao,  S. Yeganeh,  S. R. Yost,  Zhi-Qiang You,  A. Zech,  
 Igor Ying Zhang,  Xing Zhang,  Yan Zhao,  Ying Zhu,  B. R. Brooks,  
 G. K. L. Chan,  C. J. Cramer,  M. S. Gordon,  W. J. Hehre,  A. Klamt,  
 M. W. Schmidt,  C. D. Sherrill,  D. G. Truhlar,  A. Aspuru-Guzik,  R. Baer,  
 A. T. Bell,  N. A. Besley,  Jeng-Da Chai,  R. A. DiStasio Jr.,  A. Dreuw,  
 B. D. Dunietz,  T. R. Furlani,  Chao-Ping Hsu,  Yousung Jung,  Jing Kong,  
 D. S. Lambrecht,  WanZhen Liang,  C. Ochsenfeld,  V. A. Rassolov,  
 L. V. Slipchenko,  J. E. Subotnik,  T. Van Voorhis,  J. M. Herbert,  
 A. I. Krylov,  P. M. W. Gill,  M. Head-Gordon

 Contributors to earlier versions of Q-Chem not listed above: 
 R. D. Adamson,  B. Austin,  J. Baker,  G. J. O. Beran,  K. Brandhorst,  
 S. T. Brown,  E. F. C. Byrd,  A. K. Chakraborty,  C.-L. Cheng,  
 Siu Hung Chien,  D. M. Chipman,  D. L. Crittenden,  H. Dachsel,  
 R. J. Doerksen,  A. D. Dutoi,  L. Fusti-Molnar,  W. A. Goddard III,  
 A. Golubeva-Zadorozhnaya,  S. R. Gwaltney,  G. Hawkins,  A. Heyden,  
 S. Hirata,  G. Kedziora,  F. J. Keil,  C. Kelley,  Jihan Kim,  R. A. King,  
 R. Z. Khaliullin,  P. P. Korambath,  W. Kurlancheek,  A. M. Lee,  M. S. Lee,  
 S. V. Levchenko,  Ching Yeh Lin,  D. Liotard,  R. C. Lochan,  I. Lotan,  
 P. E. Maslen,  N. Nair,  D. P. O'Neill,  D. Neuhauser,  E. Neuscamman,  
 C. M. Oana,  R. Olson,  B. Peters,  R. Peverati,  P. A. Pieniazek,  
 Y. M. Rhee,  J. Ritchie,  M. A. Rohrdanz,  E. Rosta,  N. J. Russ,  
 H. F. Schaefer III,  N. E. Schultz,  N. Shenvi,  A. C. Simmonett,  A. Sodt,  
 D. Stuck,  K. S. Thanthiriwatte,  V. Vanovschi,  Tao Wang,  A. Warshel,  
 C. F. Williams,  Q. Wu,  X. Xu,  W. Zhang

 Please cite Q-Chem as follows:
 Y. Shao et al., Mol. Phys. 113, 184-215 (2015)
 DOI: 10.1080/00268976.2014.952696

 Q-Chem 5.0.2 for Intel X86 EM64T Linux

 Parts of Q-Chem use Armadillo 5.200.1 (Boston Tea Smuggler).
 http://arma.sourceforge.net/

 Q-Chem begins on Thu Apr 30 09:59:48 2020  

Host: 
0

     Scratch files written to /scratch/leeping//qc-freq1.d//
 Dec517 15110_ 26548  26544 5633   
Processing $rem in /home/leeping/opt/qchem/5.0.2-openmp/config/preferences.
 MEM_STATIC 2000
 MEM_TOTAL  8000
 SYMMETRY   OFF
 SYM_IGNORE TRUE 
Symmetry turned off for PCM/SM12/SMD calculation

Checking the input file for inconsistencies... 	...done.

--------------------------------------------------------------
User input:
--------------------------------------------------------------
$molecule
-3 1
C       -0.3085324018    2.9751450296   -3.5906380872
O       -0.8865719458    2.6177461922   -4.6472830770
O        0.5790022472    3.8577937366   -3.4840288716
C       -0.7127125217    2.2220895752   -2.2777120244
H       -1.7461361190    1.8887057773   -2.3914857157
H       -0.6536773936    2.9337785307   -1.4528704974
C        0.1893373470    1.0720607559   -2.0419131611
H        1.1306331789    1.2089021543   -1.5265658697
H        0.0191232928    0.1289042194   -2.5449752742
C        1.1327625534    2.4137718080    1.3505753455
C       -0.3408224975    2.0582850848    1.5416199360
H       -0.9838749100    2.9219097331    1.3804635573
H       -0.5146739594    1.6468696545    2.5365892539
H       -0.6086244973    1.2857915527    0.8164805974
O        1.9808638440    1.5528538909    1.7352339261
O        1.4174434732    3.5130698179    0.8165201030
H        1.5074642261    0.0431856954    2.5079041894
O        1.3731902306   -0.8352553943    2.9358485418
H        0.4349168623   -0.8610383853    3.2545732544
O       -1.1817592058   -1.0126314048    3.8714195315
O       -1.4110549014    0.0969348008    4.5785957256
$end

$rem
jobtype               freq
method                b3lyp
basis                 def2-tzvpd
dft_d                 d3_bj
symmetry              off
sym_ignore            true
incdft                false
incfock               0
!scf_algorithm        diis_gdm
scf_convergence       8
thresh                14
unrestricted          true
!purecart             112
scf_guess             read
max_scf_cycles        1000
geom_opt_max_cycles   500
geom_opt_dmax         100
geom_opt_tol_gradient 10
solvent_method        pcm
ideriv                1
rpath_tol_displacement 1000
rpath_max_cycles      100
rpath_direction       1
$end

$pcm
theory              cosmo
method              iswig
Radii               bondi
vdwScale            1.20
hpoints             110
heavypoints         110
$end

$solvent
dielectric 78.400000
$end

--------------------------------------------------------------
 Adding empirical dispersion correction 
 ----------------------------------------------------------------
 Doing -D3(BJ) with
 s6 =   1.00000
 s8 =   1.98890
 a1 =   0.39810
 a2 =   4.42110
 -D3 energy without 3body term =     -0.0253882376 hartrees
 ----------------------------------------------------------------
             Standard Nuclear Orientation (Angstroms)
    I     Atom           X                Y                Z
 ----------------------------------------------------------------
    1      C      -0.3085324018     2.9751450296    -3.5906380872
    2      O      -0.8865719458     2.6177461922    -4.6472830770
    3      O       0.5790022472     3.8577937366    -3.4840288716
    4      C      -0.7127125217     2.2220895752    -2.2777120244
    5      H      -1.7461361190     1.8887057773    -2.3914857157
    6      H      -0.6536773936     2.9337785307    -1.4528704974
    7      C       0.1893373470     1.0720607559    -2.0419131611
    8      H       1.1306331789     1.2089021543    -1.5265658697
    9      H       0.0191232928     0.1289042194    -2.5449752742
   10      C       1.1327625534     2.4137718080     1.3505753455
   11      C      -0.3408224975     2.0582850848     1.5416199360
   12      H      -0.9838749100     2.9219097331     1.3804635573
   13      H      -0.5146739594     1.6468696545     2.5365892539
   14      H      -0.6086244973     1.2857915527     0.8164805974
   15      O       1.9808638440     1.5528538909     1.7352339261
   16      O       1.4174434732     3.5130698179     0.8165201030
   17      H       1.5074642261     0.0431856954     2.5079041894
   18      O       1.3731902306    -0.8352553943     2.9358485418
   19      H       0.4349168623    -0.8610383853     3.2545732544
   20      O      -1.1817592058    -1.0126314048     3.8714195315
   21      O      -1.4110549014     0.0969348008     4.5785957256
 ----------------------------------------------------------------
 Nuclear Repulsion Energy =   638.8801933437 hartrees
 There are       49 alpha and       49 beta electrons
 Requested basis set is def2-TZVPD
 There are 208 shells and 546 basis functions

 Total QAlloc Memory Limit   8000 MB
 Mega-Array Size      1956 MB
 MEM_STATIC part      2000 MB
 Discretize the solute cavity surface with Lebedev spheres
	Using 110 Lebedev grid points for each H atom
	Using 110 Lebedev grid points for other atoms
	Atomic van der Waals radii will be scaled by 1.20
 Remove points where switching function is < 1.0e-08
 Keep 1412 surface tesserae and discard 898 interior tesserae
 Molecular Surface Area = 270.160 Angst**2
 A cutoff of  1.0D-14 yielded  17693 shell pairs
 There are    119239 function pairs (    150282 Cartesian)
 
 -------------------------------------------------------
 OpenMP Integral Computing Module                       
 Release: version 1.0, May 2013, Q-Chem Inc. Pittsburgh 
 -------------------------------------------------------
 Integral Job Info:
 Integral job number is                      11
 Integral operator is                         1
 short-range coefficients                     0
 long-range coefficients              100000000
 Omega coefficients                           0
 if combine SR and LR in K                    0
 Integral screening is                        0
 Integral computing path is                   2
 max size of driver memory is            800000
 size of driver memory is                776718
 size of scratch memory is              4384136
 max col of scratch BK array              10000
 max len of scratch array in speh3          662
 max len of scratch index in speh4           32
 max int batch size is                      520
 min int batch size is                       52
 fixed nKL is                                52
 max L of basis functions is                  3
 order of int derivative is                   0
 number of shells is                        208
 number of basis is                         618
 number of cartesian basis is               618
 number of contracted shell pairs         17693
 number of primitive shell pairs          34359
 maxK2 (contraction) of shell pair           36
 max number of K2 of shell pair               1
 max number of CS2 of shell pair           3124
 max number of PS2 of shell pair           3864
 mem total for path MDJ                  837116
 -------------------------------------------------------
 Smallest overlap matrix eigenvalue = 5.85E-06
 Guess MOs from SCF MO coefficient file
 Reading MOs from coefficient file
 Reading MOs from coefficient file
 An unrestricted hybrid HF-DFT SCF calculation will be
 performed using Pulay DIIS extrapolation
 Polarizable Continuum solvation model will be applied
 Exchange:     0.2000 Hartree-Fock + 0.0800 Slater + 0.7200 B88
 Correlation:  0.1900 VWN1RPA + 0.8100 LYP
 Using SG-1 standard quadrature grid
 Dispersion:   Grimme D3
 SCF converges when DIIS error is below 1.0E-08
Using Q-Chem read-in guess as SCF_GUESS READ specified.

 using 8 threads for integral computing
 -------------------------------------------------------
 OpenMP Integral computing Module                
 Release: version 1.0, May 2013, Q-Chem Inc. Pittsburgh 
 -------------------------------------------------------
 -------------------------------------------------------
 OpenMP BLAS3 based DFT computing Module                
 Release: version 1.0, May 2013, Q-Chem Inc. Pittsburgh 
 -------------------------------------------------------
 ---------------------------------------
  Cycle       Energy         DIIS Error
 ---------------------------------------
    1    -722.6097590828      2.90E-04
    2    -723.1524984916      4.36E-04
    3    -723.1646318185      2.05E-04
    4    -723.1664718484      1.32E-04
    5    -723.1672884956      1.04E-04
    6    -723.1678674698      8.05E-05
    7    -723.1682232851      6.15E-05
    8    -723.1684797232      4.24E-05
    9    -723.1685947779      3.03E-05
   10    -723.1686711310      1.82E-05
   11    -723.1687072162      7.19E-06
   12    -723.1687136514      1.33E-06
   13    -723.1687138654      3.05E-07
   14    -723.1687138766      6.63E-08
   15    -723.1687138773      3.76E-08
   16    -723.1687138777      2.79E-08
   17    -723.1687138787      1.65E-08
   18    -723.1687138799      1.56E-08
   19    -723.1687138828      1.43E-08
   20    -723.1687138838      1.12E-08
   21    -723.1687138842      4.11E-09 Convergence criterion met
 ---------------------------------------

************** Final PCM Free Energy Summary **************
 G_electrostatic  =      -0.55883006 hartree =    -350.67115286 kcal/mol
 G_cavitation     =       0.00000000 hartree =       0.00000000 kcal/mol
 G_dispersion     =       0.00000000 hartree =       0.00000000 kcal/mol
 G_repulsion      =       0.00000000 hartree =       0.00000000 kcal/mol
 --------------------------------------------------
 Non-electrostatic Free Energy =       0.00000000 hartree =       0.00000000 kcal/mol
 Total                         =      -0.55883006 hartree =    -350.67115286 kcal/mol
 --------------------------------------------------
 SCF Energy (H0 + V/2)                       =    -723.16871388 
 Solute Internal Energy (H0)                 =    -722.60988383 
 Total Free Energy (H0 + V/2 + non-elec)     =    -723.16871388 hartree
                                             = -453795.21709325 kcal/mol
***********************************************************

 <S^2> = 1.0108
 SCF time:  CPU 5469.53 s  wall 780.13 s
 SCF   energy in the final basis set = -723.16871388
 Total energy in the final basis set = -723.16871388
 
 --------------------------------------------------------------
 
                    Orbital Energies (a.u.)
 --------------------------------------------------------------
 
 Alpha MOs
 -- Occupied --
-19.110 -19.107 -19.079 -19.064 -19.062 -19.062 -19.061 -10.250
-10.250 -10.167 -10.156 -10.144  -1.039  -1.019  -1.019  -0.956
 -0.930  -0.929  -0.755  -0.704  -0.687  -0.610  -0.504  -0.491
 -0.481  -0.453  -0.428  -0.422  -0.421  -0.420  -0.414  -0.402
 -0.388  -0.378  -0.359  -0.355  -0.349  -0.346  -0.336  -0.317
 -0.281  -0.258  -0.254  -0.253  -0.243  -0.232  -0.232  -0.186
 -0.162
 -- Virtual --
 -0.051   0.007   0.020   0.028   0.033   0.038   0.042   0.045
  0.052   0.056   0.063   0.067   0.068   0.074   0.083   0.085
  0.091   0.097   0.101   0.103   0.108   0.111   0.117   0.126
  0.129   0.134   0.137   0.143   0.146   0.155   0.157   0.159
  0.170   0.172   0.180   0.183   0.188   0.195   0.197   0.202
  0.209   0.215   0.222   0.223   0.229   0.234   0.235   0.244
  0.251   0.258   0.263   0.269   0.271   0.273   0.283   0.284
  0.290   0.294   0.297   0.300   0.305   0.308   0.313   0.316
  0.322   0.326   0.335   0.337   0.340   0.343   0.349   0.354
  0.358   0.363   0.369   0.373   0.379   0.384   0.390   0.398
  0.400   0.404   0.410   0.416   0.418   0.422   0.430   0.432
  0.438   0.441   0.443   0.446   0.455   0.459   0.460   0.465
  0.467   0.473   0.478   0.479   0.480   0.489   0.491   0.496
  0.501   0.507   0.519   0.521   0.525   0.527   0.534   0.540
  0.544   0.546   0.557   0.558   0.567   0.569   0.572   0.576
  0.591   0.599   0.606   0.608   0.613   0.619   0.620   0.623
  0.631   0.636   0.646   0.649   0.656   0.658   0.663   0.669
  0.674   0.678   0.681   0.689   0.698   0.705   0.712   0.719
  0.726   0.726   0.733   0.738   0.745   0.748   0.751   0.759
  0.768   0.774   0.783   0.788   0.791   0.799   0.808   0.821
  0.826   0.831   0.844   0.847   0.851   0.859   0.868   0.872
  0.886   0.893   0.902   0.909   0.921   0.927   0.941   0.953
  0.958   0.965   0.976   0.977   0.999   1.002   1.005   1.010
  1.025   1.050   1.054   1.071   1.080   1.092   1.112   1.116
  1.128   1.137   1.145   1.156   1.163   1.176   1.191   1.208
  1.216   1.241   1.249   1.255   1.260   1.277   1.284   1.293
  1.312   1.329   1.337   1.348   1.365   1.366   1.381   1.399
  1.420   1.476   1.491   1.505   1.522   1.533   1.573   1.593
  1.641   1.668   1.682   1.712   1.726   1.753   1.761   1.764
  1.781   1.793   1.803   1.812   1.817   1.829   1.835   1.849
  1.856   1.862   1.871   1.875   1.878   1.883   1.900   1.911
  1.928   1.942   1.944   1.965   1.973   1.991   2.006   2.014
  2.026   2.039   2.059   2.068   2.079   2.098   2.103   2.131
  2.142   2.167   2.176   2.188   2.202   2.208   2.241   2.248
  2.254   2.265   2.269   2.285   2.293   2.313   2.335   2.354
  2.362   2.369   2.390   2.394   2.422   2.433   2.461   2.472
  2.498   2.505   2.516   2.555   2.571   2.587   2.591   2.607
  2.633   2.675   2.695   2.707   2.735   2.742   2.753   2.756
  2.763   2.802   2.808   2.821   2.838   2.849   2.865   2.884
  2.906   2.919   2.928   2.943   2.973   2.976   2.978   2.997
  3.048   3.054   3.081   3.102   3.103   3.130   3.136   3.149
  3.154   3.165   3.173   3.183   3.204   3.225   3.248   3.258
  3.267   3.277   3.282   3.288   3.294   3.303   3.325   3.336
  3.343   3.349   3.353   3.378   3.400   3.420   3.436   3.447
  3.485   3.492   3.494   3.505   3.529   3.545   3.568   3.579
  3.590   3.598   3.605   3.625   3.645   3.645   3.660   3.683
  3.693   3.774   3.791   3.861   3.876   3.905   3.928   3.970
  3.991   4.009   4.038   4.045   4.112   4.135   4.170   4.235
  4.262   4.297   4.347   4.385   4.501   4.547   4.586   4.591
  4.625   4.688   4.700   4.716   4.722   4.777   4.801   4.819
  4.829   4.852   4.886   4.935   4.976   5.031   5.139   5.147
  5.173   5.195   5.199   5.230   5.237   5.238   5.243   5.252
  5.257   5.262   5.274   5.295   5.374   5.390   5.450   5.505
  5.560   5.586   5.589   5.595   5.601   5.611   5.616   5.650
  5.660   5.873   5.874   6.057   6.124   6.158   6.168   6.190
  6.197   6.210   6.216   6.221   6.306   6.448   6.477   6.495
  6.499   6.503   6.510   6.533   6.551   6.552   6.558   6.569
  6.592   6.606   6.621   6.625   6.629   6.637   6.647   6.715
  6.737   6.808   6.827   6.840   6.859   6.928   6.934   7.060
  7.093   7.100   7.117   7.145   7.225   7.229   7.255   7.263
  7.293   7.308   7.348   7.370   8.484  22.467  22.595  22.674
 23.565  23.578  43.581  44.021  44.182  44.217  44.275  44.318
 44.354
 
 Beta MOs
 -- Occupied --
-19.124 -19.123 -19.079 -19.064 -19.061 -19.061 -19.061 -10.250
-10.248 -10.156 -10.154 -10.144  -1.070  -1.019  -1.017  -0.956
 -0.929  -0.929  -0.740  -0.731  -0.703  -0.587  -0.504  -0.485
 -0.481  -0.448  -0.425  -0.422  -0.421  -0.419  -0.409  -0.404
 -0.401  -0.399  -0.382  -0.363  -0.351  -0.348  -0.343  -0.340
 -0.282  -0.254  -0.252  -0.243  -0.241  -0.232  -0.230  -0.215
 -0.177
 -- Virtual --
 -0.056   0.007   0.020   0.028   0.032   0.038   0.042   0.045
  0.052   0.058   0.063   0.066   0.068   0.074   0.084   0.085
  0.091   0.096   0.101   0.103   0.110   0.111   0.119   0.126
  0.128   0.133   0.139   0.143   0.144   0.157   0.158   0.160
  0.169   0.173   0.179   0.183   0.187   0.192   0.198   0.201
  0.209   0.216   0.223   0.224   0.229   0.236   0.239   0.245
  0.251   0.258   0.264   0.270   0.271   0.274   0.282   0.284
  0.290   0.293   0.298   0.301   0.306   0.309   0.312   0.315
  0.323   0.329   0.337   0.338   0.341   0.344   0.351   0.355
  0.359   0.364   0.370   0.374   0.381   0.385   0.390   0.397
  0.401   0.404   0.413   0.417   0.419   0.422   0.431   0.434
  0.439   0.441   0.442   0.446   0.455   0.460   0.460   0.464
  0.467   0.473   0.477   0.478   0.480   0.488   0.490   0.494
  0.502   0.508   0.518   0.521   0.525   0.529   0.532   0.541
  0.544   0.546   0.557   0.560   0.567   0.569   0.572   0.577
  0.596   0.599   0.606   0.610   0.615   0.619   0.620   0.624
  0.630   0.637   0.646   0.649   0.657   0.661   0.664   0.669
  0.676   0.680   0.682   0.690   0.699   0.707   0.713   0.721
  0.725   0.727   0.734   0.740   0.747   0.748   0.752   0.760
  0.769   0.776   0.784   0.787   0.792   0.799   0.810   0.819
  0.827   0.831   0.843   0.846   0.851   0.857   0.867   0.873
  0.884   0.891   0.903   0.910   0.920   0.926   0.937   0.952
  0.958   0.965   0.976   0.982   1.001   1.003   1.010   1.018
  1.023   1.049   1.055   1.071   1.080   1.095   1.113   1.117
  1.128   1.138   1.147   1.159   1.163   1.178   1.195   1.212
  1.219   1.243   1.251   1.255   1.262   1.278   1.285   1.290
  1.312   1.331   1.340   1.351   1.366   1.371   1.384   1.405
  1.422   1.480   1.495   1.506   1.523   1.534   1.562   1.581
  1.639   1.668   1.681   1.698   1.712   1.755   1.761   1.766
  1.782   1.798   1.805   1.813   1.820   1.829   1.833   1.850
  1.853   1.863   1.871   1.874   1.882   1.885   1.906   1.910
  1.917   1.934   1.952   1.969   1.972   1.987   2.003   2.020
  2.035   2.048   2.062   2.068   2.085   2.101   2.105   2.132
  2.147   2.165   2.173   2.189   2.198   2.210   2.228   2.241
  2.250   2.265   2.268   2.288   2.293   2.312   2.336   2.360
  2.363   2.371   2.393   2.394   2.424   2.436   2.457   2.485
  2.497   2.506   2.517   2.560   2.571   2.591   2.594   2.610
  2.638   2.674   2.701   2.710   2.737   2.745   2.754   2.762
  2.766   2.797   2.808   2.825   2.837   2.848   2.859   2.881
  2.916   2.917   2.927   2.944   2.961   2.976   2.981   2.995
  3.037   3.053   3.064   3.087   3.115   3.132   3.142   3.149
  3.159   3.171   3.182   3.190   3.204   3.229   3.250   3.254
  3.269   3.272   3.292   3.300   3.304   3.314   3.331   3.340
  3.344   3.360   3.361   3.383   3.399   3.425   3.434   3.450
  3.486   3.495   3.501   3.510   3.531   3.555   3.570   3.580
  3.596   3.606   3.612   3.628   3.648   3.653   3.665   3.687
  3.694   3.774   3.793   3.873   3.880   3.913   3.935   3.970
  3.990   4.009   4.041   4.054   4.112   4.134   4.178   4.239
  4.262   4.281   4.361   4.397   4.502   4.548   4.587   4.595
  4.627   4.689   4.705   4.722   4.724   4.773   4.778   4.805
  4.814   4.828   4.894   4.935   4.985   5.016   5.104   5.138
  5.146   5.195   5.200   5.221   5.231   5.238   5.239   5.243
  5.254   5.258   5.262   5.275   5.374   5.391   5.449   5.505
  5.558   5.583   5.588   5.590   5.591   5.596   5.601   5.651
  5.660   5.873   5.876   6.054   6.124   6.160   6.169   6.170
  6.190   6.198   6.208   6.216   6.300   6.399   6.427   6.492
  6.500   6.501   6.509   6.511   6.513   6.528   6.536   6.559
  6.585   6.594   6.605   6.622   6.628   6.638   6.647   6.707
  6.726   6.810   6.827   6.840   6.859   6.928   6.934   7.059
  7.078   7.093   7.101   7.142   7.223   7.230   7.255   7.264
  7.294   7.307   7.336   7.368   8.472  22.482  22.595  22.674
 23.567  23.578  43.566  44.021  44.182  44.204  44.275  44.318
 44.354
 --------------------------------------------------------------
 
          Ground-State Mulliken Net Atomic Charges

     Atom                 Charge (a.u.)    Spin (a.u.)
  --------------------------------------------------------
      1 C                     0.360020       0.044576
      2 O                    -0.751621       0.022995
      3 O                    -0.752086       0.024052
      4 C                     0.161154      -0.128287
      5 H                     0.246185       0.030822
      6 H                     0.079958       0.025069
      7 C                    -1.005575       1.025863
      8 H                     0.336244      -0.035212
      9 H                     0.316549      -0.012823
     10 C                     0.683927      -0.001776
     11 C                    -0.887437       0.014389
     12 H                     0.284911      -0.001443
     13 H                     0.333895      -0.005256
     14 H                     0.193562      -0.004622
     15 O                    -0.849531       0.000652
     16 O                    -0.771105       0.000612
     17 H                     0.404024      -0.001327
     18 O                    -0.789016      -0.002802
     19 H                     0.398594       0.003112
     20 O                    -0.524730      -0.473626
     21 O                    -0.467922      -0.524968
  --------------------------------------------------------
  Sum of atomic charges =    -3.000000
  Sum of spin   charges =     0.000000

 -----------------------------------------------------------------
                    Cartesian Multipole Moments
 -----------------------------------------------------------------
    Charge (ESU x 10^10)
               -14.4096
    Dipole Moment (Debye)
         X      -6.0003      Y     -23.5510      Z      -5.9107
       Tot      25.0118
    Quadrupole Moments (Debye-Ang)
        XX    -114.1481     XY     -23.5513     YY    -178.5853
        XZ      -0.1610     YZ      68.5355     ZZ    -265.3674
    Octopole Moments (Debye-Ang^2)
       XXX     -63.5043    XXY    -172.4067    XYY     -98.7548
       YYY    -731.2009    XXZ     -72.2969    XYZ     -20.2272
       YYZ     170.2752    XZZ      82.2406    YZZ    -387.9005
       ZZZ       5.6480
    Hexadecapole Moments (Debye-Ang^3)
      XXXX    -797.7114   XXXY    -207.9649   XXYY    -695.1676
      XYYY    -459.1066   YYYY   -3823.6043   XXXZ     -84.9185
      XXYZ     269.2467   XYYZ     -29.6533   YYYZ    1435.2624
      XXZZ   -1170.7723   XYZZ     -27.4068   YYZZ   -2154.1059
      XZZZ      95.9331   YZZZ    2074.4965   ZZZZ   -7827.0520
 -----------------------------------------------------------------
 Calculating analytic gradient of the SCF energy
 Gradient of SCF Energy
            1           2           3           4           5           6
    1   0.0338642   0.0241266  -0.0369318  -0.1340032   0.0777768  -0.0054019
    2   0.0357419   0.0111649  -0.0429530   0.0308325   0.0243926  -0.0574685
    3  -0.0459040   0.0539230   0.0064460   0.1406021  -0.0077388  -0.0770591
            7           8           9          10          11          12
    1   0.1310817  -0.1027790   0.0153361   0.0856629  -0.1722191   0.0828960
    2  -0.0937509  -0.0033990   0.0928923   0.0074905  -0.0516852  -0.0890716
    3  -0.0486799  -0.0494073   0.0430565  -0.0223704  -0.0484756   0.0293741
           13          14          15          16          17          18
    1   0.0407264   0.0332142  -0.0357886  -0.0232583  -0.0437644  -0.0407688
    2   0.0619550   0.0913521   0.0355161  -0.0537635  -0.0617184   0.0475648
    3  -0.0931049   0.1089415  -0.0117431   0.0258433   0.0339075  -0.0018660
           19          20          21
    1   0.0682559   0.0106072  -0.0086328
    2   0.0143910  -0.0374093   0.0379254
    3  -0.0321798  -0.0273602   0.0237952
 Max gradient component =       1.722E-01
 RMS gradient           =       6.168E-02
 Computing fast CPCM-ISWIG gradient
 Updating gradient with PCM contributions...
 -- total gradient after adding PCM contribution --
---------------------------------------------------
  Atom         X              Y              Z     
---------------------------------------------------
   1      -0.000004       0.000000       0.000002
   2       0.000004      -0.000003       0.000004
   3       0.000005       0.000003      -0.000004
   4      -0.000001       0.000002       0.000000
   5       0.000002      -0.000005      -0.000001
   6       0.000002      -0.000002       0.000000
   7      -0.000004       0.000011      -0.000003
   8       0.000004      -0.000006      -0.000009
   9      -0.000001      -0.000004       0.000006
  10       0.000001      -0.000017      -0.000002
  11      -0.000008      -0.000001       0.000002
  12       0.000004      -0.000001      -0.000001
  13       0.000000      -0.000003      -0.000005
  14      -0.000002       0.000002      -0.000002
  15       0.000012       0.000028       0.000014
  16      -0.000005      -0.000001       0.000002
  17      -0.000011      -0.000026       0.000016
  18      -0.000005       0.000016      -0.000018
  19       0.000005       0.000004       0.000002
  20      -0.000000       0.000003      -0.000004
  21       0.000001      -0.000001       0.000002
---------------------------------------------------
 Number of fixed atoms: 0
 Gradient time:  CPU 847.00 s  wall 120.25 s
 ######################################################
 ######################################################
 # Starting finite difference calculation for IDERIV  #
 Finite diff step size:  1.88973e-03 a.u.
 Adding empirical dispersion correction 
 ----------------------------------------------------------------
 Doing -D3(BJ) with
 s6 =   1.00000
 s8 =   1.98890
 a1 =   0.39810
 a2 =   4.42110
 -D3 energy without 3body term =     -0.0253883656 hartrees
 ----------------------------------------------------------------
             Standard Nuclear Orientation (Angstroms)
    I     Atom           X                Y                Z
 ----------------------------------------------------------------
    1      C      -0.3075324018     2.9751450296    -3.5906380872
    2      O      -0.8865719458     2.6177461922    -4.6472830770
    3      O       0.5790022472     3.8577937366    -3.4840288716
    4      C      -0.7127125217     2.2220895752    -2.2777120244
    5      H      -1.7461361190     1.8887057773    -2.3914857157
    6      H      -0.6536773936     2.9337785307    -1.4528704974
    7      C       0.1893373470     1.0720607559    -2.0419131611
    8      H       1.1306331789     1.2089021543    -1.5265658697
    9      H       0.0191232928     0.1289042194    -2.5449752742
   10      C       1.1327625534     2.4137718080     1.3505753455
   11      C      -0.3408224975     2.0582850848     1.5416199360
   12      H      -0.9838749100     2.9219097331     1.3804635573
   13      H      -0.5146739594     1.6468696545     2.5365892539
   14      H      -0.6086244973     1.2857915527     0.8164805974
   15      O       1.9808638440     1.5528538909     1.7352339261
   16      O       1.4174434732     3.5130698179     0.8165201030
   17      H       1.5074642261     0.0431856954     2.5079041894
   18      O       1.3731902306    -0.8352553943     2.9358485418
   19      H       0.4349168623    -0.8610383853     3.2545732544
   20      O      -1.1817592058    -1.0126314048     3.8714195315
   21      O      -1.4110549014     0.0969348008     4.5785957256
 ----------------------------------------------------------------
 Nuclear Repulsion Energy =   638.8832748653 hartrees
 There are       49 alpha and       49 beta electrons
 Discretize the solute cavity surface with Lebedev spheres
	Using 110 Lebedev grid points for each H atom
	Using 110 Lebedev grid points for other atoms
	Atomic van der Waals radii will be scaled by 1.20
 Remove points where switching function is < 1.0e-08
 Keep 1412 surface tesserae and discard 898 interior tesserae
 Molecular Surface Area = 270.158 Angst**2
 Requested basis set is def2-TZVPD
 There are 208 shells and 546 basis functions
 A cutoff of  1.0D-14 yielded  17693 shell pairs
 There are    119239 function pairs (    150282 Cartesian)
 Smallest overlap matrix eigenvalue = 5.85E-06
 Guess MOs from SCF MO coefficient file
 Reading MOs from coefficient file
 Reading MOs from coefficient file
 An unrestricted hybrid HF-DFT SCF calculation will be
 performed using Pulay DIIS extrapolation
 Polarizable Continuum solvation model will be applied
 Exchange:     0.2000 Hartree-Fock + 0.0800 Slater + 0.7200 B88
 Correlation:  0.1900 VWN1RPA + 0.8100 LYP
 Using SG-1 standard quadrature grid
 Dispersion:   Grimme D3
 SCF converges when DIIS error is below 1.0E-08
Using Q-Chem read-in guess as SCF_GUESS READ specified.

 using 8 threads for integral computing
 -------------------------------------------------------
 OpenMP Integral computing Module                
 Release: version 1.0, May 2013, Q-Chem Inc. Pittsburgh 
 -------------------------------------------------------
 -------------------------------------------------------
 OpenMP BLAS3 based DFT computing Module                
 Release: version 1.0, May 2013, Q-Chem Inc. Pittsburgh 
 -------------------------------------------------------
 ---------------------------------------
  Cycle       Energy         DIIS Error
 ---------------------------------------
    1    -722.6100445387      2.90E-04
    2    -723.1524574407      4.38E-04
    3    -723.1646239392      2.05E-04
    4    -723.1664737983      1.32E-04
    5    -723.1672907045      1.04E-04
    6    -723.1678837807      7.98E-05
    7    -723.1682539967      5.95E-05
    8    -723.1685205442      3.85E-05
    9    -723.1686348019      2.46E-05
   10    -723.1686937774      1.22E-05
   11    -723.1687113499      3.58E-06
   12    -723.1687129604      4.59E-07
   13    -723.1687129854      1.15E-07
   14    -723.1687129870      3.53E-08
   15    -723.1687129874      2.53E-08
   16    -723.1687129878      1.92E-08
   17    -723.1687129887      1.60E-08
   18    -723.1687129897      1.55E-08
   19    -723.1687129919      1.47E-08
   20    -723.1687129932      1.16E-08
   21    -723.1687129939      3.78E-09 Convergence criterion met
 ---------------------------------------

************** Final PCM Free Energy Summary **************
 G_electrostatic  =      -0.55879739 hartree =    -350.65065185 kcal/mol
 G_cavitation     =       0.00000000 hartree =       0.00000000 kcal/mol
 G_dispersion     =       0.00000000 hartree =       0.00000000 kcal/mol
 G_repulsion      =       0.00000000 hartree =       0.00000000 kcal/mol
 --------------------------------------------------
 Non-electrostatic Free Energy =       0.00000000 hartree =       0.00000000 kcal/mol
 Total                         =      -0.55879739 hartree =    -350.65065185 kcal/mol
 --------------------------------------------------
 SCF Energy (H0 + V/2)                       =    -723.16871299 
 Solute Internal Energy (H0)                 =    -722.60991561 
 Total Free Energy (H0 + V/2 + non-elec)     =    -723.16871299 hartree
                                             = -453795.21653453 kcal/mol
***********************************************************

 <S^2> = 1.0108
 SCF time:  CPU 5481.23 s  wall 782.19 s
 SCF   energy in the final basis set = -723.16871299
 Total energy in the final basis set = -723.16871299
 
 --------------------------------------------------------------
 
                    Orbital Energies (a.u.)
 --------------------------------------------------------------
 
 Alpha MOs
 -- Occupied --
-19.110 -19.107 -19.079 -19.064 -19.062 -19.062 -19.061 -10.250
-10.250 -10.167 -10.156 -10.144  -1.039  -1.019  -1.019  -0.956
 -0.930  -0.929  -0.755  -0.704  -0.687  -0.610  -0.504  -0.491
 -0.481  -0.453  -0.428  -0.422  -0.421  -0.420  -0.414  -0.402
 -0.388  -0.378  -0.359  -0.355  -0.349  -0.346  -0.336  -0.317
 -0.281  -0.258  -0.254  -0.253  -0.243  -0.232  -0.232  -0.186
 -0.162
 -- Virtual --
 -0.051   0.007   0.020   0.028   0.033   0.038   0.042   0.045
  0.052   0.056   0.063   0.067   0.068   0.074   0.083   0.085
  0.091   0.097   0.101   0.103   0.108   0.111   0.117   0.126
  0.129   0.134   0.137   0.143   0.146   0.155   0.157   0.159
  0.170   0.172   0.180   0.183   0.188   0.195   0.197   0.202
  0.209   0.215   0.222   0.223   0.229   0.234   0.235   0.244
  0.251   0.258   0.263   0.269   0.271   0.273   0.283   0.284
  0.290   0.294   0.297   0.300   0.305   0.308   0.313   0.316
  0.321   0.326   0.335   0.337   0.340   0.343   0.349   0.354
  0.358   0.363   0.369   0.373   0.379   0.384   0.390   0.398
  0.400   0.404   0.410   0.416   0.418   0.422   0.430   0.432
  0.438   0.441   0.443   0.446   0.455   0.459   0.460   0.465
  0.467   0.473   0.478   0.479   0.480   0.489   0.491   0.496
  0.501   0.507   0.519   0.521   0.525   0.527   0.534   0.540
  0.544   0.546   0.557   0.558   0.568   0.569   0.572   0.576
  0.591   0.599   0.606   0.608   0.613   0.619   0.620   0.623
  0.631   0.636   0.646   0.649   0.656   0.658   0.663   0.669
  0.674   0.678   0.681   0.689   0.698   0.705   0.712   0.719
  0.726   0.726   0.733   0.738   0.745   0.748   0.751   0.759
  0.768   0.774   0.783   0.788   0.791   0.799   0.808   0.821
  0.826   0.831   0.844   0.847   0.851   0.859   0.868   0.872
  0.886   0.893   0.902   0.909   0.921   0.927   0.941   0.953
  0.958   0.965   0.976   0.977   0.999   1.002   1.005   1.010
  1.025   1.050   1.054   1.071   1.080   1.092   1.112   1.116
  1.128   1.137   1.145   1.156   1.163   1.176   1.191   1.208
  1.216   1.241   1.249   1.255   1.260   1.277   1.284   1.293
  1.312   1.329   1.336   1.348   1.365   1.366   1.381   1.399
  1.420   1.476   1.491   1.505   1.522   1.533   1.573   1.593
  1.641   1.668   1.682   1.712   1.726   1.753   1.761   1.764
  1.781   1.793   1.803   1.812   1.817   1.829   1.835   1.849
  1.856   1.862   1.871   1.875   1.878   1.883   1.900   1.911
  1.928   1.942   1.944   1.965   1.973   1.991   2.006   2.014
  2.026   2.039   2.059   2.068   2.079   2.098   2.103   2.131
  2.142   2.167   2.176   2.188   2.202   2.208   2.241   2.248
  2.254   2.265   2.269   2.285   2.293   2.313   2.335   2.354
  2.362   2.369   2.390   2.394   2.422   2.433   2.461   2.472
  2.498   2.505   2.516   2.555   2.571   2.587   2.591   2.607
  2.633   2.675   2.695   2.707   2.735   2.742   2.753   2.756
  2.763   2.802   2.808   2.821   2.838   2.849   2.865   2.884
  2.906   2.919   2.928   2.943   2.973   2.976   2.978   2.997
  3.048   3.054   3.081   3.102   3.103   3.130   3.136   3.149
  3.154   3.165   3.173   3.183   3.204   3.225   3.248   3.258
  3.267   3.277   3.282   3.288   3.294   3.303   3.325   3.336
  3.343   3.349   3.353   3.378   3.400   3.420   3.436   3.447
  3.485   3.492   3.494   3.505   3.529   3.546   3.568   3.579
  3.590   3.597   3.605   3.625   3.645   3.645   3.660   3.683
  3.693   3.774   3.791   3.861   3.876   3.906   3.928   3.970
  3.991   4.009   4.038   4.045   4.112   4.135   4.169   4.235
  4.262   4.297   4.347   4.384   4.501   4.547   4.586   4.591
  4.625   4.688   4.700   4.716   4.722   4.777   4.801   4.819
  4.829   4.852   4.886   4.935   4.976   5.031   5.139   5.147
  5.173   5.195   5.199   5.230   5.237   5.238   5.243   5.252
  5.257   5.262   5.274   5.295   5.374   5.390   5.450   5.505
  5.560   5.586   5.589   5.596   5.601   5.611   5.616   5.650
  5.660   5.873   5.874   6.057   6.124   6.159   6.168   6.190
  6.198   6.210   6.216   6.221   6.306   6.448   6.477   6.495
  6.499   6.503   6.511   6.533   6.551   6.552   6.558   6.569
  6.592   6.606   6.621   6.625   6.629   6.637   6.647   6.715
  6.737   6.809   6.827   6.839   6.859   6.928   6.934   7.060
  7.093   7.100   7.117   7.145   7.225   7.229   7.255   7.263
  7.293   7.308   7.348   7.370   8.484  22.468  22.595  22.674
 23.565  23.578  43.581  44.021  44.182  44.217  44.275  44.318
 44.354
 
 Beta MOs
 -- Occupied --
-19.124 -19.123 -19.079 -19.064 -19.061 -19.061 -19.061 -10.250
-10.248 -10.156 -10.154 -10.144  -1.070  -1.019  -1.017  -0.956
 -0.929  -0.929  -0.740  -0.731  -0.703  -0.587  -0.504  -0.485
 -0.481  -0.448  -0.425  -0.422  -0.421  -0.419  -0.409  -0.404
 -0.401  -0.399  -0.382  -0.363  -0.351  -0.348  -0.343  -0.340
 -0.282  -0.254  -0.252  -0.243  -0.241  -0.232  -0.230  -0.215
 -0.177
 -- Virtual --
 -0.056   0.007   0.020   0.028   0.032   0.038   0.042   0.045
  0.052   0.058   0.063   0.066   0.068   0.074   0.084   0.085
  0.091   0.096   0.101   0.103   0.110   0.111   0.119   0.126
  0.128   0.133   0.139   0.143   0.144   0.157   0.158   0.160
  0.169   0.173   0.179   0.183   0.187   0.192   0.198   0.201
  0.209   0.216   0.223   0.224   0.229   0.236   0.239   0.245
  0.251   0.258   0.264   0.270   0.271   0.274   0.282   0.284
  0.290   0.293   0.298   0.301   0.306   0.309   0.312   0.315
  0.323   0.329   0.337   0.338   0.341   0.344   0.351   0.355
  0.359   0.364   0.370   0.374   0.381   0.385   0.391   0.397
  0.401   0.404   0.413   0.417   0.419   0.422   0.431   0.434
  0.439   0.441   0.442   0.446   0.455   0.460   0.460   0.464
  0.467   0.473   0.477   0.478   0.480   0.488   0.490   0.494
  0.502   0.508   0.518   0.521   0.525   0.529   0.532   0.541
  0.544   0.546   0.557   0.560   0.567   0.569   0.572   0.577
  0.596   0.599   0.606   0.610   0.615   0.619   0.620   0.624
  0.630   0.637   0.646   0.649   0.658   0.661   0.664   0.669
  0.676   0.680   0.682   0.690   0.699   0.707   0.713   0.721
  0.725   0.727   0.734   0.740   0.747   0.748   0.752   0.760
  0.769   0.776   0.784   0.787   0.792   0.799   0.810   0.819
  0.827   0.831   0.843   0.846   0.851   0.857   0.867   0.873
  0.884   0.891   0.903   0.910   0.920   0.926   0.937   0.952
  0.958   0.965   0.976   0.982   1.001   1.003   1.010   1.018
  1.023   1.049   1.055   1.071   1.080   1.095   1.113   1.117
  1.128   1.138   1.147   1.159   1.163   1.178   1.195   1.212
  1.219   1.243   1.251   1.255   1.262   1.278   1.285   1.290
  1.312   1.331   1.340   1.351   1.366   1.371   1.384   1.405
  1.422   1.480   1.495   1.506   1.523   1.534   1.562   1.581
  1.639   1.668   1.681   1.698   1.712   1.754   1.761   1.766
  1.782   1.798   1.806   1.813   1.820   1.829   1.833   1.850
  1.853   1.863   1.871   1.874   1.882   1.885   1.906   1.910
  1.917   1.934   1.952   1.969   1.972   1.987   2.003   2.020
  2.035   2.048   2.062   2.067   2.085   2.101   2.105   2.132
  2.147   2.165   2.173   2.189   2.198   2.210   2.228   2.241
  2.250   2.265   2.268   2.288   2.293   2.312   2.336   2.360
  2.363   2.371   2.393   2.394   2.424   2.436   2.457   2.485
  2.497   2.506   2.517   2.560   2.571   2.591   2.594   2.610
  2.638   2.674   2.701   2.710   2.737   2.745   2.754   2.761
  2.766   2.797   2.808   2.825   2.837   2.848   2.859   2.881
  2.916   2.917   2.927   2.944   2.961   2.976   2.981   2.995
  3.037   3.053   3.064   3.087   3.115   3.132   3.142   3.149
  3.159   3.171   3.182   3.190   3.204   3.229   3.250   3.254
  3.269   3.272   3.292   3.300   3.304   3.314   3.331   3.340
  3.344   3.360   3.361   3.383   3.399   3.426   3.434   3.450
  3.486   3.495   3.501   3.510   3.531   3.555   3.570   3.580
  3.596   3.606   3.611   3.628   3.648   3.653   3.665   3.687
  3.694   3.774   3.793   3.873   3.880   3.913   3.935   3.970
  3.990   4.009   4.041   4.054   4.112   4.134   4.178   4.239
  4.262   4.281   4.361   4.396   4.502   4.548   4.587   4.595
  4.627   4.689   4.705   4.722   4.724   4.773   4.778   4.805
  4.814   4.828   4.894   4.935   4.985   5.016   5.104   5.138
  5.146   5.195   5.200   5.221   5.231   5.238   5.239   5.243
  5.253   5.258   5.262   5.275   5.374   5.391   5.449   5.505
  5.558   5.583   5.588   5.590   5.591   5.597   5.601   5.651
  5.660   5.873   5.876   6.054   6.124   6.160   6.169   6.170
  6.190   6.198   6.208   6.216   6.300   6.399   6.427   6.492
  6.500   6.501   6.509   6.511   6.513   6.528   6.536   6.559
  6.585   6.594   6.605   6.622   6.628   6.638   6.647   6.707
  6.726   6.810   6.827   6.840   6.859   6.928   6.934   7.059
  7.078   7.093   7.101   7.142   7.223   7.230   7.255   7.264
  7.294   7.307   7.336   7.368   8.472  22.482  22.595  22.674
 23.567  23.578  43.566  44.021  44.182  44.204  44.276  44.318
 44.354
 --------------------------------------------------------------
 
          Ground-State Mulliken Net Atomic Charges

     Atom                 Charge (a.u.)    Spin (a.u.)
  --------------------------------------------------------
      1 C                     0.360314       0.044648
      2 O                    -0.752308       0.023055
      3 O                    -0.751144       0.024073
      4 C                     0.160823      -0.128318
      5 H                     0.246186       0.030777
      6 H                     0.079926       0.025104
      7 C                    -1.005729       1.025778
      8 H                     0.336237      -0.035244
      9 H                     0.316540      -0.012818
     10 C                     0.683919      -0.001775
     11 C                    -0.887430       0.014389
     12 H                     0.284907      -0.001444
     13 H                     0.333890      -0.005256
     14 H                     0.193557      -0.004622
     15 O                    -0.849534       0.000654
     16 O                    -0.771108       0.000612
     17 H                     0.404027      -0.001328
     18 O                    -0.789015      -0.002802
     19 H                     0.398593       0.003112
     20 O                    -0.524730      -0.473626
     21 O                    -0.467922      -0.524967
  --------------------------------------------------------
  Sum of atomic charges =    -3.000000
  Sum of spin   charges =    -0.000000

 -----------------------------------------------------------------
                    Cartesian Multipole Moments
 -----------------------------------------------------------------
    Charge (ESU x 10^10)
               -14.4096
    Dipole Moment (Debye)
         X      -5.9934      Y     -23.5442      Z      -5.9082
       Tot      25.0032
    Quadrupole Moments (Debye-Ang)
        XX    -114.1497     XY     -23.5284     YY    -178.5449
        XZ      -0.1892     YZ      68.5205     ZZ    -265.3930
    Octopole Moments (Debye-Ang^2)
       XXX     -63.5056    XXY    -172.4075    XYY     -98.6809
       YYY    -730.9890    XXZ     -72.2871    XYZ     -20.3175
       YYZ     170.1609    XZZ      82.3549    YZZ    -387.8901
       ZZZ       5.8296
    Hexadecapole Moments (Debye-Ang^3)
      XXXX    -797.6969   XXXY    -207.9608   XXYY    -695.1545
      XYYY    -458.8651   YYYY   -3822.5275   XXXZ     -84.9248
      XXYZ     269.2615   XYYZ     -29.9435   YYYZ    1434.6148
      XXZZ   -1170.8250   XYZZ     -27.0446   YYZZ   -2153.8177
      XZZZ      95.4607   YZZZ    2074.6742   ZZZZ   -7828.2267
 -----------------------------------------------------------------
 Calculating analytic gradient of the SCF energy
 Gradient of SCF Energy
            1           2           3           4           5           6
    1   0.0345455   0.0239483  -0.0374056  -0.1340762   0.0777976  -0.0053953
    2   0.0363929   0.0110269  -0.0434465   0.0308041   0.0244170  -0.0574761
    3  -0.0455163   0.0535916   0.0063891   0.1406115  -0.0077293  -0.0770352
            7           8           9          10          11          12
    1   0.1310953  -0.1027949   0.0153560   0.0856587  -0.1722152   0.0828964
    2  -0.0937770  -0.0033985   0.0929126   0.0074873  -0.0516849  -0.0890698
    3  -0.0487359  -0.0493977   0.0430561  -0.0223703  -0.0484796   0.0293752
           13          14          15          16          17          18
    1   0.0407282   0.0332139  -0.0357900  -0.0232598  -0.0437640  -0.0407698
    2   0.0619543   0.0913542   0.0355141  -0.0537645  -0.0617178   0.0475645
    3  -0.0931025   0.1089432  -0.0117435   0.0258475   0.0339081  -0.0018665
           19          20          21
    1   0.0682567   0.0106072  -0.0086331
    2   0.0143915  -0.0374097   0.0379255
    3  -0.0321799  -0.0273610   0.0237953
 Max gradient component =       1.722E-01
 RMS gradient           =       6.170E-02
 Computing fast CPCM-ISWIG gradient
 Updating gradient with PCM contributions...
 -- total gradient after adding PCM contribution --
---------------------------------------------------
  Atom         X              Y              Z     
---------------------------------------------------
   1       0.000932       0.000438       0.000241
   2      -0.000277      -0.000090      -0.000237
   3      -0.000492      -0.000352      -0.000026
   4      -0.000144       0.000029       0.000012
   5      -0.000017      -0.000035       0.000045
   6      -0.000001      -0.000007      -0.000004
   7       0.000008       0.000021      -0.000034
   8       0.000001      -0.000004      -0.000007
   9      -0.000002      -0.000003       0.000006
  10       0.000002      -0.000017      -0.000002
  11      -0.000008      -0.000000       0.000002
  12       0.000004      -0.000001      -0.000001
  13       0.000000      -0.000003      -0.000005
  14      -0.000002       0.000002      -0.000002
  15       0.000012       0.000028       0.000014
  16      -0.000005      -0.000001       0.000002
  17      -0.000011      -0.000026       0.000016
  18      -0.000005       0.000016      -0.000018
  19       0.000005       0.000004       0.000002
  20      -0.000000       0.000003      -0.000004
  21       0.000001      -0.000001       0.000002
---------------------------------------------------
 Number of fixed atoms: 0
 Gradient time:  CPU 865.69 s  wall 120.57 s
 Adding empirical dispersion correction 
 ----------------------------------------------------------------
 Doing -D3(BJ) with
 s6 =   1.00000
 s8 =   1.98890
 a1 =   0.39810
 a2 =   4.42110
 -D3 energy without 3body term =     -0.0253881094 hartrees
 ----------------------------------------------------------------
             Standard Nuclear Orientation (Angstroms)
    I     Atom           X                Y                Z
 ----------------------------------------------------------------
    1      C      -0.3095324018     2.9751450296    -3.5906380872
    2      O      -0.8865719458     2.6177461922    -4.6472830770
    3      O       0.5790022472     3.8577937366    -3.4840288716
    4      C      -0.7127125217     2.2220895752    -2.2777120244
    5      H      -1.7461361190     1.8887057773    -2.3914857157
    6      H      -0.6536773936     2.9337785307    -1.4528704974
    7      C       0.1893373470     1.0720607559    -2.0419131611
    8      H       1.1306331789     1.2089021543    -1.5265658697
    9      H       0.0191232928     0.1289042194    -2.5449752742
   10      C       1.1327625534     2.4137718080     1.3505753455
   11      C      -0.3408224975     2.0582850848     1.5416199360
   12      H      -0.9838749100     2.9219097331     1.3804635573
   13      H      -0.5146739594     1.6468696545     2.5365892539
   14      H      -0.6086244973     1.2857915527     0.8164805974
   15      O       1.9808638440     1.5528538909     1.7352339261
   16      O       1.4174434732     3.5130698179     0.8165201030
   17      H       1.5074642261     0.0431856954     2.5079041894
   18      O       1.3731902306    -0.8352553943     2.9358485418
   19      H       0.4349168623    -0.8610383853     3.2545732544
   20      O      -1.1817592058    -1.0126314048     3.8714195315
   21      O      -1.4110549014     0.0969348008     4.5785957256
 ----------------------------------------------------------------
 Nuclear Repulsion Energy =   638.8771075004 hartrees
 There are       49 alpha and       49 beta electrons
 Discretize the solute cavity surface with Lebedev spheres
	Using 110 Lebedev grid points for each H atom
	Using 110 Lebedev grid points for other atoms
	Atomic van der Waals radii will be scaled by 1.20
 Remove points where switching function is < 1.0e-08
 Keep 1412 surface tesserae and discard 898 interior tesserae
 Molecular Surface Area = 270.162 Angst**2
 Requested basis set is def2-TZVPD
 There are 208 shells and 546 basis functions
 A cutoff of  1.0D-14 yielded  17693 shell pairs
 There are    119239 function pairs (    150282 Cartesian)
 Smallest overlap matrix eigenvalue = 5.85E-06
 Guess MOs from SCF MO coefficient file
 Reading MOs from coefficient file
 Reading MOs from coefficient file
 An unrestricted hybrid HF-DFT SCF calculation will be
 performed using Pulay DIIS extrapolation
 Polarizable Continuum solvation model will be applied
 Exchange:     0.2000 Hartree-Fock + 0.0800 Slater + 0.7200 B88
 Correlation:  0.1900 VWN1RPA + 0.8100 LYP
 Using SG-1 standard quadrature grid
 Dispersion:   Grimme D3
 SCF converges when DIIS error is below 1.0E-08
Using Q-Chem read-in guess as SCF_GUESS READ specified.

 using 8 threads for integral computing
 -------------------------------------------------------
 OpenMP Integral computing Module                
 Release: version 1.0, May 2013, Q-Chem Inc. Pittsburgh 
 -------------------------------------------------------
 -------------------------------------------------------
 OpenMP BLAS3 based DFT computing Module                
 Release: version 1.0, May 2013, Q-Chem Inc. Pittsburgh 
 -------------------------------------------------------
 ---------------------------------------
  Cycle       Energy         DIIS Error
 ---------------------------------------
    1    -722.6095957961      2.91E-04
    2    -723.1526029847      4.33E-04
    3    -723.1646676819      2.04E-04
    4    -723.1664894590      1.32E-04
    5    -723.1673365410      1.02E-04
    6    -723.1679652982      7.57E-05
    7    -723.1683906477      5.01E-05
    8    -723.1686338045      2.47E-05
    9    -723.1686983743      1.09E-05
   10    -723.1687117189      3.21E-06
   11    -723.1687129448      7.32E-07
   12    -723.1687130000      1.22E-07
   13    -723.1687130014      5.83E-08
   14    -723.1687130020      3.10E-08
   15    -723.1687130025      2.47E-08
   16    -723.1687130030      1.80E-08
   17    -723.1687130038      1.63E-08
   18    -723.1687130048      1.59E-08
   19    -723.1687130073      1.35E-08
   20    -723.1687130087      9.52E-09 Convergence criterion met
 ---------------------------------------

************** Final PCM Free Energy Summary **************
 G_electrostatic  =      -0.55886279 hartree =    -350.69169449 kcal/mol
 G_cavitation     =       0.00000000 hartree =       0.00000000 kcal/mol
 G_dispersion     =       0.00000000 hartree =       0.00000000 kcal/mol
 G_repulsion      =       0.00000000 hartree =       0.00000000 kcal/mol
 --------------------------------------------------
 Non-electrostatic Free Energy =       0.00000000 hartree =       0.00000000 kcal/mol
 Total                         =      -0.55886279 hartree =    -350.69169449 kcal/mol
 --------------------------------------------------
 SCF Energy (H0 + V/2)                       =    -723.16871301 
 Solute Internal Energy (H0)                 =    -722.60985022 
 Total Free Energy (H0 + V/2 + non-elec)     =    -723.16871301 hartree
                                             = -453795.21654381 kcal/mol
***********************************************************

 <S^2> = 1.0108
 SCF time:  CPU 5207.60 s  wall 742.23 s
 SCF   energy in the final basis set = -723.16871301
 Total energy in the final basis set = -723.16871301
 
 --------------------------------------------------------------
 
                    Orbital Energies (a.u.)
 --------------------------------------------------------------
 
 Alpha MOs
 -- Occupied --
-19.110 -19.107 -19.079 -19.064 -19.062 -19.061 -19.061 -10.250
-10.250 -10.167 -10.156 -10.144  -1.039  -1.019  -1.019  -0.956
 -0.930  -0.929  -0.755  -0.704  -0.687  -0.611  -0.504  -0.491
 -0.481  -0.453  -0.428  -0.422  -0.421  -0.420  -0.414  -0.402
 -0.388  -0.378  -0.359  -0.355  -0.349  -0.346  -0.336  -0.317
 -0.281  -0.258  -0.254  -0.253  -0.243  -0.232  -0.232  -0.186
 -0.162
 -- Virtual --
 -0.051   0.007   0.020   0.028   0.033   0.038   0.042   0.045
  0.052   0.056   0.063   0.067   0.068   0.074   0.083   0.085
  0.091   0.097   0.101   0.103   0.108   0.111   0.117   0.126
  0.129   0.134   0.137   0.143   0.146   0.155   0.157   0.159
  0.170   0.172   0.180   0.183   0.188   0.195   0.197   0.202
  0.209   0.215   0.222   0.223   0.229   0.234   0.235   0.244
  0.251   0.258   0.263   0.269   0.271   0.273   0.283   0.284
  0.290   0.294   0.297   0.300   0.305   0.308   0.313   0.316
  0.322   0.326   0.335   0.337   0.340   0.343   0.349   0.354
  0.358   0.363   0.369   0.373   0.379   0.384   0.390   0.398
  0.400   0.404   0.410   0.416   0.418   0.422   0.430   0.432
  0.438   0.441   0.443   0.446   0.455   0.459   0.460   0.465
  0.467   0.473   0.478   0.479   0.480   0.489   0.491   0.496
  0.501   0.507   0.519   0.521   0.525   0.527   0.534   0.540
  0.544   0.546   0.557   0.558   0.567   0.569   0.572   0.576
  0.591   0.599   0.606   0.608   0.613   0.619   0.620   0.623
  0.631   0.636   0.646   0.649   0.656   0.658   0.663   0.669
  0.674   0.677   0.681   0.689   0.698   0.705   0.712   0.719
  0.725   0.726   0.733   0.738   0.745   0.748   0.751   0.759
  0.768   0.774   0.783   0.788   0.791   0.799   0.808   0.821
  0.826   0.831   0.844   0.847   0.851   0.859   0.868   0.872
  0.886   0.893   0.902   0.909   0.921   0.927   0.941   0.953
  0.958   0.965   0.976   0.977   0.999   1.002   1.005   1.010
  1.025   1.050   1.054   1.071   1.080   1.092   1.112   1.116
  1.128   1.137   1.145   1.156   1.163   1.175   1.191   1.207
  1.216   1.241   1.249   1.255   1.260   1.277   1.284   1.293
  1.312   1.329   1.337   1.348   1.365   1.366   1.381   1.399
  1.420   1.476   1.491   1.505   1.522   1.533   1.573   1.593
  1.641   1.668   1.682   1.712   1.726   1.753   1.761   1.764
  1.781   1.793   1.803   1.812   1.817   1.829   1.835   1.849
  1.856   1.862   1.871   1.875   1.878   1.883   1.900   1.911
  1.928   1.942   1.944   1.965   1.972   1.991   2.006   2.014
  2.026   2.039   2.059   2.068   2.079   2.097   2.103   2.131
  2.142   2.167   2.176   2.188   2.202   2.208   2.241   2.248
  2.254   2.265   2.269   2.285   2.293   2.313   2.334   2.354
  2.362   2.369   2.390   2.394   2.422   2.433   2.461   2.472
  2.498   2.505   2.516   2.554   2.571   2.588   2.591   2.607
  2.633   2.675   2.695   2.707   2.735   2.742   2.753   2.756
  2.763   2.802   2.808   2.821   2.838   2.849   2.865   2.884
  2.906   2.918   2.928   2.943   2.973   2.976   2.978   2.997
  3.048   3.054   3.081   3.102   3.103   3.130   3.136   3.149
  3.154   3.165   3.173   3.183   3.204   3.225   3.248   3.258
  3.267   3.277   3.282   3.288   3.294   3.303   3.325   3.336
  3.343   3.349   3.353   3.378   3.400   3.420   3.436   3.447
  3.485   3.492   3.494   3.505   3.529   3.545   3.568   3.579
  3.590   3.598   3.605   3.625   3.644   3.645   3.660   3.683
  3.693   3.774   3.792   3.861   3.876   3.905   3.928   3.970
  3.991   4.009   4.039   4.045   4.112   4.135   4.170   4.235
  4.262   4.297   4.347   4.385   4.501   4.547   4.586   4.591
  4.625   4.688   4.700   4.717   4.722   4.777   4.801   4.819
  4.829   4.852   4.886   4.935   4.976   5.031   5.139   5.147
  5.173   5.195   5.199   5.230   5.237   5.238   5.243   5.252
  5.257   5.262   5.274   5.295   5.374   5.390   5.450   5.505
  5.560   5.586   5.589   5.595   5.601   5.611   5.616   5.650
  5.660   5.873   5.874   6.057   6.124   6.158   6.168   6.190
  6.197   6.210   6.216   6.221   6.306   6.448   6.477   6.495
  6.499   6.503   6.510   6.533   6.551   6.552   6.558   6.569
  6.592   6.606   6.621   6.625   6.629   6.637   6.647   6.715
  6.737   6.808   6.827   6.840   6.859   6.928   6.933   7.060
  7.093   7.100   7.117   7.145   7.225   7.229   7.255   7.262
  7.292   7.308   7.348   7.370   8.484  22.467  22.595  22.674
 23.564  23.578  43.581  44.021  44.182  44.217  44.275  44.318
 44.354
 
 Beta MOs
 -- Occupied --
-19.124 -19.123 -19.079 -19.064 -19.061 -19.061 -19.061 -10.250
-10.248 -10.156 -10.154 -10.144  -1.070  -1.019  -1.017  -0.956
 -0.929  -0.929  -0.740  -0.731  -0.703  -0.587  -0.504  -0.485
 -0.481  -0.448  -0.425  -0.422  -0.421  -0.419  -0.409  -0.404
 -0.401  -0.399  -0.382  -0.363  -0.351  -0.348  -0.343  -0.340
 -0.282  -0.254  -0.252  -0.243  -0.241  -0.232  -0.230  -0.215
 -0.177
 -- Virtual --
 -0.056   0.007   0.020   0.028   0.032   0.038   0.042   0.045
  0.052   0.058   0.063   0.066   0.068   0.074   0.084   0.085
  0.091   0.096   0.101   0.103   0.110   0.111   0.119   0.126
  0.128   0.133   0.139   0.143   0.144   0.157   0.158   0.160
  0.169   0.173   0.179   0.183   0.187   0.192   0.198   0.201
  0.209   0.216   0.223   0.224   0.229   0.236   0.239   0.245
  0.251   0.258   0.264   0.270   0.271   0.274   0.282   0.284
  0.290   0.293   0.298   0.301   0.306   0.309   0.312   0.315
  0.323   0.329   0.337   0.338   0.341   0.344   0.351   0.355
  0.359   0.364   0.370   0.374   0.381   0.385   0.390   0.397
  0.401   0.404   0.413   0.417   0.419   0.422   0.431   0.434
  0.439   0.441   0.442   0.446   0.455   0.460   0.460   0.464
  0.467   0.473   0.477   0.478   0.480   0.488   0.490   0.494
  0.502   0.508   0.518   0.521   0.525   0.529   0.532   0.541
  0.544   0.546   0.557   0.559   0.567   0.569   0.572   0.577
  0.596   0.600   0.606   0.610   0.615   0.619   0.620   0.624
  0.630   0.637   0.646   0.649   0.657   0.661   0.664   0.669
  0.676   0.680   0.682   0.690   0.700   0.707   0.713   0.721
  0.725   0.727   0.734   0.740   0.747   0.748   0.752   0.760
  0.769   0.776   0.784   0.786   0.792   0.799   0.810   0.819
  0.827   0.831   0.843   0.846   0.851   0.857   0.867   0.873
  0.884   0.891   0.903   0.910   0.920   0.926   0.937   0.952
  0.958   0.965   0.976   0.982   1.001   1.003   1.010   1.018
  1.023   1.049   1.055   1.071   1.080   1.095   1.113   1.117
  1.128   1.138   1.147   1.159   1.163   1.178   1.195   1.211
  1.219   1.243   1.251   1.255   1.262   1.278   1.285   1.290
  1.312   1.331   1.341   1.351   1.366   1.371   1.384   1.405
  1.422   1.480   1.495   1.506   1.523   1.534   1.562   1.581
  1.639   1.668   1.681   1.698   1.712   1.755   1.761   1.766
  1.782   1.798   1.805   1.813   1.820   1.829   1.833   1.850
  1.853   1.863   1.871   1.874   1.882   1.885   1.906   1.910
  1.917   1.934   1.952   1.969   1.972   1.987   2.003   2.020
  2.035   2.048   2.062   2.068   2.085   2.100   2.105   2.132
  2.147   2.165   2.173   2.189   2.198   2.210   2.228   2.241
  2.250   2.266   2.268   2.288   2.293   2.312   2.336   2.360
  2.362   2.371   2.394   2.395   2.424   2.436   2.457   2.485
  2.497   2.506   2.516   2.560   2.571   2.591   2.595   2.611
  2.638   2.674   2.701   2.710   2.738   2.745   2.754   2.762
  2.766   2.797   2.808   2.825   2.837   2.848   2.859   2.881
  2.916   2.917   2.928   2.944   2.961   2.976   2.980   2.995
  3.037   3.053   3.064   3.087   3.115   3.132   3.142   3.149
  3.159   3.171   3.182   3.190   3.204   3.229   3.250   3.254
  3.270   3.272   3.291   3.300   3.304   3.314   3.331   3.340
  3.344   3.360   3.361   3.383   3.399   3.425   3.434   3.450
  3.486   3.495   3.501   3.509   3.531   3.555   3.570   3.580
  3.595   3.606   3.612   3.628   3.648   3.653   3.665   3.687
  3.694   3.774   3.794   3.873   3.880   3.913   3.935   3.970
  3.990   4.009   4.041   4.054   4.112   4.134   4.178   4.239
  4.262   4.281   4.361   4.397   4.502   4.548   4.587   4.595
  4.627   4.690   4.705   4.722   4.724   4.773   4.778   4.805
  4.814   4.828   4.894   4.935   4.985   5.016   5.104   5.138
  5.146   5.195   5.200   5.221   5.231   5.238   5.239   5.243
  5.254   5.258   5.262   5.275   5.374   5.391   5.449   5.505
  5.558   5.583   5.588   5.590   5.591   5.596   5.601   5.651
  5.660   5.873   5.875   6.054   6.124   6.159   6.169   6.170
  6.190   6.198   6.208   6.216   6.300   6.399   6.427   6.492
  6.500   6.501   6.509   6.511   6.513   6.528   6.536   6.559
  6.585   6.594   6.605   6.622   6.628   6.638   6.647   6.707
  6.726   6.810   6.827   6.840   6.859   6.928   6.934   7.059
  7.078   7.093   7.101   7.142   7.223   7.229   7.255   7.263
  7.294   7.307   7.336   7.368   8.472  22.482  22.595  22.674
 23.566  23.578  43.566  44.021  44.182  44.204  44.275  44.318
 44.354
 --------------------------------------------------------------
 
          Ground-State Mulliken Net Atomic Charges

     Atom                 Charge (a.u.)    Spin (a.u.)
  --------------------------------------------------------
      1 C                     0.359723       0.044505
      2 O                    -0.750932       0.022936
      3 O                    -0.753023       0.024032
      4 C                     0.161483      -0.128257
      5 H                     0.246183       0.030866
      6 H                     0.079990       0.025034
      7 C                    -1.005421       1.025948
      8 H                     0.336252      -0.035180
      9 H                     0.316558      -0.012828
     10 C                     0.683935      -0.001777
     11 C                    -0.887445       0.014389
     12 H                     0.284915      -0.001443
     13 H                     0.333900      -0.005255
     14 H                     0.193567      -0.004622
     15 O                    -0.849529       0.000651
     16 O                    -0.771103       0.000613
     17 H                     0.404020      -0.001327
     18 O                    -0.789017      -0.002803
     19 H                     0.398595       0.003112
     20 O                    -0.524730      -0.473625
     21 O                    -0.467921      -0.524969
  --------------------------------------------------------
  Sum of atomic charges =    -3.000000
  Sum of spin   charges =    -0.000000

 -----------------------------------------------------------------
                    Cartesian Multipole Moments
 -----------------------------------------------------------------
    Charge (ESU x 10^10)
               -14.4096
    Dipole Moment (Debye)
         X      -6.0072      Y     -23.5577      Z      -5.9131
       Tot      25.0203
    Quadrupole Moments (Debye-Ang)
        XX    -114.1464     XY     -23.5741     YY    -178.6257
        XZ      -0.1328     YZ      68.5505     ZZ    -265.3418
    Octopole Moments (Debye-Ang^2)
       XXX     -63.5032    XXY    -172.4060    XYY     -98.8287
       YYY    -731.4127    XXZ     -72.3067    XYZ     -20.1369
       YYZ     170.3893    XZZ      82.1265    YZZ    -387.9107
       ZZZ       5.4662
    Hexadecapole Moments (Debye-Ang^3)
      XXXX    -797.7257   XXXY    -207.9690   XXYY    -695.1806
      XYYY    -459.3479   YYYY   -3824.6811   XXXZ     -84.9125
      XXYZ     269.2319   XYYZ     -29.3632   YYYZ    1435.9098
      XXZZ   -1170.7196   XYZZ     -27.7692   YYZZ   -2154.3941
      XZZZ      96.4066   YZZZ    2074.3193   ZZZZ   -7825.8792
 -----------------------------------------------------------------
 Calculating analytic gradient of the SCF energy
 Gradient of SCF Energy
            1           2           3           4           5           6
    1   0.0331843   0.0243049  -0.0364596  -0.1339302   0.0777561  -0.0054085
    2   0.0350930   0.0113035  -0.0424622   0.0308614   0.0243683  -0.0574609
    3  -0.0462921   0.0542553   0.0065026   0.1405921  -0.0077484  -0.0770829
            7           8           9          10          11          12
    1   0.1310680  -0.1027632   0.0153162   0.0856671  -0.1722231   0.0828956
    2  -0.0937250  -0.0033995   0.0928722   0.0074938  -0.0516856  -0.0890734
    3  -0.0486239  -0.0494169   0.0430569  -0.0223705  -0.0484715   0.0293730
           13          14          15          16          17          18
    1   0.0407246   0.0332145  -0.0357873  -0.0232567  -0.0437648  -0.0407678
    2   0.0619558   0.0913502   0.0355181  -0.0537625  -0.0617190   0.0475650
    3  -0.0931075   0.1089398  -0.0117428   0.0258392   0.0339069  -0.0018655
           19          20          21
    1   0.0682550   0.0106072  -0.0086324
    2   0.0143905  -0.0374087   0.0379253
    3  -0.0321796  -0.0273595   0.0237952
 Max gradient component =       1.722E-01
 RMS gradient           =       6.166E-02
 Computing fast CPCM-ISWIG gradient
 Updating gradient with PCM contributions...
 -- total gradient after adding PCM contribution --
---------------------------------------------------
  Atom         X              Y              Z     
---------------------------------------------------
   1      -0.000937      -0.000436      -0.000238
   2       0.000285       0.000084       0.000246
   3       0.000501       0.000355       0.000019
   4       0.000143      -0.000024      -0.000012
   5       0.000020       0.000026      -0.000048
   6       0.000004       0.000003       0.000004
   7      -0.000016       0.000001       0.000028
   8       0.000008      -0.000007      -0.000011
   9       0.000001      -0.000004       0.000006
  10       0.000000      -0.000017      -0.000002
  11      -0.000008      -0.000001       0.000002
  12       0.000004      -0.000001      -0.000001
  13       0.000000      -0.000003      -0.000005
  14      -0.000002       0.000002      -0.000002
  15       0.000012       0.000028       0.000014
  16      -0.000004      -0.000001       0.000002
  17      -0.000011      -0.000026       0.000016
  18      -0.000005       0.000016      -0.000018
  19       0.000005       0.000004       0.000002
  20      -0.000000       0.000003      -0.000004
  21       0.000001      -0.000001       0.000002
---------------------------------------------------
 Number of fixed atoms: 0
 Gradient time:  CPU 880.63 s  wall 122.35 s
 Adding empirical dispersion correction 
 ----------------------------------------------------------------
 Doing -D3(BJ) with
 s6 =   1.00000
 s8 =   1.98890
 a1 =   0.39810
 a2 =   4.42110
 -D3 energy without 3body term =     -0.0253878463 hartrees
 ----------------------------------------------------------------
             Standard Nuclear Orientation (Angstroms)
    I     Atom           X                Y                Z
 ----------------------------------------------------------------
    1      C      -0.3085324018     2.9761450296    -3.5906380872
    2      O      -0.8865719458     2.6177461922    -4.6472830770
    3      O       0.5790022472     3.8577937366    -3.4840288716
    4      C      -0.7127125217     2.2220895752    -2.2777120244
    5      H      -1.7461361190     1.8887057773    -2.3914857157
    6      H      -0.6536773936     2.9337785307    -1.4528704974
    7      C       0.1893373470     1.0720607559    -2.0419131611
    8      H       1.1306331789     1.2089021543    -1.5265658697
    9      H       0.0191232928     0.1289042194    -2.5449752742
   10      C       1.1327625534     2.4137718080     1.3505753455
   11      C      -0.3408224975     2.0582850848     1.5416199360
   12      H      -0.9838749100     2.9219097331     1.3804635573
   13      H      -0.5146739594     1.6468696545     2.5365892539
   14      H      -0.6086244973     1.2857915527     0.8164805974
   15      O       1.9808638440     1.5528538909     1.7352339261
   16      O       1.4174434732     3.5130698179     0.8165201030
   17      H       1.5074642261     0.0431856954     2.5079041894
   18      O       1.3731902306    -0.8352553943     2.9358485418
   19      H       0.4349168623    -0.8610383853     3.2545732544
   20      O      -1.1817592058    -1.0126314048     3.8714195315
   21      O      -1.4110549014     0.0969348008     4.5785957256
 ----------------------------------------------------------------
 Nuclear Repulsion Energy =   638.8791676901 hartrees
 There are       49 alpha and       49 beta electrons
 Discretize the solute cavity surface with Lebedev spheres
	Using 110 Lebedev grid points for each H atom
	Using 110 Lebedev grid points for other atoms
	Atomic van der Waals radii will be scaled by 1.20
 Remove points where switching function is < 1.0e-08
 Keep 1412 surface tesserae and discard 898 interior tesserae
 Molecular Surface Area = 270.162 Angst**2
 Requested basis set is def2-TZVPD
 There are 208 shells and 546 basis functions
 A cutoff of  1.0D-14 yielded  17693 shell pairs
 There are    119239 function pairs (    150282 Cartesian)
 Smallest overlap matrix eigenvalue = 5.85E-06
 Guess MOs from SCF MO coefficient file
 Reading MOs from coefficient file
 Reading MOs from coefficient file
 An unrestricted hybrid HF-DFT SCF calculation will be
 performed using Pulay DIIS extrapolation
 Polarizable Continuum solvation model will be applied
 Exchange:     0.2000 Hartree-Fock + 0.0800 Slater + 0.7200 B88
 Correlation:  0.1900 VWN1RPA + 0.8100 LYP
 Using SG-1 standard quadrature grid
 Dispersion:   Grimme D3
 SCF converges when DIIS error is below 1.0E-08
Using Q-Chem read-in guess as SCF_GUESS READ specified.

 using 8 threads for integral computing
 -------------------------------------------------------
 OpenMP Integral computing Module                
 Release: version 1.0, May 2013, Q-Chem Inc. Pittsburgh 
 -------------------------------------------------------
 -------------------------------------------------------
 OpenMP BLAS3 based DFT computing Module                
 Release: version 1.0, May 2013, Q-Chem Inc. Pittsburgh 
 -------------------------------------------------------
 ---------------------------------------
  Cycle       Energy         DIIS Error
 ---------------------------------------
    1    -722.6104565844      2.92E-04
    2    -723.1523820709      4.40E-04
    3    -723.1646117325      2.06E-04
    4    -723.1664790918      1.32E-04
    5    -723.1673079903      1.03E-04
    6    -723.1679372536      7.73E-05
    7    -723.1683480275      5.33E-05
    8    -723.1686081842      2.85E-05
    9    -723.1686881959      1.40E-05
   10    -723.1687100491      4.85E-06
   11    -723.1687129047      1.06E-06
   12    -723.1687130337      1.27E-07
   13    -723.1687130353      5.96E-08
   14    -723.1687130358      3.07E-08
   15    -723.1687130363      2.48E-08
   16    -723.1687130368      1.82E-08
   17    -723.1687130377      1.65E-08
   18    -723.1687130387      1.61E-08
   19    -723.1687130411      1.39E-08
   20    -723.1687130425      1.01E-08
   21    -723.1687130431      3.06E-09 Convergence criterion met
 ---------------------------------------

************** Final PCM Free Energy Summary **************
 G_electrostatic  =      -0.55879579 hartree =    -350.64965000 kcal/mol
 G_cavitation     =       0.00000000 hartree =       0.00000000 kcal/mol
 G_dispersion     =       0.00000000 hartree =       0.00000000 kcal/mol
 G_repulsion      =       0.00000000 hartree =       0.00000000 kcal/mol
 --------------------------------------------------
 Non-electrostatic Free Energy =       0.00000000 hartree =       0.00000000 kcal/mol
 Total                         =      -0.55879579 hartree =    -350.64965000 kcal/mol
 --------------------------------------------------
 SCF Energy (H0 + V/2)                       =    -723.16871304 
 Solute Internal Energy (H0)                 =    -722.60991725 
 Total Free Energy (H0 + V/2 + non-elec)     =    -723.16871304 hartree
                                             = -453795.21656545 kcal/mol
***********************************************************

 <S^2> = 1.0108
 SCF time:  CPU 5475.79 s  wall 779.70 s
 SCF   energy in the final basis set = -723.16871304
 Total energy in the final basis set = -723.16871304
 
 --------------------------------------------------------------
 
                    Orbital Energies (a.u.)
 --------------------------------------------------------------
 
 Alpha MOs
 -- Occupied --
-19.110 -19.107 -19.079 -19.064 -19.062 -19.062 -19.061 -10.250
-10.250 -10.167 -10.156 -10.144  -1.039  -1.019  -1.019  -0.956
 -0.931  -0.929  -0.755  -0.704  -0.687  -0.610  -0.504  -0.491
 -0.481  -0.453  -0.428  -0.422  -0.421  -0.420  -0.414  -0.402
 -0.388  -0.378  -0.359  -0.355  -0.349  -0.346  -0.336  -0.317
 -0.281  -0.258  -0.254  -0.253  -0.243  -0.232  -0.232  -0.186
 -0.162
 -- Virtual --
 -0.051   0.007   0.020   0.028   0.033   0.038   0.042   0.045
  0.052   0.056   0.063   0.067   0.068   0.074   0.083   0.085
  0.091   0.097   0.101   0.103   0.108   0.111   0.117   0.126
  0.129   0.134   0.137   0.143   0.146   0.155   0.157   0.160
  0.170   0.172   0.180   0.183   0.188   0.195   0.197   0.202
  0.209   0.215   0.222   0.223   0.229   0.234   0.235   0.244
  0.251   0.258   0.263   0.269   0.271   0.273   0.283   0.284
  0.290   0.294   0.297   0.300   0.305   0.308   0.313   0.316
  0.322   0.326   0.335   0.337   0.340   0.343   0.349   0.354
  0.358   0.363   0.369   0.373   0.379   0.384   0.390   0.398
  0.400   0.404   0.410   0.416   0.419   0.422   0.430   0.432
  0.438   0.441   0.443   0.446   0.455   0.459   0.460   0.465
  0.467   0.473   0.478   0.479   0.480   0.489   0.491   0.496
  0.501   0.507   0.519   0.521   0.525   0.527   0.534   0.540
  0.544   0.546   0.557   0.558   0.567   0.569   0.572   0.576
  0.591   0.599   0.606   0.608   0.613   0.619   0.620   0.623
  0.631   0.636   0.646   0.649   0.656   0.658   0.663   0.669
  0.674   0.678   0.681   0.689   0.698   0.705   0.712   0.719
  0.726   0.726   0.733   0.738   0.745   0.748   0.751   0.759
  0.768   0.774   0.783   0.787   0.791   0.799   0.808   0.821
  0.826   0.831   0.844   0.847   0.851   0.859   0.868   0.872
  0.886   0.893   0.902   0.909   0.921   0.927   0.941   0.953
  0.958   0.965   0.976   0.977   0.999   1.002   1.005   1.010
  1.025   1.050   1.054   1.071   1.080   1.092   1.112   1.116
  1.128   1.137   1.145   1.156   1.163   1.175   1.191   1.207
  1.216   1.241   1.249   1.255   1.260   1.277   1.284   1.293
  1.312   1.329   1.337   1.348   1.365   1.366   1.381   1.399
  1.420   1.476   1.491   1.505   1.522   1.533   1.573   1.593
  1.641   1.668   1.682   1.712   1.726   1.753   1.761   1.764
  1.781   1.793   1.803   1.812   1.817   1.829   1.835   1.849
  1.856   1.862   1.871   1.875   1.878   1.883   1.900   1.911
  1.928   1.942   1.944   1.965   1.973   1.991   2.006   2.014
  2.026   2.039   2.059   2.068   2.079   2.098   2.103   2.131
  2.142   2.167   2.176   2.188   2.202   2.208   2.241   2.248
  2.254   2.265   2.269   2.285   2.293   2.313   2.335   2.354
  2.362   2.369   2.390   2.394   2.422   2.433   2.461   2.472
  2.498   2.505   2.516   2.555   2.571   2.587   2.591   2.607
  2.633   2.675   2.695   2.707   2.735   2.742   2.753   2.756
  2.763   2.802   2.808   2.821   2.838   2.849   2.865   2.884
  2.906   2.919   2.928   2.944   2.973   2.976   2.978   2.997
  3.048   3.054   3.081   3.102   3.103   3.130   3.137   3.149
  3.154   3.165   3.173   3.183   3.204   3.225   3.248   3.258
  3.267   3.277   3.282   3.288   3.294   3.303   3.325   3.336
  3.343   3.349   3.353   3.378   3.400   3.420   3.436   3.447
  3.485   3.492   3.494   3.505   3.529   3.545   3.568   3.579
  3.590   3.598   3.604   3.625   3.644   3.646   3.659   3.683
  3.693   3.774   3.791   3.861   3.876   3.905   3.928   3.970
  3.991   4.009   4.038   4.045   4.112   4.135   4.170   4.235
  4.262   4.297   4.347   4.384   4.501   4.547   4.586   4.591
  4.625   4.688   4.700   4.716   4.722   4.777   4.801   4.819
  4.829   4.852   4.886   4.935   4.977   5.031   5.139   5.147
  5.173   5.195   5.199   5.230   5.237   5.238   5.243   5.252
  5.257   5.262   5.274   5.295   5.374   5.390   5.450   5.505
  5.560   5.586   5.589   5.596   5.601   5.611   5.616   5.650
  5.660   5.873   5.874   6.057   6.124   6.159   6.168   6.190
  6.198   6.210   6.216   6.221   6.306   6.448   6.477   6.495
  6.499   6.503   6.511   6.533   6.551   6.552   6.558   6.569
  6.592   6.606   6.621   6.625   6.629   6.637   6.647   6.715
  6.737   6.809   6.827   6.839   6.859   6.928   6.934   7.060
  7.093   7.100   7.117   7.145   7.225   7.229   7.255   7.263
  7.293   7.308   7.348   7.370   8.484  22.467  22.595  22.674
 23.566  23.578  43.581  44.021  44.182  44.217  44.275  44.318
 44.354
 
 Beta MOs
 -- Occupied --
-19.124 -19.123 -19.079 -19.064 -19.061 -19.061 -19.061 -10.250
-10.248 -10.156 -10.154 -10.144  -1.070  -1.019  -1.017  -0.956
[...]
 O          0.001 -0.002 -0.001    0.001 -0.001 -0.000   -0.000  0.001 -0.000
 O         -0.001 -0.002 -0.002   -0.000 -0.001 -0.000   -0.000 -0.000  0.000
 H         -0.000  0.000  0.000    0.000  0.000  0.000   -0.018 -0.001  0.005
 O          0.000  0.000  0.000    0.000 -0.000 -0.000   -0.008 -0.001  0.003
 H          0.000 -0.000  0.000   -0.000 -0.001 -0.000    0.009 -0.008 -0.014
 O          0.000  0.000  0.000    0.000 -0.000 -0.000    0.130 -0.583 -0.378
 O          0.000  0.000 -0.000    0.000 -0.000 -0.000   -0.122  0.586  0.375
 TransDip  -0.097 -0.110 -0.028    0.038 -0.068  0.136   -0.002  0.028  0.013

 Mode:                37                     38                     39
 Frequency:      1236.98                1252.31                1339.33
 Force Cnst:      1.2098                 1.1128                 7.6997
 Red. Mass:       1.3419                 1.2043                 7.2852
 IR Active:          YES                    YES                    YES
 IR Intens:      122.160                 26.942                471.024
 Raman Active:       YES                    YES                    YES
               X      Y      Z        X      Y      Z        X      Y      Z
 C         -0.030  0.062 -0.026    0.014  0.010  0.010   -0.162 -0.222  0.446
 O          0.021  0.001  0.027   -0.008 -0.004 -0.018   -0.127 -0.072 -0.292
 O         -0.018 -0.033 -0.002   -0.015 -0.015  0.001    0.229  0.230 -0.010
 C          0.026 -0.109  0.090   -0.045 -0.042 -0.040    0.050 -0.064  0.011
 H         -0.102  0.500 -0.482   -0.195  0.515 -0.271    0.003  0.213 -0.273
 H         -0.054  0.520 -0.451    0.265 -0.477  0.314    0.028  0.231 -0.250
 C          0.017  0.002 -0.021    0.063  0.061  0.057    0.007 -0.001 -0.008
 H         -0.009  0.019  0.013    0.148 -0.284 -0.010   -0.098  0.336  0.060
 H         -0.022  0.004 -0.002   -0.252  0.190 -0.081   -0.299  0.134 -0.122
 C         -0.002  0.000  0.000    0.001 -0.000  0.000    0.020 -0.001 -0.001
 C         -0.001 -0.001  0.000    0.001  0.001 -0.000    0.015  0.008 -0.000
 H         -0.003 -0.003 -0.005    0.003  0.003  0.004   -0.053 -0.040  0.002
 H          0.014  0.011  0.008   -0.010 -0.007 -0.005   -0.073 -0.041 -0.034
 H          0.003  0.007 -0.009   -0.002 -0.004  0.006   -0.070 -0.015  0.049
 O          0.001 -0.001  0.000   -0.001  0.001 -0.000   -0.010  0.009 -0.004
 O          0.000  0.001 -0.000    0.000 -0.000  0.000   -0.003 -0.007  0.004
 H          0.001  0.000 -0.000   -0.000 -0.000  0.000   -0.001 -0.001  0.001
 O         -0.000  0.000  0.000    0.000 -0.000 -0.000    0.000 -0.000 -0.000
 H         -0.000 -0.000 -0.000    0.000  0.000  0.000   -0.001  0.004 -0.001
 O          0.000  0.000  0.000   -0.000  0.000  0.000   -0.000  0.000  0.000
 O         -0.000  0.000 -0.000    0.000 -0.000 -0.000    0.000 -0.000 -0.000
 TransDip   0.002  0.234 -0.266    0.109  0.084  0.093   -0.077 -0.400  0.563

 Mode:                40                     41                     42
 Frequency:      1360.20                1396.31                1454.64
 Force Cnst:      1.7719                 3.8680                 1.4031
 Red. Mass:       1.6255                 3.3672                 1.1255
 IR Active:          YES                    YES                    YES
 IR Intens:       60.700                318.521                173.473
 Raman Active:       YES                    YES                    YES
               X      Y      Z        X      Y      Z        X      Y      Z
 C         -0.004 -0.008  0.015   -0.001 -0.001  0.002    0.002  0.000  0.000
 O         -0.004 -0.002 -0.010   -0.000 -0.000 -0.001   -0.000 -0.000 -0.001
 O          0.007  0.007 -0.000    0.001  0.001 -0.000   -0.001 -0.001  0.000
 C          0.001 -0.001 -0.001    0.001 -0.001 -0.000    0.010 -0.004 -0.008
 H          0.000  0.005 -0.005   -0.002  0.007  0.005   -0.024  0.062  0.076
 H          0.005 -0.007  0.004   -0.005 -0.003  0.002   -0.094 -0.025  0.023
 C          0.000  0.001 -0.000   -0.001  0.001 -0.000    0.006 -0.006  0.000
 H         -0.003  0.005  0.004   -0.000 -0.004  0.001   -0.014  0.060  0.018
 H         -0.007  0.004 -0.003    0.003 -0.000  0.001   -0.058  0.020 -0.023
 C         -0.152 -0.005  0.002    0.332  0.015 -0.026   -0.017  0.056 -0.021
 C         -0.104 -0.038  0.013   -0.168 -0.052  0.007    0.033 -0.043  0.033
 H          0.421  0.320 -0.052    0.218  0.253  0.111   -0.276 -0.299 -0.248
 H          0.511  0.153  0.180    0.392  0.293  0.238    0.133  0.397  0.215
 H          0.526  0.028 -0.267    0.525  0.037 -0.320   -0.234  0.505 -0.450
 O          0.073 -0.059  0.027   -0.136  0.108 -0.046    0.019 -0.019  0.007
 O          0.028  0.060 -0.029   -0.060 -0.117  0.059   -0.007 -0.028  0.014
 H          0.013  0.005 -0.014   -0.027 -0.010  0.023    0.001  0.006  0.000
 O         -0.002  0.001  0.000    0.003 -0.002 -0.001   -0.000 -0.001  0.000
 H          0.005 -0.035  0.010   -0.009  0.053 -0.017    0.001  0.003 -0.001
 O          0.001 -0.000 -0.001   -0.001 -0.001  0.000    0.000 -0.000 -0.000
 O         -0.000  0.000  0.000    0.000  0.001 -0.001    0.000 -0.000  0.000
 TransDip  -0.234  0.085 -0.020    0.571  0.007  0.018   -0.080  0.363 -0.199

 Mode:                43                     44                     45
 Frequency:      1455.81                1464.55                1475.71
 Force Cnst:      1.4298                 1.4652                 1.3755
 Red. Mass:       1.1451                 1.1594                 1.0720
 IR Active:          YES                    YES                    YES
 IR Intens:        1.160                  6.781                 27.735
 Raman Active:       YES                    YES                    YES
               X      Y      Z        X      Y      Z        X      Y      Z
 C          0.011  0.013 -0.028    0.004  0.010 -0.017   -0.000 -0.000 -0.000
 O          0.005  0.003  0.015    0.004  0.002  0.010    0.000 -0.000  0.000
 O         -0.012 -0.011  0.002   -0.007 -0.007  0.001    0.000  0.000  0.000
 C          0.027 -0.005 -0.025   -0.072  0.046  0.032    0.002 -0.001 -0.001
 H         -0.087  0.209  0.276    0.142 -0.409 -0.434   -0.004  0.012  0.014
 H         -0.353 -0.049  0.054    0.612  0.054 -0.044   -0.020 -0.002  0.002
 C          0.061 -0.072  0.009    0.039 -0.054  0.013    0.002 -0.003 -0.000
 H         -0.120  0.565  0.151   -0.061  0.321  0.091   -0.005  0.022  0.007
 H         -0.524  0.167 -0.218   -0.294  0.086 -0.128   -0.020  0.006 -0.008
 C          0.004 -0.009  0.004   -0.000  0.003 -0.001   -0.030  0.003 -0.026
 C         -0.007  0.008 -0.003    0.002 -0.004  0.002    0.032 -0.027 -0.045
 H          0.048  0.046  0.007   -0.021 -0.022 -0.014   -0.127 -0.001  0.664
 H          0.001 -0.082 -0.037    0.009  0.037  0.019   -0.439  0.489  0.098
 H          0.026 -0.074  0.071   -0.012  0.041 -0.039    0.289 -0.064 -0.076
 O         -0.003  0.003 -0.001    0.001 -0.001  0.000    0.013 -0.010  0.008
 O          0.001  0.004 -0.002   -0.001 -0.002  0.001    0.002  0.002  0.002
 H          0.000 -0.001 -0.000   -0.000  0.000  0.000   -0.006  0.004 -0.001
 O          0.000  0.000 -0.000   -0.000 -0.000 -0.000    0.000 -0.001  0.000
 H         -0.000 -0.001  0.000   -0.000  0.000 -0.000   -0.001  0.011 -0.003
 O         -0.000  0.000  0.000    0.000 -0.000 -0.000    0.000  0.000 -0.000
 O         -0.000  0.000  0.000    0.000 -0.000  0.000    0.000 -0.000 -0.000
 TransDip   0.001 -0.031  0.015    0.038  0.030 -0.068   -0.081  0.145  0.031

 Mode:                46                     47                     48
 Frequency:      1553.04                1565.33                1640.41
 Force Cnst:      8.7900                14.1871                 1.6893
 Red. Mass:       6.1855                 9.8272                 1.0655
 IR Active:          YES                    YES                    YES
 IR Intens:     1171.093               1250.173                 74.389
 Raman Active:       YES                    YES                    YES
               X      Y      Z        X      Y      Z        X      Y      Z
 C         -0.012 -0.010 -0.010    0.494  0.419  0.390    0.000  0.000 -0.000
 O          0.004  0.002  0.006   -0.139 -0.090 -0.235    0.000  0.000  0.000
 O          0.005  0.005  0.001   -0.205 -0.201 -0.037   -0.000 -0.000 -0.000
 C         -0.001  0.001  0.001   -0.033 -0.027 -0.027   -0.000 -0.000  0.000
 H          0.002 -0.001 -0.016    0.020 -0.216  0.301   -0.000  0.000  0.000
 H          0.007  0.002 -0.001    0.037  0.245 -0.235    0.000 -0.000 -0.000
 C          0.001 -0.001  0.000   -0.007 -0.007 -0.007    0.000  0.000  0.000
 H         -0.002  0.007  0.001   -0.022  0.018  0.014    0.000 -0.000 -0.000
 H         -0.005  0.001 -0.002    0.024 -0.011 -0.011    0.000  0.000 -0.000
 C         -0.049  0.525 -0.248   -0.001  0.020 -0.009    0.009 -0.002  0.000
 C         -0.015 -0.025  0.014   -0.001 -0.000 -0.000    0.000 -0.001 -0.000
 H          0.385  0.281 -0.015    0.016  0.013  0.004   -0.008 -0.004  0.011
 H         -0.216 -0.328 -0.151   -0.012 -0.017 -0.009   -0.011  0.013  0.002
 H         -0.017 -0.272  0.283    0.001 -0.018  0.019    0.000  0.004 -0.005
 O          0.093 -0.116  0.053    0.003 -0.004  0.002   -0.009  0.004 -0.000
 O         -0.054 -0.234  0.114   -0.002 -0.009  0.004   -0.001 -0.000 -0.000
 H          0.040  0.039 -0.031    0.001  0.001 -0.001    0.677 -0.166 -0.144
 O         -0.004 -0.005  0.004   -0.000 -0.000  0.000   -0.041  0.044 -0.005
 H          0.008 -0.030  0.007    0.000 -0.001  0.000    0.082 -0.658  0.222
 O          0.001  0.000 -0.000    0.000 -0.000 -0.000    0.000  0.003 -0.002
 O          0.000 -0.000  0.000   -0.000 -0.000 -0.000   -0.002  0.001  0.002
 TransDip  -0.152  0.968 -0.492    0.731  0.648  0.573    0.187 -0.198  0.045

 Mode:                49                     50                     51
 Frequency:      3036.03                3036.93                3089.34
 Force Cnst:      5.7005                 5.6649                 6.2143
 Red. Mass:       1.0497                 1.0425                 1.1051
 IR Active:          YES                    YES                    YES
 IR Intens:       15.574                 37.598                 33.792
 Raman Active:       YES                    YES                    YES
               X      Y      Z        X      Y      Z        X      Y      Z
 C         -0.000  0.000 -0.001   -0.000  0.000 -0.001   -0.002 -0.002 -0.002
 O          0.000  0.000  0.000    0.000  0.000  0.000    0.001  0.000  0.000
 O         -0.000 -0.000  0.000   -0.000 -0.000  0.000    0.000  0.000  0.001
 C         -0.048  0.010  0.025   -0.034  0.006  0.016   -0.050 -0.058 -0.055
 H          0.610  0.202  0.080    0.433  0.144  0.057    0.558  0.178  0.063
 H         -0.040 -0.326 -0.372   -0.027 -0.218 -0.248    0.048  0.521  0.602
 C          0.001 -0.000  0.001    0.000 -0.000  0.001    0.003  0.005  0.003
 H         -0.009 -0.001 -0.002   -0.006 -0.000 -0.002   -0.029 -0.006 -0.010
 H         -0.001  0.000 -0.000   -0.000 -0.001 -0.001   -0.008 -0.053 -0.034
 C         -0.001 -0.000  0.000    0.001  0.000 -0.000    0.000 -0.000  0.000
 C          0.025  0.014  0.001   -0.036 -0.021 -0.001    0.001 -0.000 -0.004
 H         -0.156  0.222 -0.040    0.221 -0.315  0.056   -0.005  0.007 -0.002
 H         -0.042 -0.115  0.290    0.062  0.167 -0.419   -0.007 -0.017  0.039
 H         -0.091 -0.279 -0.265    0.130  0.397  0.378    0.005  0.014  0.012
 O          0.000 -0.000  0.000   -0.000  0.000 -0.000   -0.000  0.000  0.000
 O          0.000  0.000  0.000   -0.000  0.000  0.000   -0.000 -0.000 -0.000
 H         -0.000 -0.002  0.001    0.000  0.003 -0.002    0.000  0.000 -0.000
 O         -0.000  0.000 -0.000    0.000 -0.000  0.000   -0.000 -0.000  0.000
 H          0.002 -0.000 -0.000   -0.003  0.000  0.000    0.000 -0.000 -0.000
 O          0.000  0.000 -0.000   -0.000 -0.000  0.000    0.000 -0.000 -0.000
 O         -0.000  0.000  0.000    0.000 -0.000 -0.000   -0.000  0.000  0.000
 TransDip  -0.097  0.056  0.058   -0.193  0.033  0.013   -0.103 -0.117 -0.102

 Mode:                52                     53                     54
 Frequency:      3099.08                3125.04                3137.77
 Force Cnst:      6.2184                 6.3543                 6.0930
 Red. Mass:       1.0989                 1.1044                 1.0504
 IR Active:          YES                    YES                    YES
 IR Intens:       13.581                 36.515                 27.411
 Raman Active:       YES                    YES                    YES
               X      Y      Z        X      Y      Z        X      Y      Z
 C          0.000  0.000  0.000   -0.000 -0.000 -0.000    0.000  0.001 -0.001
 O         -0.000 -0.000 -0.000    0.000  0.000  0.000    0.000 -0.000  0.000
 O          0.000  0.000 -0.000    0.000  0.000  0.000   -0.000 -0.000  0.000
 C          0.002  0.003  0.002   -0.000 -0.001 -0.001   -0.002  0.001 -0.002
 H         -0.023 -0.007 -0.003    0.004  0.001  0.000    0.008  0.002  0.002
 H         -0.002 -0.024 -0.028    0.001  0.008  0.009    0.002  0.015  0.019
 C         -0.000 -0.000 -0.000   -0.000  0.000  0.000    0.040 -0.048  0.000
 H          0.005  0.001  0.002    0.005  0.001  0.003   -0.583 -0.096 -0.331
 H         -0.000  0.001  0.000   -0.001 -0.007 -0.004    0.129  0.637  0.339
 C         -0.001 -0.001 -0.001   -0.001 -0.003  0.001   -0.000 -0.000  0.000
 C          0.008 -0.038 -0.082    0.031 -0.078  0.041    0.000 -0.001  0.000
 H         -0.166  0.221 -0.058   -0.486  0.667 -0.122   -0.005  0.007 -0.001
 H         -0.097 -0.257  0.584    0.083  0.187 -0.480    0.000  0.001 -0.002
 H          0.175  0.501  0.460    0.042  0.091  0.109    0.001  0.003  0.003
 O          0.000  0.000  0.000    0.000  0.000 -0.000   -0.000  0.000  0.000
 O         -0.000  0.000 -0.000   -0.000  0.001 -0.000    0.000  0.000 -0.000
 H         -0.000 -0.003  0.001   -0.003 -0.010  0.005   -0.000 -0.000  0.000
 O         -0.000  0.000 -0.000    0.001  0.001 -0.001    0.000  0.000 -0.000
 H          0.004 -0.000 -0.001   -0.007  0.001  0.002   -0.000  0.000  0.000
 O          0.000 -0.000 -0.000   -0.000 -0.000  0.000   -0.000  0.000  0.000
 O         -0.000  0.000  0.000    0.000 -0.000 -0.000   -0.000  0.000  0.000
 TransDip   0.026 -0.089 -0.073    0.105 -0.152  0.058    0.090 -0.141  0.013

 Mode:                55                     56                     57
 Frequency:      3220.95                3238.39                3333.46
 Force Cnst:      6.5212                 6.9108                 7.0349
 Red. Mass:       1.0669                 1.1185                 1.0745
 IR Active:          YES                    YES                    YES
 IR Intens:     1465.662                 21.353               1489.251
 Raman Active:       YES                    YES                    YES
               X      Y      Z        X      Y      Z        X      Y      Z
 C          0.000  0.000  0.000   -0.000 -0.000 -0.000   -0.000 -0.000  0.000
 O          0.000  0.000 -0.000    0.000  0.000  0.000   -0.000 -0.000 -0.000
 O          0.000 -0.000 -0.000    0.000  0.000  0.000    0.000  0.000 -0.000
 C          0.000 -0.000 -0.000   -0.004 -0.004 -0.004    0.000  0.000  0.000
 H         -0.000  0.000 -0.000    0.043  0.013  0.006   -0.000 -0.000 -0.000
 H         -0.000  0.000  0.000    0.003  0.033  0.034    0.000 -0.000 -0.000
 C         -0.000 -0.000 -0.000   -0.062 -0.056 -0.055    0.000  0.000  0.000
 H          0.000  0.000  0.000    0.637  0.088  0.350   -0.002 -0.000 -0.001
 H          0.000  0.001  0.000    0.103  0.586  0.308   -0.000 -0.001 -0.001
 C          0.000 -0.000  0.000    0.000  0.000 -0.000    0.005 -0.005  0.002
 C         -0.000 -0.000  0.001   -0.000  0.000  0.000    0.000 -0.001  0.000
 H         -0.001  0.002 -0.000    0.000 -0.000  0.000   -0.010  0.009 -0.002
 H          0.001  0.003 -0.007    0.000  0.000 -0.001    0.001  0.001 -0.002
 H          0.000  0.000  0.001   -0.001 -0.001 -0.001   -0.000  0.001  0.000
 O          0.000  0.001 -0.000   -0.000  0.000 -0.000   -0.002  0.003 -0.002
 O         -0.000  0.000 -0.000   -0.000 -0.000 -0.000   -0.000  0.002 -0.001
 H         -0.036 -0.085  0.049    0.000  0.002 -0.001    0.149  0.882 -0.434
 O         -0.060  0.002  0.019    0.000 -0.000  0.000   -0.016 -0.057  0.030
 H          0.936  0.039 -0.327   -0.001 -0.000  0.000    0.079 -0.016 -0.019
 O          0.003  0.002 -0.000   -0.000  0.000 -0.000    0.001  0.000 -0.000
 O          0.000 -0.001 -0.001    0.000  0.000 -0.000    0.000 -0.000 -0.000
 TransDip   1.118 -0.103 -0.493   -0.091 -0.083 -0.082    0.289  1.034 -0.613

 STANDARD THERMODYNAMIC QUANTITIES AT   298.15 K  AND     1.00 ATM

   This Molecule has  0 Imaginary Frequencies
   Zero point vibrational energy:       88.158 kcal/mol

   Atom    1 Element C  Has Mass   12.00000
   Atom    2 Element O  Has Mass   15.99491
   Atom    3 Element O  Has Mass   15.99491
   Atom    4 Element C  Has Mass   12.00000
   Atom    5 Element H  Has Mass    1.00783
   Atom    6 Element H  Has Mass    1.00783
   Atom    7 Element C  Has Mass   12.00000
   Atom    8 Element H  Has Mass    1.00783
   Atom    9 Element H  Has Mass    1.00783
   Atom   10 Element C  Has Mass   12.00000
   Atom   11 Element C  Has Mass   12.00000
   Atom   12 Element H  Has Mass    1.00783
   Atom   13 Element H  Has Mass    1.00783
   Atom   14 Element H  Has Mass    1.00783
   Atom   15 Element O  Has Mass   15.99491
   Atom   16 Element O  Has Mass   15.99491
   Atom   17 Element H  Has Mass    1.00783
   Atom   18 Element O  Has Mass   15.99491
   Atom   19 Element H  Has Mass    1.00783
   Atom   20 Element O  Has Mass   15.99491
   Atom   21 Element O  Has Mass   15.99491
   Molecular Mass:   181.034840 amu
   Principal axes and moments of inertia in amu*Bohr^2:
                             1           2           3
    Eigenvalues --     1502.39730  7337.67494  7895.77422
          X               0.00365     0.77534    -0.63154
          Y              -0.38610     0.58366     0.71433
          Z               0.92245     0.24123     0.30148
   Rotational Symmetry Number is   1
   The Molecule is an Asymmetric Top
   Translational Enthalpy:        0.889 kcal/mol
   Rotational Enthalpy:           0.889 kcal/mol
   Vibrational Enthalpy:         97.782 kcal/mol
   gas constant (RT):             0.592 kcal/mol
   Translational Entropy:        41.487  cal/mol.K
   Rotational Entropy:           32.831  cal/mol.K
   Vibrational Entropy:          79.187  cal/mol.K

   Total Enthalpy:              100.152 kcal/mol
   Total Entropy:               153.505  cal/mol.K
Archival summary:
1\1\g4-2\FREQ\ProcedureUnspecified\BasisUnspecified\759(3-,1)\leeping\FriMay116:49:182020FriMay116:49:182020\0\\#,FREQ,ProcedureUnspecified,BasisUnspecified,\\-3,1\O\C,1,1.26823\O,2,1.25488,1,124.893\C,2,1.52785,1,116.686,3,179.054,0\H,4,1.08873,2,111.506,1,168.201,0\H,4,1.09062,2,110.83,1,45.4461,0\H,4,1.09284,2,108.533,1,-72.3066,0\H,1,1.76075,2,122.367,3,178.726,0\O,8,0.986319,1,172.149,2,174.44,0\H,9,0.991265,8,106.95,1,171.122,0\O,10,1.73699,9,175.895,8,-171.545,0\O,11,1.33559,10,105.981,9,122.059,0\H,7,2.80497,4,97.2077,2,-73.8114,0\C,13,1.09103,7,103.255,4,168.788,0\H,14,1.09181,13,109.219,7,80.2682,0\C,14,1.48049,13,110.691,7,-42.0618,0\H,16,1.08183,14,120.515,13,-33.874,0\H,16,1.0824,14,120.466,13,158.288,0\C,14,1.5666,13,107.823,7,-162.997,0\O,19,1.25625,14,116.673,13,34.8529,0\O,19,1.25633,14,116.706,13,-146.45,0\\\@

 Total job time:  110970.46s(wall), 779940.81s(cpu) 
 Fri May  1 16:49:18 2020

        *************************************************************
        *                                                           *
        *  Thank you very much for using Q-Chem.  Have a nice day.  *
        *                                                           *
        *************************************************************


