11   
From 1-reactant-freq.out: Frame 1 / 67, Energy=    -417.8146016213
C        0.0836230209    1.5004657437    0.0575421988
C       -1.1147476545    0.9441606664   -0.0790163163
H        0.2487028070    2.5516913576   -0.1617505245
H        0.9343655921    0.9130563018    0.3918181084
H       -1.9649929849    1.5341152035   -0.4147565670
C       -1.4121183484   -0.5121107931    0.2185803605
O       -2.6111805190   -0.8643999689    0.0886924615
O       -0.4616603313   -1.2601080022    0.5755824702
O        2.2896766554   -1.2551077570   -1.5618624577
O        2.2761974167   -1.4591127109   -0.1046137589
H        1.3353159340   -1.3295321853    0.1153148887
