
Running Job 1 of 1 qc-freq1.in
qchem qc-freq1.in_6859.0 /scratch/leeping/1862744/qc-freq1.d/ 1
/home/leeping/opt/qchem/5.0.2-openmp/exe/qcprog.exe_s qc-freq1.in_6859.0 /scratch/leeping/1862744/qc-freq1.d/
Check license passed

                  Welcome to Q-Chem
     A Quantum Leap Into The Future Of Chemistry


 Q-Chem 5.0, Q-Chem, Inc., Pleasanton, CA (2017)

 Yihan Shao,  Zhengting Gan,  E. Epifanovsky,  A. T. B. Gilbert,  M. Wormit,  
 J. Kussmann,  A. W. Lange,  A. Behn,  Jia Deng,  Xintian Feng,  D. Ghosh,  
 M. Goldey,  P. R. Horn,  L. D. Jacobson,  I. Kaliman,  T. Kus,  A. Landau,  
 Jie Liu,  E. I. Proynov,  R. M. Richard,  R. P. Steele,  E. J. Sundstrom,  
 H. L. Woodcock III,  P. M. Zimmerman,  D. Zuev,  B. Albrecht,  E. Alguire,  
 S. A. Baeppler,  D. Barton,  Z. Benda,  Y. A. Bernard,  E. J. Berquist,  
 K. B. Bravaya,  H. Burton,  D. Casanova,  Chun-Min Chang,  Yunqing Chen,  
 A. Chien,  K. D. Closser,  M. P. Coons,  S. Dasgupta,  A. L. Dempwolff,  
 M. Diedenhofen,  Hainam Do,  R. G. Edgar,  Po-Tung Fang,  S. Fatehi,  
 Qingguo Feng,  J. Fosso-Tande,  Qinghui Ge,  A. Ghysels,  G. Gidofalvi,  
 J. Gomes,  J. Gonthier,  A. Gunina,  M. W. D. Hanson-Heine,  
 P. H. P. Harbach,  A. W. Hauser,  J. E. Herr,  E. G. Hohenstein,  
 Z. C. Holden,  Kerwin Hui,  T.-C. Jagau,  Hyunjun Ji,  B. Kaduk,  
 K. Khistyaev,  Jaehoon Kim,  P. Klunzinger,  K. Koh,  D. Kosenkov,  
 L. Koulias,  T. Kowalczyk,  C. M. Krauter,  A. Kunitsa,  Ka Un Lao,  
 A. Laurent,  K. V. Lawler,  Joonho Lee,  D. Lefrancois,  S. Lehtola,  
 D. S. Levine,  Yi-Pei Li,  You-Sheng Lin,  Fenglai Liu,  E. Livshits,  
 A. Luenser,  P. Manohar,  E. Mansoor,  S. F. Manzer,  Shan-Ping Mao,  
 Yuezhi Mao,  N. Mardirossian,  A. V. Marenich,  T. Markovich,  
 L. A. Martinez-Martinez,  S. A. Maurer,  N. J. Mayhall,  S. C. McKenzie,  
 J.-M. Mewes,  A. F. Morrison,  J. W. Mullinax,  K. Nanda,  
 T. S. Nguyen-Beck,  R. Olivares-Amaya,  J. A. Parkhill,  T. M. Perrine,  
 F. Plasser,  S. Prager,  A. Prociuk,  E. Ramos,  D. R. Rehn,  F. Rob,  
 M. Schneider,  N. Sergueev,  S. M. Sharada,  S. Sharma,  D. W. Small,  
 T. Stauch,  T. Stein,  Yu-Chuan Su,  A. J. W. Thom,  A. Tkatchenko,  
 T. Tsuchimochi,  L. Vogt,  O. Vydrov,  M. A. Watson,  J. Wenzel,  
 M. de Wergifosse,  T. A. Wesolowski,  A. White,  J. Witte,  A. Yamada,  
 Jun Yang,  K. Yao,  S. Yeganeh,  S. R. Yost,  Zhi-Qiang You,  A. Zech,  
 Igor Ying Zhang,  Xing Zhang,  Yan Zhao,  Ying Zhu,  B. R. Brooks,  
 G. K. L. Chan,  C. J. Cramer,  M. S. Gordon,  W. J. Hehre,  A. Klamt,  
 M. W. Schmidt,  C. D. Sherrill,  D. G. Truhlar,  A. Aspuru-Guzik,  R. Baer,  
 A. T. Bell,  N. A. Besley,  Jeng-Da Chai,  R. A. DiStasio Jr.,  A. Dreuw,  
 B. D. Dunietz,  T. R. Furlani,  Chao-Ping Hsu,  Yousung Jung,  Jing Kong,  
 D. S. Lambrecht,  WanZhen Liang,  C. Ochsenfeld,  V. A. Rassolov,  
 L. V. Slipchenko,  J. E. Subotnik,  T. Van Voorhis,  J. M. Herbert,  
 A. I. Krylov,  P. M. W. Gill,  M. Head-Gordon

 Contributors to earlier versions of Q-Chem not listed above: 
 R. D. Adamson,  B. Austin,  J. Baker,  G. J. O. Beran,  K. Brandhorst,  
 S. T. Brown,  E. F. C. Byrd,  A. K. Chakraborty,  C.-L. Cheng,  
 Siu Hung Chien,  D. M. Chipman,  D. L. Crittenden,  H. Dachsel,  
 R. J. Doerksen,  A. D. Dutoi,  L. Fusti-Molnar,  W. A. Goddard III,  
 A. Golubeva-Zadorozhnaya,  S. R. Gwaltney,  G. Hawkins,  A. Heyden,  
 S. Hirata,  G. Kedziora,  F. J. Keil,  C. Kelley,  Jihan Kim,  R. A. King,  
 R. Z. Khaliullin,  P. P. Korambath,  W. Kurlancheek,  A. M. Lee,  M. S. Lee,  
 S. V. Levchenko,  Ching Yeh Lin,  D. Liotard,  R. C. Lochan,  I. Lotan,  
 P. E. Maslen,  N. Nair,  D. P. O'Neill,  D. Neuhauser,  E. Neuscamman,  
 C. M. Oana,  R. Olson,  B. Peters,  R. Peverati,  P. A. Pieniazek,  
 Y. M. Rhee,  J. Ritchie,  M. A. Rohrdanz,  E. Rosta,  N. J. Russ,  
 H. F. Schaefer III,  N. E. Schultz,  N. Shenvi,  A. C. Simmonett,  A. Sodt,  
 D. Stuck,  K. S. Thanthiriwatte,  V. Vanovschi,  Tao Wang,  A. Warshel,  
 C. F. Williams,  Q. Wu,  X. Xu,  W. Zhang

 Please cite Q-Chem as follows:
 Y. Shao et al., Mol. Phys. 113, 184-215 (2015)
 DOI: 10.1080/00268976.2014.952696

 Q-Chem 5.0.2 for Intel X86 EM64T Linux

 Parts of Q-Chem use Armadillo 5.200.1 (Boston Tea Smuggler).
 http://arma.sourceforge.net/

 Q-Chem begins on Fri Mar 20 21:33:26 2020  

Host: 
0

     Scratch files written to /scratch/leeping/1862744/qc-freq1.d//
 Dec517 15110_ 26548  26544 5633   
Processing $rem in /home/leeping/opt/qchem/5.0.2-openmp/config/preferences.
 MEM_STATIC 2000
 MEM_TOTAL  8000
 SYMMETRY   OFF
 SYM_IGNORE TRUE 
Symmetry turned off for PCM/SM12/SMD calculation

Checking the input file for inconsistencies... 	...done.

--------------------------------------------------------------
User input:
--------------------------------------------------------------
$molecule
-2 1
C        0.0836230209    1.5004657437    0.0575421988
C       -1.1147476545    0.9441606664   -0.0790163163
H        0.2487028070    2.5516913576   -0.1617505245
H        0.9343655921    0.9130563018    0.3918181084
H       -1.9649929849    1.5341152035   -0.4147565670
C       -1.4121183484   -0.5121107931    0.2185803605
O       -2.6111805190   -0.8643999689    0.0886924615
O       -0.4616603313   -1.2601080022    0.5755824702
O        2.2896766554   -1.2551077570   -1.5618624577
O        2.2761974167   -1.4591127109   -0.1046137589
H        1.3353159340   -1.3295321853    0.1153148887
$end

$rem
jobtype               freq
method                wb97x-v
basis                 def2-tzvpd
symmetry              off
sym_ignore            true
incdft                false
incfock               0
!scf_algorithm        diis_gdm
scf_convergence       8
thresh                14
!purecart             112
max_scf_cycles        1000
geom_opt_max_cycles   500
geom_opt_dmax         100
geom_opt_tol_gradient 10
solvent_method        pcm
ideriv                1
rpath_tol_displacement 1000
rpath_max_cycles      100
rpath_direction       1
!scf_guess            read
scf_guess             read
$end

$pcm
theory              cosmo
method              iswig
Radii               bondi
vdwScale            1.20
hpoints             110
heavypoints         110
$end

$solvent
dielectric 78.400000
$end

--------------------------------------------------------------
 ----------------------------------------------------------------
             Standard Nuclear Orientation (Angstroms)
    I     Atom           X                Y                Z
 ----------------------------------------------------------------
    1      C       0.0836230209     1.5004657437     0.0575421988
    2      C      -1.1147476545     0.9441606664    -0.0790163163
    3      H       0.2487028070     2.5516913576    -0.1617505245
    4      H       0.9343655921     0.9130563018     0.3918181084
    5      H      -1.9649929849     1.5341152035    -0.4147565670
    6      C      -1.4121183484    -0.5121107931     0.2185803605
    7      O      -2.6111805190    -0.8643999689     0.0886924615
    8      O      -0.4616603313    -1.2601080022     0.5755824702
    9      O       2.2896766554    -1.2551077570    -1.5618624577
   10      O       2.2761974167    -1.4591127109    -0.1046137589
   11      H       1.3353159340    -1.3295321853     0.1153148887
 ----------------------------------------------------------------
 Nuclear Repulsion Energy =   268.5364019368 hartrees
 There are       28 alpha and       28 beta electrons
 Requested basis set is def2-TZVPD
 There are 115 shells and 307 basis functions

 Total QAlloc Memory Limit   8000 MB
 Mega-Array Size      1956 MB
 MEM_STATIC part      2000 MB
 Discretize the solute cavity surface with Lebedev spheres
	Using 110 Lebedev grid points for each H atom
	Using 110 Lebedev grid points for other atoms
	Atomic van der Waals radii will be scaled by 1.20
 Remove points where switching function is < 1.0e-08
 Keep 753 surface tesserae and discard 457 interior tesserae
 Molecular Surface Area = 155.645 Angst**2

                       Distance Matrix (Angstroms)
             C (  1)   C (  2)   H (  3)   H (  4)   H (  5)   C (  6)
   C (  2)  1.328238
   H (  3)  1.086469  2.109502
   H (  4)  1.086533  2.102741  1.860563
   H (  5)  2.102624  1.087973  2.449474  3.072874
   C (  6)  2.512696  1.515823  3.505690  2.750836  2.212200
   O (  7)  3.585460  2.353365  4.462212  3.977705  2.534540  1.256475
   O (  8)  2.861200  2.390360  3.946909  2.589460  3.323923  1.261079
   O (  9)  3.883597  4.315752  4.540662  3.217867  5.215154  4.174363
   O ( 10)  3.686839  4.156307  4.494502  2.770224  5.200317  3.821641
   H ( 11)  3.094990  3.348172  4.039974  2.294868  4.401533  2.868316
             O (  7)   O (  8)   O (  9)   O ( 10)
   O (  8)  2.239215
   O (  9)  5.186076  3.484042
   O ( 10)  4.927222  2.828097  1.471521
   H ( 11)  3.973901  1.856284  1.931131  0.974894
 
 A cutoff of  1.0D-14 yielded   6189 shell pairs
 There are     44605 function pairs (     57553 Cartesian)
 
 -------------------------------------------------------
 OpenMP Integral Computing Module                       
 Release: version 1.0, May 2013, Q-Chem Inc. Pittsburgh 
 -------------------------------------------------------
 Integral Job Info:
 Integral job number is                      11
 Integral operator is                         1
 short-range coefficients              16700000
 long-range coefficients              100000000
 Omega coefficients                         300
 if combine SR and LR in K                    1
 Integral screening is                        0
 Integral computing path is                   2
 max size of driver memory is            800000
 size of driver memory is                776718
 size of scratch memory is              4473992
 max col of scratch BK array              10000
 max len of scratch array in speh3          662
 max len of scratch index in speh4           32
 max int batch size is                      520
 min int batch size is                       52
 fixed nKL is                                52
 max L of basis functions is                  3
 order of int derivative is                   0
 number of shells is                        115
 number of basis is                         349
 number of cartesian basis is               349
 number of contracted shell pairs          6189
 number of primitive shell pairs          12938
 maxK2 (contraction) of shell pair           36
 max number of K2 of shell pair               1
 max number of CS2 of shell pair            948
 max number of PS2 of shell pair           1452
 mem total for path MDJ                  648692
 -------------------------------------------------------
 Smallest overlap matrix eigenvalue = 5.40E-06
 Guess MOs from SCF MO coefficient file
 Reading MOs from coefficient file
 Reading MOs from coefficient file
 Long-range K will be added via erf
 Coulomb attenuation parameter = 0.3 bohr**(-1)
 A restricted hybrid HF-DFT SCF calculation will be
 performed using Pulay DIIS extrapolation
 Polarizable Continuum solvation model will be applied
 Exchange:     0.1670 Hartree-Fock + 1.0000 wB97X-V + LR-HF
 Correlation:  1.0000 wB97X-V
 Using SG-2 standard quadrature grid
 Nonlocal Correlation:  VV10 with C = 0.0100 and b = 6.00
 Grid used for NLC:  SG-1 standard quadrature
 SCF converges when DIIS error is below 1.0E-08
Using Q-Chem read-in guess as SCF_GUESS READ specified.

 using 16 threads for integral computing
 -------------------------------------------------------
 OpenMP Integral computing Module                
 Release: version 1.0, May 2013, Q-Chem Inc. Pittsburgh 
 -------------------------------------------------------
 using 16 threads for integral computing
 -------------------------------------------------------
 OpenMP Integral computing Module                
 Release: version 1.0, May 2013, Q-Chem Inc. Pittsburgh 
 -------------------------------------------------------
 -------------------------------------------------------
 OpenMP BLAS3 based DFT computing Module                
 Release: version 1.0, May 2013, Q-Chem Inc. Pittsburgh 
 -------------------------------------------------------
 -------------------------------------------------------
 OpenMP BLAS3 based DFT computing Module                
 Release: version 1.0, May 2013, Q-Chem Inc. Pittsburgh 
 -------------------------------------------------------
 -------------------------------------------------------
 OpenMP BLAS3 based DFT computing Module                
 Release: version 1.0, May 2013, Q-Chem Inc. Pittsburgh 
 -------------------------------------------------------
 ---------------------------------------
  Cycle       Energy         DIIS Error
 ---------------------------------------
    1    -417.4641155974      6.14E-04
    2    -417.8031317579      6.94E-04
    3    -417.8112723526      3.19E-04
    4    -417.8126121244      2.29E-04
    5    -417.8134137702      1.75E-04
    6    -417.8138482995      1.39E-04
    7    -417.8141909503      1.03E-04
    8    -417.8143643120      7.79E-05
    9    -417.8144555392      6.12E-05
   10    -417.8145160466      4.69E-05
   11    -417.8145583972      3.33E-05
   12    -417.8145752623      2.60E-05
   13    -417.8145857999      2.02E-05
   14    -417.8145915172      1.61E-05
   15    -417.8145949723      1.31E-05
   16    -417.8145978552      9.84E-06
   17    -417.8146016213      7.45E-09 Convergence criterion met
 ---------------------------------------

************** Final PCM Free Energy Summary **************
 G_electrostatic  =      -0.35048689 hartree =    -219.93384346 kcal/mol
 G_cavitation     =       0.00000000 hartree =       0.00000000 kcal/mol
 G_dispersion     =       0.00000000 hartree =       0.00000000 kcal/mol
 G_repulsion      =       0.00000000 hartree =       0.00000000 kcal/mol
 --------------------------------------------------
 Non-electrostatic Free Energy =       0.00000000 hartree =       0.00000000 kcal/mol
 Total                         =      -0.35048689 hartree =    -219.93384346 kcal/mol
 --------------------------------------------------
 SCF Energy (H0 + V/2)                       =    -417.81460162 
 Solute Internal Energy (H0)                 =    -417.46411473 
 Total Free Energy (H0 + V/2 + non-elec)     =    -417.81460162 hartree
                                             = -262182.61963945 kcal/mol
***********************************************************

 SCF time:  CPU 1150.93 s  wall 81.76 s
 SCF   energy in the final basis set = -417.81460162
 Total energy in the final basis set = -417.81460162
 
 --------------------------------------------------------------
 
                    Orbital Energies (a.u.)
 --------------------------------------------------------------
 
 Alpha MOs
 -- Occupied --
-19.184 -19.148 -19.147 -19.129 -10.350 -10.261 -10.260  -1.152
 -1.119  -1.058  -0.894  -0.867  -0.722  -0.615  -0.576  -0.553
 -0.524  -0.512  -0.499  -0.466  -0.445  -0.425  -0.367  -0.355
 -0.350  -0.341  -0.292  -0.265
 -- Virtual --
  0.062   0.066   0.083   0.085   0.092   0.112   0.116   0.119
  0.133   0.153   0.154   0.164   0.169   0.173   0.189   0.200
  0.205   0.212   0.225   0.225   0.237   0.247   0.253   0.262
  0.281   0.290   0.293   0.297   0.307   0.323   0.343   0.354
  0.359   0.362   0.368   0.381   0.387   0.390   0.402   0.404
  0.416   0.428   0.440   0.446   0.456   0.465   0.473   0.476
  0.490   0.501   0.506   0.510   0.518   0.533   0.549   0.555
  0.563   0.568   0.571   0.582   0.591   0.595   0.603   0.606
  0.618   0.622   0.631   0.634   0.652   0.671   0.679   0.681
  0.697   0.707   0.713   0.727   0.736   0.749   0.766   0.778
  0.787   0.795   0.805   0.813   0.818   0.837   0.849   0.872
  0.880   0.882   0.907   0.923   0.935   0.957   0.967   0.980
  0.991   1.003   1.014   1.033   1.043   1.063   1.084   1.104
  1.114   1.123   1.159   1.166   1.215   1.240   1.297   1.303
  1.325   1.337   1.356   1.371   1.429   1.447   1.456   1.484
  1.508   1.556   1.666   1.679   1.686   1.703   1.738   1.795
  1.849   1.880   1.890   1.908   1.924   1.940   1.948   1.951
  1.982   1.991   2.006   2.036   2.047   2.077   2.098   2.106
  2.122   2.161   2.171   2.243   2.248   2.267   2.279   2.336
  2.371   2.406   2.425   2.444   2.462   2.518   2.554   2.570
  2.600   2.626   2.655   2.704   2.721   2.755   2.798   2.824
  2.864   2.890   2.909   2.938   2.989   3.017   3.045   3.060
  3.093   3.097   3.115   3.157   3.171   3.178   3.226   3.239
  3.274   3.289   3.317   3.347   3.379   3.404   3.417   3.419
  3.434   3.480   3.528   3.560   3.570   3.591   3.604   3.616
  3.624   3.679   3.705   3.745   3.768   3.781   3.872   3.885
  3.982   4.110   4.194   4.234   4.273   4.275   4.375   4.523
  4.544   4.741   4.753   4.857   4.914   4.951   4.969   5.021
  5.038   5.095   5.179   5.214   5.240   5.310   5.345   5.355
  5.364   5.375   5.382   5.496   5.532   5.623   5.634   5.711
  5.736   5.787   5.998   6.034   6.039   6.248   6.276   6.350
  6.364   6.555   6.597   6.613   6.622   6.635   6.646   6.665
  6.699   6.708   6.739   6.750   6.963   6.986   7.002   7.048
  7.074   7.201   7.263   7.341   7.410   7.425   7.501   8.159
 22.542  23.017  23.709  43.865  44.328  44.347  44.408
 --------------------------------------------------------------
 
          Ground-State Mulliken Net Atomic Charges

     Atom                 Charge (a.u.)
  ----------------------------------------
      1 C                    -0.739302
      2 C                    -0.028188
      3 H                     0.260930
      4 H                     0.231242
      5 H                     0.333997
      6 C                     0.337873
      7 O                    -0.686894
      8 O                    -0.717071
      9 O                    -0.874061
     10 O                    -0.399224
     11 H                     0.280699
  ----------------------------------------
  Sum of atomic charges =    -2.000000

 -----------------------------------------------------------------
                    Cartesian Multipole Moments
 -----------------------------------------------------------------
    Charge (ESU x 10^10)
                -9.6064
    Dipole Moment (Debye)
         X      -5.5502      Y      13.3501      Z       5.1304
       Tot      15.3412
    Quadrupole Moments (Debye-Ang)
        XX     -98.9914     XY       9.2458     YY     -63.0396
        XZ      17.1232     YZ      -6.5656     ZZ     -59.1548
    Octopole Moments (Debye-Ang^2)
       XXX     -20.4346    XXY      85.6130    XYY     -15.3366
       YYY      92.2372    XXZ      41.8589    XYZ     -20.3836
       YYZ      13.8776    XZZ     -24.4289    YZZ      33.5687
       ZZZ      39.5393
    Hexadecapole Moments (Debye-Ang^3)
      XXXX   -1267.8351   XXXY     131.6075   XXYY    -310.8855
      XYYY     112.5228   YYYY    -491.0847   XXXZ     190.8982
      XXYZ     -54.1985   XYYZ      65.1816   YYYZ     -46.2644
      XXZZ    -242.9126   XYZZ      60.5980   YYZZ    -134.6348
      XZZZ     136.9586   YZZZ     -51.7447   ZZZZ    -209.6547
 -----------------------------------------------------------------
 Calculating analytic gradient of the SCF energy
 Gradient of SCF Energy
            1           2           3           4           5           6
    1   0.0068798   0.0346938  -0.0103872  -0.0647266   0.0323527  -0.0102327
    2  -0.0118478   0.0665818  -0.0675231   0.0472624  -0.0288264  -0.0741911
    3  -0.0248907  -0.0076605   0.0184072  -0.0027604   0.0211888   0.0243534
            7           8           9          10          11
    1   0.0615581  -0.0524455   0.0025995  -0.0798007   0.0795089
    2   0.0282801   0.0396614   0.0110859  -0.0042491  -0.0062341
    3   0.0016022  -0.0290302  -0.0700681   0.0970873  -0.0282289
 Max gradient component =       9.709E-02
 RMS gradient           =       4.412E-02
 Computing fast CPCM-ISWIG gradient
 Updating gradient with PCM contributions...
 -- total gradient after adding PCM contribution --
---------------------------------------------------
  Atom         X              Y              Z     
---------------------------------------------------
   1      -0.000008      -0.000001      -0.000002
   2      -0.000007      -0.000005      -0.000014
   3       0.000007      -0.000001      -0.000004
   4      -0.000004       0.000007       0.000005
   5       0.000007      -0.000003      -0.000029
   6       0.000026      -0.000012       0.000021
   7      -0.000015       0.000004      -0.000026
   8      -0.000009       0.000020       0.000001
   9       0.000010      -0.000008      -0.000006
  10      -0.000028      -0.000024       0.000044
  11       0.000021       0.000023       0.000011
---------------------------------------------------
 Number of fixed atoms: 0
 Gradient time:  CPU 227.78 s  wall 16.81 s
 ######################################################
 ######################################################
 # Starting finite difference calculation for IDERIV  #
 Finite diff step size:  1.88973e-03 a.u.
 ----------------------------------------------------------------
             Standard Nuclear Orientation (Angstroms)
    I     Atom           X                Y                Z
 ----------------------------------------------------------------
    1      C       0.0846230209     1.5004657437     0.0575421988
    2      C      -1.1147476545     0.9441606664    -0.0790163163
    3      H       0.2487028070     2.5516913576    -0.1617505245
    4      H       0.9343655921     0.9130563018     0.3918181084
    5      H      -1.9649929849     1.5341152035    -0.4147565670
    6      C      -1.4121183484    -0.5121107931     0.2185803605
    7      O      -2.6111805190    -0.8643999689     0.0886924615
    8      O      -0.4616603313    -1.2601080022     0.5755824702
    9      O       2.2896766554    -1.2551077570    -1.5618624577
   10      O       2.2761974167    -1.4591127109    -0.1046137589
   11      H       1.3353159340    -1.3295321853     0.1153148887
 ----------------------------------------------------------------
 Nuclear Repulsion Energy =   268.5268096136 hartrees
 There are       28 alpha and       28 beta electrons
 Discretize the solute cavity surface with Lebedev spheres
	Using 110 Lebedev grid points for each H atom
	Using 110 Lebedev grid points for other atoms
	Atomic van der Waals radii will be scaled by 1.20
 Remove points where switching function is < 1.0e-08
 Keep 753 surface tesserae and discard 457 interior tesserae
 Molecular Surface Area = 155.647 Angst**2

                       Distance Matrix (Angstroms)
             C (  1)   C (  2)   H (  3)   H (  4)   H (  5)   C (  6)
   C (  2)  1.329140
   H (  3)  1.086318  2.109502
   H (  4)  1.085750  2.102741  1.860563
   H (  5)  2.103598  1.087973  2.449474  3.072874
   C (  6)  2.513291  1.515823  3.505690  2.750836  2.212200
   O (  7)  3.586212  2.353365  4.462212  3.977705  2.534540  1.256475
   O (  8)  2.861391  2.390360  3.946909  2.589460  3.323923  1.261079
   O (  9)  3.883030  4.315752  4.540662  3.217867  5.215154  4.174363
   O ( 10)  3.686244  4.156307  4.494502  2.770224  5.200317  3.821641
   H ( 11)  3.094585  3.348172  4.039974  2.294868  4.401533  2.868316
             O (  7)   O (  8)   O (  9)   O ( 10)
   O (  8)  2.239215
   O (  9)  5.186076  3.484042
   O ( 10)  4.927222  2.828097  1.471521
   H ( 11)  3.973901  1.856284  1.931131  0.974894
 
 Requested basis set is def2-TZVPD
 There are 115 shells and 307 basis functions
 A cutoff of  1.0D-14 yielded   6189 shell pairs
 There are     44605 function pairs (     57553 Cartesian)
 Smallest overlap matrix eigenvalue = 5.44E-06
 Guess MOs from SCF MO coefficient file
 Reading MOs from coefficient file
 Reading MOs from coefficient file
 Long-range K will be added via erf
 Coulomb attenuation parameter = 0.3 bohr**(-1)
 A restricted hybrid HF-DFT SCF calculation will be
 performed using Pulay DIIS extrapolation
 Polarizable Continuum solvation model will be applied
 Exchange:     0.1670 Hartree-Fock + 1.0000 wB97X-V + LR-HF
 Correlation:  1.0000 wB97X-V
 Using SG-2 standard quadrature grid
 Nonlocal Correlation:  VV10 with C = 0.0100 and b = 6.00
 Grid used for NLC:  SG-1 standard quadrature
 SCF converges when DIIS error is below 1.0E-08
Using Q-Chem read-in guess as SCF_GUESS READ specified.

 using 16 threads for integral computing
 -------------------------------------------------------
 OpenMP Integral computing Module                
 Release: version 1.0, May 2013, Q-Chem Inc. Pittsburgh 
 -------------------------------------------------------
 using 16 threads for integral computing
 -------------------------------------------------------
 OpenMP Integral computing Module                
 Release: version 1.0, May 2013, Q-Chem Inc. Pittsburgh 
 -------------------------------------------------------
 -------------------------------------------------------
 OpenMP BLAS3 based DFT computing Module                
 Release: version 1.0, May 2013, Q-Chem Inc. Pittsburgh 
 -------------------------------------------------------
 -------------------------------------------------------
 OpenMP BLAS3 based DFT computing Module                
 Release: version 1.0, May 2013, Q-Chem Inc. Pittsburgh 
 -------------------------------------------------------
 -------------------------------------------------------
 OpenMP BLAS3 based DFT computing Module                
 Release: version 1.0, May 2013, Q-Chem Inc. Pittsburgh 
 -------------------------------------------------------
 ---------------------------------------
  Cycle       Energy         DIIS Error
 ---------------------------------------
    1    -417.4644986329      6.14E-04
    2    -417.8031275522      6.94E-04
    3    -417.8112715075      3.19E-04
    4    -417.8126121355      2.29E-04
    5    -417.8134177777      1.74E-04
    6    -417.8138614356      1.38E-04
    7    -417.8142235699      9.82E-05
    8    -417.8144153205      6.87E-05
    9    -417.8145198281      4.54E-05
   10    -417.8145791710      2.33E-05
   11    -417.8145983409      6.96E-06
   12    -417.8145999654      2.51E-06
   13    -417.8146001955      5.18E-07
   14    -417.8146002053      8.48E-08
   15    -417.8146002055      4.49E-08
   16    -417.8146002056      8.06E-09 Convergence criterion met
 ---------------------------------------

************** Final PCM Free Energy Summary **************
 G_electrostatic  =      -0.35048702 hartree =    -219.93392491 kcal/mol
 G_cavitation     =       0.00000000 hartree =       0.00000000 kcal/mol
 G_dispersion     =       0.00000000 hartree =       0.00000000 kcal/mol
 G_repulsion      =       0.00000000 hartree =       0.00000000 kcal/mol
 --------------------------------------------------
 Non-electrostatic Free Energy =       0.00000000 hartree =       0.00000000 kcal/mol
 Total                         =      -0.35048702 hartree =    -219.93392491 kcal/mol
 --------------------------------------------------
 SCF Energy (H0 + V/2)                       =    -417.81460021 
 Solute Internal Energy (H0)                 =    -417.46411318 
 Total Free Energy (H0 + V/2 + non-elec)     =    -417.81460021 hartree
                                             = -262182.61875109 kcal/mol
***********************************************************

 SCF time:  CPU 1081.97 s  wall 76.93 s
 SCF   energy in the final basis set = -417.81460021
 Total energy in the final basis set = -417.81460021
 
 --------------------------------------------------------------
 
                    Orbital Energies (a.u.)
 --------------------------------------------------------------
 
 Alpha MOs
 -- Occupied --
-19.184 -19.148 -19.147 -19.129 -10.350 -10.261 -10.260  -1.152
 -1.119  -1.058  -0.894  -0.867  -0.722  -0.615  -0.576  -0.553
 -0.524  -0.512  -0.499  -0.466  -0.445  -0.425  -0.367  -0.355
 -0.350  -0.341  -0.292  -0.265
 -- Virtual --
  0.062   0.066   0.083   0.085   0.092   0.112   0.116   0.119
  0.133   0.153   0.154   0.164   0.169   0.173   0.189   0.200
  0.205   0.212   0.225   0.225   0.237   0.247   0.253   0.262
  0.281   0.290   0.293   0.297   0.307   0.323   0.343   0.354
  0.359   0.362   0.368   0.381   0.387   0.391   0.402   0.404
  0.416   0.428   0.440   0.446   0.456   0.465   0.473   0.476
  0.490   0.501   0.506   0.510   0.518   0.533   0.549   0.555
  0.563   0.568   0.571   0.582   0.591   0.595   0.604   0.606
  0.618   0.622   0.631   0.634   0.652   0.671   0.679   0.681
  0.697   0.707   0.713   0.727   0.736   0.749   0.766   0.778
  0.787   0.795   0.805   0.813   0.818   0.837   0.849   0.872
  0.880   0.882   0.907   0.923   0.935   0.957   0.967   0.980
  0.991   1.003   1.014   1.033   1.043   1.063   1.084   1.104
  1.114   1.123   1.159   1.167   1.215   1.240   1.297   1.303
  1.325   1.337   1.356   1.371   1.429   1.447   1.456   1.484
  1.508   1.556   1.666   1.678   1.686   1.703   1.738   1.795
  1.849   1.880   1.890   1.908   1.924   1.940   1.948   1.951
  1.982   1.991   2.006   2.036   2.047   2.077   2.098   2.106
  2.122   2.162   2.171   2.243   2.248   2.267   2.279   2.336
  2.371   2.406   2.425   2.444   2.462   2.518   2.554   2.570
  2.600   2.626   2.655   2.704   2.721   2.755   2.798   2.824
  2.864   2.890   2.909   2.938   2.989   3.017   3.045   3.060
  3.093   3.097   3.115   3.157   3.171   3.178   3.226   3.239
  3.274   3.288   3.317   3.347   3.379   3.404   3.417   3.419
  3.434   3.480   3.528   3.560   3.570   3.591   3.604   3.615
  3.624   3.679   3.705   3.745   3.768   3.781   3.871   3.885
  3.982   4.110   4.194   4.233   4.273   4.275   4.373   4.522
  4.543   4.741   4.753   4.857   4.914   4.951   4.969   5.021
  5.038   5.095   5.179   5.213   5.240   5.310   5.345   5.355
  5.364   5.375   5.382   5.496   5.532   5.623   5.634   5.711
  5.736   5.787   5.998   6.034   6.039   6.248   6.276   6.350
  6.364   6.555   6.597   6.613   6.622   6.635   6.646   6.665
  6.699   6.708   6.739   6.750   6.963   6.986   7.002   7.048
  7.075   7.201   7.263   7.341   7.410   7.425   7.501   8.159
 22.543  23.015  23.709  43.865  44.328  44.347  44.408
 --------------------------------------------------------------
 
          Ground-State Mulliken Net Atomic Charges

     Atom                 Charge (a.u.)
  ----------------------------------------
      1 C                    -0.740558
      2 C                    -0.027747
      3 H                     0.260895
      4 H                     0.232205
      5 H                     0.334105
      6 C                     0.337657
      7 O                    -0.686881
      8 O                    -0.717101
      9 O                    -0.874064
     10 O                    -0.399216
     11 H                     0.280704
  ----------------------------------------
  Sum of atomic charges =    -2.000000

 -----------------------------------------------------------------
                    Cartesian Multipole Moments
 -----------------------------------------------------------------
    Charge (ESU x 10^10)
                -9.6064
    Dipole Moment (Debye)
         X      -5.5503      Y      13.3500      Z       5.1308
       Tot      15.3412
    Quadrupole Moments (Debye-Ang)
        XX     -98.9903     XY       9.2444     YY     -63.0403
        XZ      17.1244     YZ      -6.5659     ZZ     -59.1570
    Octopole Moments (Debye-Ang^2)
       XXX     -20.4510    XXY      85.6137    XYY     -15.3444
       YYY      92.2370    XXZ      41.8586    XYZ     -20.3820
       YYZ      13.8764    XZZ     -24.4323    YZZ      33.5659
       ZZZ      39.5409
    Hexadecapole Moments (Debye-Ang^3)
      XXXX   -1267.8306   XXXY     131.5797   XXYY    -310.8874
      XYYY     112.4918   YYYY    -491.0819   XXXZ     190.9011
      XXYZ     -54.1993   XYYZ      65.1843   YYYZ     -46.2682
      XXZZ    -242.9143   XYZZ      60.5915   YYZZ    -134.6401
      XZZZ     136.9600   YZZZ     -51.7441   ZZZZ    -209.6626
 -----------------------------------------------------------------
 Calculating analytic gradient of the SCF energy
 Gradient of SCF Energy
            1           2           3           4           5           6
    1   0.0082656   0.0336951  -0.0103922  -0.0651359   0.0323007  -0.0101515
    2  -0.0115694   0.0661367  -0.0676120   0.0475252  -0.0288539  -0.0741743
    3  -0.0248282  -0.0076225   0.0184244  -0.0028893   0.0211881   0.0243701
            7           8           9          10          11
    1   0.0615598  -0.0524478   0.0025999  -0.0797981   0.0795046
    2   0.0282821   0.0396706   0.0110878  -0.0042518  -0.0062410
    3   0.0016014  -0.0290330  -0.0700661   0.0970858  -0.0282307
 Max gradient component =       9.709E-02
 RMS gradient           =       4.411E-02
 Computing fast CPCM-ISWIG gradient
 Updating gradient with PCM contributions...
 -- total gradient after adding PCM contribution --
---------------------------------------------------
  Atom         X              Y              Z     
---------------------------------------------------
   1       0.001505       0.000209       0.000237
   2      -0.000932      -0.000325      -0.000123
   3      -0.000109      -0.000078       0.000005
   4      -0.000434       0.000239      -0.000131
   5      -0.000029      -0.000030      -0.000033
   6       0.000020      -0.000039       0.000024
   7      -0.000009       0.000006      -0.000025
   8      -0.000015       0.000026      -0.000002
   9       0.000008      -0.000007      -0.000005
  10      -0.000027      -0.000025       0.000043
  11       0.000021       0.000024       0.000011
---------------------------------------------------
 Number of fixed atoms: 0
 Gradient time:  CPU 227.94 s  wall 16.81 s
 ----------------------------------------------------------------
             Standard Nuclear Orientation (Angstroms)
    I     Atom           X                Y                Z
 ----------------------------------------------------------------
    1      C       0.0826230209     1.5004657437     0.0575421988
    2      C      -1.1147476545     0.9441606664    -0.0790163163
    3      H       0.2487028070     2.5516913576    -0.1617505245
    4      H       0.9343655921     0.9130563018     0.3918181084
    5      H      -1.9649929849     1.5341152035    -0.4147565670
    6      C      -1.4121183484    -0.5121107931     0.2185803605
    7      O      -2.6111805190    -0.8643999689     0.0886924615
    8      O      -0.4616603313    -1.2601080022     0.5755824702
    9      O       2.2896766554    -1.2551077570    -1.5618624577
   10      O       2.2761974167    -1.4591127109    -0.1046137589
   11      H       1.3353159340    -1.3295321853     0.1153148887
 ----------------------------------------------------------------
 Nuclear Repulsion Energy =   268.5460058422 hartrees
 There are       28 alpha and       28 beta electrons
 Discretize the solute cavity surface with Lebedev spheres
	Using 110 Lebedev grid points for each H atom
	Using 110 Lebedev grid points for other atoms
	Atomic van der Waals radii will be scaled by 1.20
 Remove points where switching function is < 1.0e-08
 Keep 753 surface tesserae and discard 457 interior tesserae
 Molecular Surface Area = 155.642 Angst**2

                       Distance Matrix (Angstroms)
             C (  1)   C (  2)   H (  3)   H (  4)   H (  5)   C (  6)
   C (  2)  1.327336
   H (  3)  1.086622  2.109502
   H (  4)  1.087316  2.102741  1.860563
   H (  5)  2.101649  1.087973  2.449474  3.072874
   C (  6)  2.512101  1.515823  3.505690  2.750836  2.212200
   O (  7)  3.584709  2.353365  4.462212  3.977705  2.534540  1.256475
   O (  8)  2.861010  2.390360  3.946909  2.589460  3.323923  1.261079
   O (  9)  3.884166  4.315752  4.540662  3.217867  5.215154  4.174363
   O ( 10)  3.687434  4.156307  4.494502  2.770224  5.200317  3.821641
   H ( 11)  3.095394  3.348172  4.039974  2.294868  4.401533  2.868316
             O (  7)   O (  8)   O (  9)   O ( 10)
   O (  8)  2.239215
   O (  9)  5.186076  3.484042
   O ( 10)  4.927222  2.828097  1.471521
   H ( 11)  3.973901  1.856284  1.931131  0.974894
 
 Requested basis set is def2-TZVPD
 There are 115 shells and 307 basis functions
 A cutoff of  1.0D-14 yielded   6189 shell pairs
 There are     44605 function pairs (     57553 Cartesian)
 Smallest overlap matrix eigenvalue = 5.36E-06
 Guess MOs from SCF MO coefficient file
 Reading MOs from coefficient file
 Reading MOs from coefficient file
 Long-range K will be added via erf
 Coulomb attenuation parameter = 0.3 bohr**(-1)
 A restricted hybrid HF-DFT SCF calculation will be
 performed using Pulay DIIS extrapolation
 Polarizable Continuum solvation model will be applied
 Exchange:     0.1670 Hartree-Fock + 1.0000 wB97X-V + LR-HF
 Correlation:  1.0000 wB97X-V
 Using SG-2 standard quadrature grid
 Nonlocal Correlation:  VV10 with C = 0.0100 and b = 6.00
 Grid used for NLC:  SG-1 standard quadrature
 SCF converges when DIIS error is below 1.0E-08
Using Q-Chem read-in guess as SCF_GUESS READ specified.

 using 16 threads for integral computing
 -------------------------------------------------------
 OpenMP Integral computing Module                
 Release: version 1.0, May 2013, Q-Chem Inc. Pittsburgh 
 -------------------------------------------------------
 using 16 threads for integral computing
 -------------------------------------------------------
 OpenMP Integral computing Module                
 Release: version 1.0, May 2013, Q-Chem Inc. Pittsburgh 
 -------------------------------------------------------
 -------------------------------------------------------
 OpenMP BLAS3 based DFT computing Module                
 Release: version 1.0, May 2013, Q-Chem Inc. Pittsburgh 
 -------------------------------------------------------
 -------------------------------------------------------
 OpenMP BLAS3 based DFT computing Module                
 Release: version 1.0, May 2013, Q-Chem Inc. Pittsburgh 
 -------------------------------------------------------
 -------------------------------------------------------
 OpenMP BLAS3 based DFT computing Module                
 Release: version 1.0, May 2013, Q-Chem Inc. Pittsburgh 
 -------------------------------------------------------
 ---------------------------------------
  Cycle       Energy         DIIS Error
 ---------------------------------------
    1    -417.4633515601      6.15E-04
    2    -417.8031345454      6.94E-04
    3    -417.8112771991      3.18E-04
    4    -417.8126188405      2.28E-04
    5    -417.8134330234      1.73E-04
    6    -417.8138979040      1.34E-04
    7    -417.8143027712      8.71E-05
    8    -417.8145031108      4.97E-05
    9    -417.8145775280      2.41E-05
   10    -417.8145980523      7.41E-06
   11    -417.8146001206      1.21E-06
   12    -417.8146001702      3.32E-07
   13    -417.8146001740      5.20E-08
   14    -417.8146001741      1.78E-08
   15    -417.8146001741      4.78E-09 Convergence criterion met
 ---------------------------------------

************** Final PCM Free Energy Summary **************
 G_electrostatic  =      -0.35048677 hartree =    -219.93376476 kcal/mol
 G_cavitation     =       0.00000000 hartree =       0.00000000 kcal/mol
 G_dispersion     =       0.00000000 hartree =       0.00000000 kcal/mol
 G_repulsion      =       0.00000000 hartree =       0.00000000 kcal/mol
 --------------------------------------------------
 Non-electrostatic Free Energy =       0.00000000 hartree =       0.00000000 kcal/mol
 Total                         =      -0.35048677 hartree =    -219.93376476 kcal/mol
 --------------------------------------------------
 SCF Energy (H0 + V/2)                       =    -417.81460017 
 Solute Internal Energy (H0)                 =    -417.46411341 
 Total Free Energy (H0 + V/2 + non-elec)     =    -417.81460017 hartree
                                             = -262182.61873130 kcal/mol
***********************************************************

 SCF time:  CPU 1013.42 s  wall 72.02 s
 SCF   energy in the final basis set = -417.81460017
 Total energy in the final basis set = -417.81460017
 
 --------------------------------------------------------------
 
                    Orbital Energies (a.u.)
 --------------------------------------------------------------
 
 Alpha MOs
 -- Occupied --
-19.184 -19.148 -19.147 -19.129 -10.350 -10.261 -10.260  -1.152
 -1.119  -1.058  -0.894  -0.867  -0.722  -0.615  -0.576  -0.553
 -0.524  -0.512  -0.499  -0.466  -0.445  -0.425  -0.367  -0.355
 -0.350  -0.341  -0.292  -0.265
 -- Virtual --
  0.062   0.066   0.083   0.085   0.092   0.112   0.116   0.119
  0.133   0.153   0.154   0.164   0.169   0.173   0.189   0.200
  0.205   0.212   0.225   0.225   0.237   0.247   0.253   0.262
  0.281   0.290   0.293   0.297   0.307   0.323   0.343   0.354
  0.359   0.362   0.368   0.381   0.387   0.390   0.402   0.404
  0.416   0.428   0.440   0.446   0.456   0.465   0.473   0.476
  0.490   0.501   0.506   0.510   0.518   0.533   0.549   0.555
  0.563   0.568   0.571   0.582   0.591   0.595   0.603   0.606
  0.618   0.622   0.631   0.634   0.652   0.671   0.679   0.681
  0.697   0.707   0.713   0.727   0.736   0.749   0.766   0.778
  0.787   0.795   0.805   0.813   0.818   0.837   0.849   0.872
  0.880   0.882   0.907   0.924   0.935   0.957   0.967   0.980
  0.991   1.003   1.014   1.033   1.043   1.063   1.084   1.104
  1.114   1.123   1.159   1.166   1.215   1.240   1.297   1.303
  1.325   1.337   1.356   1.371   1.429   1.447   1.456   1.484
  1.508   1.556   1.666   1.679   1.686   1.703   1.738   1.795
  1.849   1.880   1.890   1.908   1.924   1.940   1.948   1.951
  1.982   1.991   2.006   2.036   2.047   2.077   2.098   2.106
  2.122   2.161   2.171   2.243   2.248   2.267   2.279   2.336
  2.371   2.406   2.425   2.444   2.463   2.518   2.554   2.570
  2.600   2.626   2.655   2.703   2.721   2.755   2.798   2.824
  2.864   2.891   2.909   2.938   2.989   3.017   3.045   3.060
  3.093   3.097   3.115   3.157   3.170   3.178   3.226   3.240
  3.273   3.289   3.317   3.347   3.379   3.404   3.417   3.419
  3.434   3.480   3.528   3.560   3.570   3.591   3.604   3.616
  3.624   3.680   3.705   3.745   3.768   3.781   3.872   3.885
  3.982   4.110   4.194   4.234   4.273   4.275   4.376   4.524
  4.546   4.740   4.754   4.858   4.914   4.951   4.970   5.021
  5.038   5.095   5.179   5.215   5.240   5.310   5.345   5.355
  5.364   5.375   5.382   5.496   5.532   5.623   5.634   5.711
  5.736   5.787   5.998   6.034   6.039   6.248   6.276   6.350
  6.364   6.555   6.597   6.613   6.622   6.635   6.646   6.665
  6.699   6.708   6.739   6.750   6.963   6.986   7.002   7.048
  7.074   7.201   7.263   7.341   7.410   7.425   7.501   8.159
 22.542  23.019  23.709  43.865  44.328  44.347  44.408
 --------------------------------------------------------------
 
          Ground-State Mulliken Net Atomic Charges

     Atom                 Charge (a.u.)
  ----------------------------------------
      1 C                    -0.738044
      2 C                    -0.028638
      3 H                     0.260965
      4 H                     0.230282
      5 H                     0.333890
      6 C                     0.338087
      7 O                    -0.686906
      8 O                    -0.717040
      9 O                    -0.874057
     10 O                    -0.399233
     11 H                     0.280693
  ----------------------------------------
  Sum of atomic charges =    -2.000000

 -----------------------------------------------------------------
                    Cartesian Multipole Moments
 -----------------------------------------------------------------
    Charge (ESU x 10^10)
                -9.6064
    Dipole Moment (Debye)
         X      -5.5501      Y      13.3502      Z       5.1301
       Tot      15.3411
    Quadrupole Moments (Debye-Ang)
        XX     -98.9925     XY       9.2471     YY     -63.0388
        XZ      17.1220     YZ      -6.5653     ZZ     -59.1526
    Octopole Moments (Debye-Ang^2)
       XXX     -20.4181    XXY      85.6124    XYY     -15.3288
       YYY      92.2374    XXZ      41.8592    XYZ     -20.3852
       YYZ      13.8789    XZZ     -24.4255    YZZ      33.5715
       ZZZ      39.5376
    Hexadecapole Moments (Debye-Ang^3)
      XXXX   -1267.8393   XXXY     131.6353   XXYY    -310.8836
      XYYY     112.5537   YYYY    -491.0876   XXXZ     190.8949
      XXYZ     -54.1976   XYYZ      65.1789   YYYZ     -46.2606
      XXZZ    -242.9108   XYZZ      60.6044   YYZZ    -134.6295
      XZZZ     136.9572   YZZZ     -51.7453   ZZZZ    -209.6467
 -----------------------------------------------------------------
 Calculating analytic gradient of the SCF energy
 Gradient of SCF Energy
            1           2           3           4           5           6
    1   0.0054902   0.0356976  -0.0103821  -0.0643185   0.0324053  -0.0103147
    2  -0.0121303   0.0670298  -0.0674339   0.0470007  -0.0287990  -0.0742079
    3  -0.0249533  -0.0076979   0.0183899  -0.0026323   0.0211901   0.0243362
            7           8           9          10          11
    1   0.0615564  -0.0524432   0.0025991  -0.0798033   0.0795132
    2   0.0282782   0.0396520   0.0110839  -0.0042464  -0.0062272
    3   0.0016031  -0.0290273  -0.0700702   0.0970889  -0.0282272
 Max gradient component =       9.709E-02
 RMS gradient           =       4.413E-02
 Computing fast CPCM-ISWIG gradient
 Updating gradient with PCM contributions...
 -- total gradient after adding PCM contribution --
---------------------------------------------------
  Atom         X              Y              Z     
---------------------------------------------------
   1      -0.001524      -0.000216      -0.000241
   2       0.000923       0.000318       0.000096
   3       0.000123       0.000077      -0.000014
   4       0.000425      -0.000224       0.000140
   5       0.000042       0.000024      -0.000024
   6       0.000032       0.000016       0.000018
   7      -0.000022       0.000002      -0.000027
   8      -0.000002       0.000013       0.000004
   9       0.000011      -0.000009      -0.000007
  10      -0.000028      -0.000023       0.000044
  11       0.000021       0.000021       0.000011
---------------------------------------------------
 Number of fixed atoms: 0
 Gradient time:  CPU 228.36 s  wall 16.77 s
 ----------------------------------------------------------------
             Standard Nuclear Orientation (Angstroms)
    I     Atom           X                Y                Z
 ----------------------------------------------------------------
    1      C       0.0836230209     1.5014657437     0.0575421988
    2      C      -1.1147476545     0.9441606664    -0.0790163163
    3      H       0.2487028070     2.5516913576    -0.1617505245
    4      H       0.9343655921     0.9130563018     0.3918181084
    5      H      -1.9649929849     1.5341152035    -0.4147565670
    6      C      -1.4121183484    -0.5121107931     0.2185803605
    7      O      -2.6111805190    -0.8643999689     0.0886924615
    8      O      -0.4616603313    -1.2601080022     0.5755824702
    9      O       2.2896766554    -1.2551077570    -1.5618624577
   10      O       2.2761974167    -1.4591127109    -0.1046137589
   11      H       1.3353159340    -1.3295321853     0.1153148887
 ----------------------------------------------------------------
 Nuclear Repulsion Energy =   268.5233296746 hartrees
 There are       28 alpha and       28 beta electrons
 Discretize the solute cavity surface with Lebedev spheres
	Using 110 Lebedev grid points for each H atom
	Using 110 Lebedev grid points for other atoms
	Atomic van der Waals radii will be scaled by 1.20
 Remove points where switching function is < 1.0e-08
 Keep 753 surface tesserae and discard 457 interior tesserae
 Molecular Surface Area = 155.654 Angst**2

                       Distance Matrix (Angstroms)
             C (  1)   C (  2)   H (  3)   H (  4)   H (  5)   C (  6)
   C (  2)  1.328657
   H (  3)  1.085502  2.109502
   H (  4)  1.087074  2.102741  1.860563
   H (  5)  2.102608  1.087973  2.449474  3.072874
   C (  6)  2.513497  1.515823  3.505690  2.750836  2.212200
   O (  7)  3.586120  2.353365  4.462212  3.977705  2.534540  1.256475
   O (  8)  2.862165  2.390360  3.946909  2.589460  3.323923  1.261079
   O (  9)  3.884307  4.315752  4.540662  3.217867  5.215154  4.174363
   O ( 10)  3.687642  4.156307  4.494502  2.770224  5.200317  3.821641
   H ( 11)  3.095904  3.348172  4.039974  2.294868  4.401533  2.868316
             O (  7)   O (  8)   O (  9)   O ( 10)
   O (  8)  2.239215
   O (  9)  5.186076  3.484042
   O ( 10)  4.927222  2.828097  1.471521
   H ( 11)  3.973901  1.856284  1.931131  0.974894
 
 Requested basis set is def2-TZVPD
 There are 115 shells and 307 basis functions
 A cutoff of  1.0D-14 yielded   6189 shell pairs
 There are     44605 function pairs (     57553 Cartesian)
 Smallest overlap matrix eigenvalue = 5.41E-06
 Guess MOs from SCF MO coefficient file
 Reading MOs from coefficient file
 Reading MOs from coefficient file
 Long-range K will be added via erf
 Coulomb attenuation parameter = 0.3 bohr**(-1)
 A restricted hybrid HF-DFT SCF calculation will be
 performed using Pulay DIIS extrapolation
 Polarizable Continuum solvation model will be applied
 Exchange:     0.1670 Hartree-Fock + 1.0000 wB97X-V + LR-HF
 Correlation:  1.0000 wB97X-V
 Using SG-2 standard quadrature grid
 Nonlocal Correlation:  VV10 with C = 0.0100 and b = 6.00
 Grid used for NLC:  SG-1 standard quadrature
 SCF converges when DIIS error is below 1.0E-08
Using Q-Chem read-in guess as SCF_GUESS READ specified.

 using 16 threads for integral computing
 -------------------------------------------------------
 OpenMP Integral computing Module                
 Release: version 1.0, May 2013, Q-Chem Inc. Pittsburgh 
 -------------------------------------------------------
 using 16 threads for integral computing
 -------------------------------------------------------
 OpenMP Integral computing Module                
 Release: version 1.0, May 2013, Q-Chem Inc. Pittsburgh 
 -------------------------------------------------------
 -------------------------------------------------------
 OpenMP BLAS3 based DFT computing Module                
 Release: version 1.0, May 2013, Q-Chem Inc. Pittsburgh 
 -------------------------------------------------------
 -------------------------------------------------------
 OpenMP BLAS3 based DFT computing Module                
 Release: version 1.0, May 2013, Q-Chem Inc. Pittsburgh 
 -------------------------------------------------------
 -------------------------------------------------------
 OpenMP BLAS3 based DFT computing Module                
 Release: version 1.0, May 2013, Q-Chem Inc. Pittsburgh 
 -------------------------------------------------------
 ---------------------------------------
  Cycle       Energy         DIIS Error
 ---------------------------------------
    1    -417.4647596062      6.14E-04
    2    -417.8031467175      6.93E-04
    3    -417.8112756305      3.18E-04
    4    -417.8126142958      2.29E-04
    5    -417.8134193642      1.74E-04
    6    -417.8138707900      1.37E-04
    7    -417.8142550832      9.39E-05
    8    -417.8144573726      6.04E-05
    9    -417.8145537915      3.46E-05
   10    -417.8145931284      1.37E-05
   11    -417.8146001455      2.78E-06
   12    -417.8146004123      8.36E-07
   13    -417.8146004383      1.47E-07
   14    -417.8146004390      2.00E-08
   15    -417.8146004391      9.71E-09 Convergence criterion met
 ---------------------------------------

************** Final PCM Free Energy Summary **************
 G_electrostatic  =      -0.35049013 hartree =    -219.93587481 kcal/mol
 G_cavitation     =       0.00000000 hartree =       0.00000000 kcal/mol
 G_dispersion     =       0.00000000 hartree =       0.00000000 kcal/mol
 G_repulsion      =       0.00000000 hartree =       0.00000000 kcal/mol
 --------------------------------------------------
 Non-electrostatic Free Energy =       0.00000000 hartree =       0.00000000 kcal/mol
 Total                         =      -0.35049013 hartree =    -219.93587481 kcal/mol
 --------------------------------------------------
 SCF Energy (H0 + V/2)                       =    -417.81460044 
 Solute Internal Energy (H0)                 =    -417.46411031 
 Total Free Energy (H0 + V/2 + non-elec)     =    -417.81460044 hartree
                                             = -262182.61889759 kcal/mol
***********************************************************

 SCF time:  CPU 1009.25 s  wall 71.70 s
 SCF   energy in the final basis set = -417.81460044
 Total energy in the final basis set = -417.81460044
 
 --------------------------------------------------------------
 
                    Orbital Energies (a.u.)
 --------------------------------------------------------------
 
 Alpha MOs
 -- Occupied --
-19.184 -19.148 -19.147 -19.129 -10.350 -10.261 -10.260  -1.152
 -1.119  -1.058  -0.894  -0.867  -0.722  -0.615  -0.576  -0.553
 -0.524  -0.512  -0.499  -0.466  -0.445  -0.425  -0.367  -0.355
 -0.350  -0.341  -0.292  -0.265
 -- Virtual --
  0.062   0.066   0.083   0.085   0.092   0.112   0.116   0.119
  0.133   0.153   0.154   0.164   0.169   0.173   0.189   0.200
  0.205   0.212   0.225   0.225   0.237   0.247   0.253   0.262
  0.281   0.290   0.293   0.297   0.307   0.323   0.343   0.354
  0.359   0.362   0.368   0.381   0.387   0.390   0.402   0.404
  0.416   0.428   0.440   0.446   0.456   0.465   0.473   0.476
  0.490   0.501   0.506   0.510   0.518   0.533   0.549   0.555
  0.563   0.568   0.571   0.582   0.591   0.595   0.603   0.606
  0.618   0.622   0.631   0.634   0.652   0.671   0.679   0.681
  0.697   0.707   0.713   0.727   0.736   0.749   0.766   0.778
  0.787   0.795   0.805   0.813   0.818   0.837   0.849   0.872
  0.880   0.882   0.907   0.923   0.935   0.957   0.967   0.980
  0.991   1.003   1.014   1.033   1.043   1.063   1.084   1.104
  1.114   1.123   1.159   1.166   1.215   1.240   1.297   1.303
  1.325   1.337   1.356   1.371   1.429   1.447   1.456   1.484
  1.508   1.556   1.666   1.679   1.686   1.703   1.738   1.795
  1.849   1.880   1.890   1.908   1.924   1.940   1.948   1.951
  1.982   1.991   2.006   2.036   2.047   2.077   2.098   2.106
  2.123   2.161   2.171   2.243   2.248   2.267   2.279   2.336
  2.371   2.407   2.425   2.444   2.463   2.518   2.554   2.570
  2.600   2.627   2.655   2.704   2.721   2.755   2.798   2.824
  2.864   2.890   2.909   2.938   2.989   3.017   3.045   3.060
  3.093   3.097   3.115   3.157   3.171   3.178   3.226   3.240
  3.274   3.289   3.317   3.347   3.379   3.404   3.417   3.419
  3.434   3.480   3.528   3.560   3.570   3.591   3.604   3.615
  3.624   3.679   3.705   3.745   3.768   3.781   3.872   3.885
  3.981   4.110   4.194   4.233   4.273   4.275   4.374   4.523
  4.544   4.741   4.754   4.857   4.914   4.951   4.969   5.021
  5.038   5.095   5.179   5.214   5.240   5.310   5.345   5.355
  5.364   5.375   5.382   5.496   5.532   5.623   5.634   5.711
  5.736   5.787   5.998   6.034   6.039   6.248   6.276   6.350
  6.364   6.555   6.597   6.613   6.622   6.635   6.646   6.665
  6.699   6.708   6.739   6.750   6.963   6.986   7.002   7.048
  7.074   7.201   7.263   7.341   7.410   7.425   7.501   8.159
 22.543  23.016  23.709  43.865  44.328  44.347  44.408
 --------------------------------------------------------------
 
          Ground-State Mulliken Net Atomic Charges

     Atom                 Charge (a.u.)
  ----------------------------------------
      1 C                    -0.739364
      2 C                    -0.028229
      3 H                     0.261673
      4 H                     0.230614
      5 H                     0.333985
      6 C                     0.337804
      7 O                    -0.686833
      8 O                    -0.717047
      9 O                    -0.874060
     10 O                    -0.399217
     11 H                     0.280674
  ----------------------------------------
  Sum of atomic charges =    -2.000000

 -----------------------------------------------------------------
                    Cartesian Multipole Moments
 -----------------------------------------------------------------
    Charge (ESU x 10^10)
                -9.6064
    Dipole Moment (Debye)
         X      -5.5506      Y      13.3499      Z       5.1300
       Tot      15.3410
    Quadrupole Moments (Debye-Ang)
        XX     -98.9924     XY       9.2483     YY     -63.0345
        XZ      17.1222     YZ      -6.5671     ZZ     -59.1560
    Octopole Moments (Debye-Ang^2)
       XXX     -20.4372    XXY      85.6006    XYY     -15.3331
       YYY      92.2361    XXZ      41.8586    XYZ     -20.3844
       YYZ      13.8746    XZZ     -24.4286    YZZ      33.5618
       ZZZ      39.5375
    Hexadecapole Moments (Debye-Ang^3)
      XXXX   -1267.8295   XXXY     131.6212   XXYY    -310.8988
      XYYY     112.5389   YYYY    -491.1055   XXXZ     190.8928
      XXYZ     -54.2002   XYYZ      65.1789   YYYZ     -46.2745
      XXZZ    -242.9138   XYZZ      60.6000   YYZZ    -134.6476
      XZZZ     136.9561   YZZZ     -51.7497   ZZZZ    -209.6585
 -----------------------------------------------------------------
 Calculating analytic gradient of the SCF energy
 Gradient of SCF Energy
            1           2           3           4           5           6
    1   0.0071445   0.0342389  -0.0104853  -0.0644029   0.0323423  -0.0102450
    2  -0.0107889   0.0662798  -0.0681283   0.0470963  -0.0288273  -0.0741821
    3  -0.0252283  -0.0075946   0.0185651  -0.0026657   0.0211941   0.0243614
            7           8           9          10          11
    1   0.0615538  -0.0524500   0.0025991  -0.0798020   0.0795066
    2   0.0282706   0.0396689   0.0110847  -0.0042461  -0.0062277
    3   0.0016029  -0.0290306  -0.0700701   0.0970885  -0.0282226
 Max gradient component =       9.709E-02
 RMS gradient           =       4.410E-02
 Computing fast CPCM-ISWIG gradient
 Updating gradient with PCM contributions...
 -- total gradient after adding PCM contribution --
---------------------------------------------------
  Atom         X              Y              Z     
---------------------------------------------------
   1       0.000205       0.001253      -0.000202
   2      -0.000341      -0.000369      -0.000026
   3      -0.000061      -0.000614       0.000112
   4       0.000217      -0.000259       0.000100
   5       0.000039       0.000017      -0.000023
   6      -0.000021      -0.000017       0.000013
   7      -0.000030      -0.000013      -0.000024
   8      -0.000012       0.000013       0.000002
   9       0.000011      -0.000010      -0.000006
  10      -0.000027      -0.000025       0.000043
  11       0.000020       0.000023       0.000011
---------------------------------------------------
 Number of fixed atoms: 0
 Gradient time:  CPU 229.05 s  wall 16.87 s
 ----------------------------------------------------------------
             Standard Nuclear Orientation (Angstroms)
    I     Atom           X                Y                Z
 ----------------------------------------------------------------
    1      C       0.0836230209     1.4994657437     0.0575421988
    2      C      -1.1147476545     0.9441606664    -0.0790163163
    3      H       0.2487028070     2.5516913576    -0.1617505245
    4      H       0.9343655921     0.9130563018     0.3918181084
    5      H      -1.9649929849     1.5341152035    -0.4147565670
    6      C      -1.4121183484    -0.5121107931     0.2185803605
    7      O      -2.6111805190    -0.8643999689     0.0886924615
    8      O      -0.4616603313    -1.2601080022     0.5755824702
    9      O       2.2896766554    -1.2551077570    -1.5618624577
   10      O       2.2761974167    -1.4591127109    -0.1046137589
   11      H       1.3353159340    -1.3295321853     0.1153148887
 ----------------------------------------------------------------
 Nuclear Repulsion Energy =   268.5494782570 hartrees
 There are       28 alpha and       28 beta electrons
 Discretize the solute cavity surface with Lebedev spheres
	Using 110 Lebedev grid points for each H atom
	Using 110 Lebedev grid points for other atoms
	Atomic van der Waals radii will be scaled by 1.20
 Remove points where switching function is < 1.0e-08
 Keep 753 surface tesserae and discard 457 interior tesserae
 Molecular Surface Area = 155.635 Angst**2

                       Distance Matrix (Angstroms)
             C (  1)   C (  2)   H (  3)   H (  4)   H (  5)   C (  6)
   C (  2)  1.327819
   H (  3)  1.087437  2.109502
   H (  4)  1.085992  2.102741  1.860563
   H (  5)  2.102640  1.087973  2.449474  3.072874
   C (  6)  2.511895  1.515823  3.505690  2.750836  2.212200
   O (  7)  3.584801  2.353365  4.462212  3.977705  2.534540  1.256475
   O (  8)  2.860235  2.390360  3.946909  2.589460  3.323923  1.261079
   O (  9)  3.882888  4.315752  4.540662  3.217867  5.215154  4.174363
   O ( 10)  3.686036  4.156307  4.494502  2.770224  5.200317  3.821641
   H ( 11)  3.094075  3.348172  4.039974  2.294868  4.401533  2.868316
             O (  7)   O (  8)   O (  9)   O ( 10)
   O (  8)  2.239215
   O (  9)  5.186076  3.484042
   O ( 10)  4.927222  2.828097  1.471521
   H ( 11)  3.973901  1.856284  1.931131  0.974894
 
 Requested basis set is def2-TZVPD
 There are 115 shells and 307 basis functions
 A cutoff of  1.0D-14 yielded   6189 shell pairs
 There are     44605 function pairs (     57553 Cartesian)
 Smallest overlap matrix eigenvalue = 5.39E-06
 Guess MOs from SCF MO coefficient file
 Reading MOs from coefficient file
 Reading MOs from coefficient file
 Long-range K will be added via erf
 Coulomb attenuation parameter = 0.3 bohr**(-1)
 A restricted hybrid HF-DFT SCF calculation will be
 performed using Pulay DIIS extrapolation
 Polarizable Continuum solvation model will be applied
 Exchange:     0.1670 Hartree-Fock + 1.0000 wB97X-V + LR-HF
 Correlation:  1.0000 wB97X-V
 Using SG-2 standard quadrature grid
 Nonlocal Correlation:  VV10 with C = 0.0100 and b = 6.00
 Grid used for NLC:  SG-1 standard quadrature
 SCF converges when DIIS error is below 1.0E-08
Using Q-Chem read-in guess as SCF_GUESS READ specified.

 using 16 threads for integral computing
 -------------------------------------------------------
 OpenMP Integral computing Module                
 Release: version 1.0, May 2013, Q-Chem Inc. Pittsburgh 
 -------------------------------------------------------
 using 16 threads for integral computing
 -------------------------------------------------------
 OpenMP Integral computing Module                
 Release: version 1.0, May 2013, Q-Chem Inc. Pittsburgh 
 -------------------------------------------------------
 -------------------------------------------------------
 OpenMP BLAS3 based DFT computing Module                
 Release: version 1.0, May 2013, Q-Chem Inc. Pittsburgh 
 -------------------------------------------------------
 -------------------------------------------------------
 OpenMP BLAS3 based DFT computing Module                
 Release: version 1.0, May 2013, Q-Chem Inc. Pittsburgh 
 -------------------------------------------------------
 -------------------------------------------------------
 OpenMP BLAS3 based DFT computing Module                
 Release: version 1.0, May 2013, Q-Chem Inc. Pittsburgh 
 -------------------------------------------------------
 ---------------------------------------
  Cycle       Energy         DIIS Error
 ---------------------------------------
    1    -417.4636000807      6.17E-04
    2    -417.8030917254      6.96E-04
    3    -417.8112703339      3.19E-04
    4    -417.8126172590      2.29E-04
    5    -417.8134382193      1.73E-04
    6    -417.8139002312      1.34E-04
    7    -417.8142873324      8.95E-05
    8    -417.8144874000      5.37E-05
    9    -417.8145711133      2.74E-05
   10    -417.8145971963      9.15E-06
   11    -417.8146003369      1.64E-06
   12    -417.8146004280      4.66E-07
   13    -417.8146004366      5.80E-08
   14    -417.8146004367      1.84E-08
   15    -417.8146004367      4.09E-09 Convergence criterion met
 ---------------------------------------

************** Final PCM Free Energy Summary **************
 G_electrostatic  =      -0.35048353 hartree =    -219.93173372 kcal/mol
 G_cavitation     =       0.00000000 hartree =       0.00000000 kcal/mol
 G_dispersion     =       0.00000000 hartree =       0.00000000 kcal/mol
 G_repulsion      =       0.00000000 hartree =       0.00000000 kcal/mol
 --------------------------------------------------
 Non-electrostatic Free Energy =       0.00000000 hartree =       0.00000000 kcal/mol
 Total                         =      -0.35048353 hartree =    -219.93173372 kcal/mol
 --------------------------------------------------
 SCF Energy (H0 + V/2)                       =    -417.81460044 
 Solute Internal Energy (H0)                 =    -417.46411691 
 Total Free Energy (H0 + V/2 + non-elec)     =    -417.81460044 hartree
                                             = -262182.61889612 kcal/mol
***********************************************************

 SCF time:  CPU 1006.78 s  wall 71.65 s
 SCF   energy in the final basis set = -417.81460044
 Total energy in the final basis set = -417.81460044
 
 --------------------------------------------------------------
 
                    Orbital Energies (a.u.)
 --------------------------------------------------------------
 
 Alpha MOs
 -- Occupied --
-19.184 -19.148 -19.147 -19.129 -10.350 -10.261 -10.260  -1.152
 -1.119  -1.058  -0.894  -0.867  -0.722  -0.615  -0.576  -0.553
 -0.524  -0.512  -0.499  -0.466  -0.445  -0.425  -0.367  -0.355
 -0.350  -0.341  -0.292  -0.265
 -- Virtual --
  0.062   0.066   0.083   0.085   0.092   0.112   0.116   0.119
  0.133   0.153   0.154   0.164   0.169   0.173   0.189   0.200
  0.205   0.212   0.225   0.225   0.237   0.247   0.253   0.262
  0.281   0.290   0.293   0.297   0.307   0.323   0.343   0.354
  0.359   0.362   0.368   0.381   0.387   0.390   0.402   0.404
  0.416   0.428   0.440   0.446   0.456   0.465   0.473   0.476
  0.490   0.501   0.506   0.510   0.518   0.533   0.549   0.555
  0.563   0.568   0.571   0.582   0.591   0.595   0.604   0.606
  0.618   0.622   0.631   0.634   0.652   0.671   0.679   0.681
  0.697   0.707   0.713   0.727   0.736   0.749   0.766   0.778
  0.787   0.795   0.805   0.813   0.818   0.837   0.849   0.872
  0.880   0.882   0.907   0.923   0.935   0.957   0.967   0.980
  0.991   1.003   1.014   1.033   1.043   1.063   1.084   1.104
  1.114   1.123   1.159   1.167   1.215   1.240   1.297   1.303
  1.325   1.337   1.356   1.371   1.429   1.447   1.456   1.484
  1.508   1.556   1.666   1.679   1.686   1.703   1.738   1.795
  1.849   1.880   1.890   1.908   1.924   1.940   1.948   1.951
  1.982   1.991   2.006   2.036   2.048   2.077   2.098   2.106
  2.122   2.161   2.171   2.243   2.248   2.267   2.279   2.336
  2.371   2.406   2.425   2.444   2.462   2.518   2.554   2.570
  2.600   2.626   2.655   2.704   2.721   2.755   2.798   2.824
  2.864   2.890   2.909   2.938   2.989   3.017   3.045   3.060
  3.093   3.097   3.115   3.157   3.170   3.178   3.226   3.239
  3.274   3.289   3.317   3.347   3.379   3.404   3.417   3.419
  3.434   3.480   3.528   3.560   3.570   3.591   3.604   3.616
  3.624   3.680   3.705   3.745   3.768   3.781   3.872   3.885
  3.982   4.110   4.194   4.234   4.273   4.275   4.375   4.524
  4.545   4.741   4.753   4.857   4.914   4.951   4.970   5.021
  5.038   5.095   5.179   5.214   5.240   5.310   5.345   5.355
  5.364   5.375   5.382   5.496   5.532   5.623   5.634   5.711
  5.736   5.787   5.998   6.034   6.039   6.248   6.276   6.350
  6.364   6.555   6.597   6.613   6.622   6.635   6.646   6.665
  6.699   6.708   6.740   6.750   6.963   6.986   7.002   7.048
  7.075   7.201   7.263   7.342   7.411   7.425   7.501   8.159
 22.542  23.018  23.709  43.865  44.328  44.347  44.408
 --------------------------------------------------------------
 
          Ground-State Mulliken Net Atomic Charges

     Atom                 Charge (a.u.)
  ----------------------------------------
      1 C                    -0.739241
      2 C                    -0.028156
      3 H                     0.260192
      4 H                     0.231871
      5 H                     0.334010
      6 C                     0.337942
      7 O                    -0.686954
      8 O                    -0.717093
      9 O                    -0.874061
     10 O                    -0.399232
     11 H                     0.280724
  ----------------------------------------
  Sum of atomic charges =    -2.000000

 -----------------------------------------------------------------
                    Cartesian Multipole Moments
 -----------------------------------------------------------------
    Charge (ESU x 10^10)
                -9.6064
    Dipole Moment (Debye)
         X      -5.5498      Y      13.3502      Z       5.1309
       Tot      15.3413
    Quadrupole Moments (Debye-Ang)
        XX     -98.9904     XY       9.2432     YY     -63.0447
        XZ      17.1242     YZ      -6.5641     ZZ     -59.1537
    Octopole Moments (Debye-Ang^2)
       XXX     -20.4319    XXY      85.6255    XYY     -15.3402
       YYY      92.2382    XXZ      41.8592    XYZ     -20.3827
       YYZ      13.8806    XZZ     -24.4292    YZZ      33.5756
       ZZZ      39.5411
    Hexadecapole Moments (Debye-Ang^3)
      XXXX   -1267.8404   XXXY     131.5938   XXYY    -310.8723
      XYYY     112.5066   YYYY    -491.0645   XXXZ     190.9032
      XXYZ     -54.1967   XYYZ      65.1843   YYYZ     -46.2542
      XXZZ    -242.9113   XYZZ      60.5959   YYZZ    -134.6220
      XZZZ     136.9611   YZZZ     -51.7397   ZZZZ    -209.6507
 -----------------------------------------------------------------
 Calculating analytic gradient of the SCF energy
 Gradient of SCF Energy
            1           2           3           4           5           6
    1   0.0066147   0.0351505  -0.0102900  -0.0650509   0.0323631  -0.0102206
    2  -0.0129043   0.0668844  -0.0669208   0.0474282  -0.0288254  -0.0741999
    3  -0.0245525  -0.0077278   0.0182504  -0.0028552   0.0211832   0.0243452
            7           8           9          10          11
    1   0.0615623  -0.0524408   0.0025999  -0.0797993   0.0795110
    2   0.0282897   0.0396538   0.0110870  -0.0042521  -0.0062405
    3   0.0016016  -0.0290296  -0.0700660   0.0970859  -0.0282352
 Max gradient component =       9.709E-02
 RMS gradient           =       4.414E-02
 Computing fast CPCM-ISWIG gradient
 Updating gradient with PCM contributions...
 -- total gradient after adding PCM contribution --
---------------------------------------------------
  Atom         X              Y              Z     
---------------------------------------------------
   1      -0.000220      -0.001252       0.000197
   2       0.000327       0.000359      -0.000002
   3       0.000074       0.000609      -0.000120
   4      -0.000225       0.000272      -0.000091
   5      -0.000025      -0.000024      -0.000034
   6       0.000073      -0.000006       0.000028
   7      -0.000001       0.000021      -0.000028
   8      -0.000005       0.000026       0.000000
   9       0.000008      -0.000006      -0.000005
  10      -0.000029      -0.000023       0.000044
  11       0.000022       0.000022       0.000011
---------------------------------------------------
 Number of fixed atoms: 0
 Gradient time:  CPU 230.14 s  wall 16.89 s
 ----------------------------------------------------------------
             Standard Nuclear Orientation (Angstroms)
    I     Atom           X                Y                Z
 ----------------------------------------------------------------
    1      C       0.0836230209     1.5004657437     0.0585421988
    2      C      -1.1147476545     0.9441606664    -0.0790163163
    3      H       0.2487028070     2.5516913576    -0.1617505245
    4      H       0.9343655921     0.9130563018     0.3918181084
    5      H      -1.9649929849     1.5341152035    -0.4147565670
    6      C      -1.4121183484    -0.5121107931     0.2185803605
    7      O      -2.6111805190    -0.8643999689     0.0886924615
    8      O      -0.4616603313    -1.2601080022     0.5755824702
    9      O       2.2896766554    -1.2551077570    -1.5618624577
   10      O       2.2761974167    -1.4591127109    -0.1046137589
   11      H       1.3353159340    -1.3295321853     0.1153148887
 ----------------------------------------------------------------
 Nuclear Repulsion Energy =   268.5354011984 hartrees
 There are       28 alpha and       28 beta electrons
 Discretize the solute cavity surface with Lebedev spheres
	Using 110 Lebedev grid points for each H atom
	Using 110 Lebedev grid points for other atoms
	Atomic van der Waals radii will be scaled by 1.20
 Remove points where switching function is < 1.0e-08
 Keep 753 surface tesserae and discard 457 interior tesserae
 Molecular Surface Area = 155.646 Angst**2

                       Distance Matrix (Angstroms)
             C (  1)   C (  2)   H (  3)   H (  4)   H (  5)   C (  6)
   C (  2)  1.328341
   H (  3)  1.086672  2.109502
   H (  4)  1.086225  2.102741  1.860563
   H (  5)  2.102848  1.087973  2.449474  3.072874
   C (  6)  2.512632  1.515823  3.505690  2.750836  2.212200
   O (  7)  3.585452  2.353365  4.462212  3.977705  2.534540  1.256475
   O (  8)  2.861019  2.390360  3.946909  2.589460  3.323923  1.261079
   O (  9)  3.884015  4.315752  4.540662  3.217867  5.215154  4.174363
   O ( 10)  3.686883  4.156307  4.494502  2.770224  5.200317  3.821641
   H ( 11)  3.094971  3.348172  4.039974  2.294868  4.401533  2.868316
             O (  7)   O (  8)   O (  9)   O ( 10)
   O (  8)  2.239215
   O (  9)  5.186076  3.484042
   O ( 10)  4.927222  2.828097  1.471521
   H ( 11)  3.973901  1.856284  1.931131  0.974894
 
 Requested basis set is def2-TZVPD
 There are 115 shells and 307 basis functions
 A cutoff of  1.0D-14 yielded   6189 shell pairs
 There are     44605 function pairs (     57553 Cartesian)
 Smallest overlap matrix eigenvalue = 5.41E-06
 Guess MOs from SCF MO coefficient file
 Reading MOs from coefficient file
 Reading MOs from coefficient file
 Long-range K will be added via erf
 Coulomb attenuation parameter = 0.3 bohr**(-1)
 A restricted hybrid HF-DFT SCF calculation will be
 performed using Pulay DIIS extrapolation
 Polarizable Continuum solvation model will be applied
 Exchange:     0.1670 Hartree-Fock + 1.0000 wB97X-V + LR-HF
 Correlation:  1.0000 wB97X-V
 Using SG-2 standard quadrature grid
 Nonlocal Correlation:  VV10 with C = 0.0100 and b = 6.00
 Grid used for NLC:  SG-1 standard quadrature
 SCF converges when DIIS error is below 1.0E-08
Using Q-Chem read-in guess as SCF_GUESS READ specified.

 using 16 threads for integral computing
 -------------------------------------------------------
 OpenMP Integral computing Module                
 Release: version 1.0, May 2013, Q-Chem Inc. Pittsburgh 
 -------------------------------------------------------
 using 16 threads for integral computing
 -------------------------------------------------------
 OpenMP Integral computing Module                
 Release: version 1.0, May 2013, Q-Chem Inc. Pittsburgh 
 -------------------------------------------------------
 -------------------------------------------------------
 OpenMP BLAS3 based DFT computing Module                
 Release: version 1.0, May 2013, Q-Chem Inc. Pittsburgh 
 -------------------------------------------------------
 -------------------------------------------------------
 OpenMP BLAS3 based DFT computing Module                
 Release: version 1.0, May 2013, Q-Chem Inc. Pittsburgh 
 -------------------------------------------------------
 -------------------------------------------------------
 OpenMP BLAS3 based DFT computing Module                
 Release: version 1.0, May 2013, Q-Chem Inc. Pittsburgh 
 -------------------------------------------------------
 ---------------------------------------
  Cycle       Energy         DIIS Error
 ---------------------------------------
    1    -417.4644041398      6.13E-04
    2    -417.8031510158      6.93E-04
    3    -417.8112764691      3.18E-04
    4    -417.8126145673      2.29E-04
    5    -417.8134177948      1.74E-04
    6    -417.8138625817      1.38E-04
    7    -417.8142337382      9.69E-05
    8    -417.8144316861      6.58E-05
    9    -417.8145343179      4.15E-05
   10    -417.8145867470      1.94E-05
   11    -417.8146003994      4.88E-06
   12    -417.8146012187      1.57E-06
   13    -417.8146013087      3.04E-07
   14    -417.8146013121      4.38E-08
   15    -417.8146013121      2.34E-08
   16    -417.8146013121      4.19E-09 Convergence criterion met
 ---------------------------------------

************** Final PCM Free Energy Summary **************
 G_electrostatic  =      -0.35047971 hartree =    -219.92933737 kcal/mol
 G_cavitation     =       0.00000000 hartree =       0.00000000 kcal/mol
 G_dispersion     =       0.00000000 hartree =       0.00000000 kcal/mol
 G_repulsion      =       0.00000000 hartree =       0.00000000 kcal/mol
 --------------------------------------------------
 Non-electrostatic Free Energy =       0.00000000 hartree =       0.00000000 kcal/mol
 Total                         =      -0.35047971 hartree =    -219.92933737 kcal/mol
 --------------------------------------------------
 SCF Energy (H0 + V/2)                       =    -417.81460131 
 Solute Internal Energy (H0)                 =    -417.46412160 
 Total Free Energy (H0 + V/2 + non-elec)     =    -417.81460131 hartree
                                             = -262182.61944546 kcal/mol
***********************************************************

 SCF time:  CPU 1077.57 s  wall 76.65 s
 SCF   energy in the final basis set = -417.81460131
 Total energy in the final basis set = -417.81460131
 
 --------------------------------------------------------------
 
                    Orbital Energies (a.u.)
 --------------------------------------------------------------
 
 Alpha MOs
 -- Occupied --
-19.184 -19.148 -19.147 -19.129 -10.350 -10.261 -10.260  -1.152
 -1.119  -1.058  -0.894  -0.867  -0.722  -0.615  -0.576  -0.553
 -0.524  -0.512  -0.499  -0.466  -0.445  -0.425  -0.367  -0.355
 -0.350  -0.341  -0.292  -0.265
 -- Virtual --
  0.062   0.066   0.083   0.085   0.092   0.112   0.116   0.119
  0.133   0.153   0.154   0.164   0.169   0.173   0.189   0.200
  0.205   0.212   0.225   0.225   0.237   0.247   0.253   0.262
  0.281   0.290   0.293   0.297   0.307   0.323   0.343   0.354
  0.359   0.362   0.368   0.381   0.387   0.390   0.402   0.404
  0.416   0.428   0.440   0.446   0.456   0.465   0.473   0.476
  0.490   0.501   0.506   0.510   0.518   0.533   0.549   0.555
  0.563   0.568   0.571   0.582   0.591   0.595   0.604   0.606
  0.618   0.622   0.631   0.634   0.652   0.671   0.679   0.681
  0.697   0.707   0.713   0.727   0.736   0.749   0.766   0.778
  0.787   0.795   0.805   0.813   0.818   0.837   0.849   0.872
  0.880   0.882   0.907   0.923   0.935   0.957   0.967   0.980
  0.991   1.003   1.014   1.033   1.043   1.063   1.084   1.104
  1.114   1.123   1.159   1.167   1.215   1.240   1.297   1.303
  1.325   1.337   1.356   1.371   1.429   1.447   1.456   1.484
  1.508   1.556   1.666   1.679   1.686   1.703   1.738   1.795
  1.849   1.880   1.890   1.908   1.924   1.940   1.948   1.951
  1.982   1.991   2.006   2.036   2.047   2.077   2.098   2.106
  2.122   2.162   2.171   2.243   2.248   2.267   2.279   2.336
  2.371   2.406   2.425   2.444   2.462   2.518   2.554   2.570
  2.600   2.626   2.655   2.704   2.721   2.755   2.798   2.824
  2.864   2.890   2.909   2.938   2.989   3.017   3.045   3.060
[...]
    11    9.568808417154237e-02  -9.889618357328482e-03  -5.283231936745157e-02


    11 Order 1, Length 33
    Atom      X          Y          Z
     1    9.114086731574946e-05  -5.017941280358248e-04   2.587035059127163e-04
     2   -1.386373129891363e-04  -6.737261756702361e-04  -1.112728206940018e-05
     3   -1.202524469114915e-04  -1.679236157431142e-04  -4.953036381226231e-05
     4    4.592214870973597e-04   1.993541660704720e-05   1.484781603788678e-05
     5   -3.374345066205742e-05  -6.553913436406168e-04   1.614895516059729e-04
     6   -1.380519436755951e-02   1.119600923140185e-02  -7.732394531719778e-03
     7    9.712667960686469e-03  -3.595550196808424e-04   3.111693953331918e-03
     8    9.832680455535574e-03  -1.099999483027365e-02   6.166403066262740e-04
     9    8.172892419326555e-03  -1.465322009166843e-04  -8.771525645491310e-03
    10   -4.492021812782181e-01   6.149382755310422e-02   9.568808417154237e-02
    11    4.349626114381721e-01  -5.923213415641944e-02  -8.325087381565081e-02

Order 1, Length 33
    Atom      X          Y          Z
     1    7.721262154998289e-04   2.522003487456825e-04   7.069793516459692e-04
     2   -2.383252363032908e-04   1.289327061179058e-05   1.429661659294892e-04
     3   -3.897124549215610e-04   2.569941329448363e-04  -1.317977265030901e-04
     4   -1.496121896879070e-04  -1.885446871844450e-03  -4.185252585982872e-04
     5   -1.082737702845268e-04   6.017459198135225e-05  -1.051506292945733e-04
     6    2.848947306722352e-03  -1.545041491928787e-03   3.592648990300111e-04
     7   -1.349345059448297e-03   7.752647103762087e-05  -3.560248996227884e-04
     8   -3.126550067927325e-03  -2.692695212214833e-03   6.996945221651505e-04
     9   -6.356014927125390e-03   3.730923025618725e-04   5.056885568909984e-03
    10    6.733775289918925e-02  -1.956227380829955e-02  -9.889618357328482e-03
    11   -5.923213415641944e-02   2.465615062243529e-02   3.930568383452133e-03

Order 1, Length 33
    Atom      X          Y          Z
     1    9.280867202123709e-05   1.060053161119107e-04  -1.982626511864128e-04
     2   -1.521398990610698e-04   2.087711755362216e-04  -9.198826536680946e-05
     3    9.123366153119474e-08   4.235627088170673e-05  -1.929171846166627e-05
     4   -3.172857141399385e-05  -1.912942896276813e-04   1.260240976654070e-04
     5    2.080377365928111e-06   1.565140067978932e-04  -3.255321592404656e-05
     6    1.089413536522560e-03  -2.814806094805532e-03   7.067026793135503e-04
     7   -2.089032647982347e-03   5.485314081625336e-04  -2.260687648218398e-04
     8   -1.397921699106422e-03   2.616144675638523e-03  -4.220019234316754e-03
     9    3.344796905253994e-02  -2.117043623229446e-03  -2.628948144205858e-02
    10    5.230350742285041e-02  -2.481610928127992e-03  -5.283231936745157e-02
    11   -8.325087381565081e-02   3.930568383452133e-03   8.305729630348679e-02




 # Finishing finite difference calculation for IDERIV #
 ######################################################
 ######################################################
 Requested basis set is def2-TZVPD
 There are 115 shells and 307 basis functions
 **********************************************************************
 **                                                                  **
 **                       VIBRATIONAL ANALYSIS                       **
 **                       --------------------                       **
 **                                                                  **
 **        VIBRATIONAL FREQUENCIES (CM**-1) AND NORMAL MODES         **
 **     FORCE CONSTANTS (mDYN/ANGSTROM) AND REDUCED MASSES (AMU)     **
 **                  INFRARED INTENSITIES (KM/MOL)                   **
 **                                                                  **
 **********************************************************************
 

 Mode:                 1                      2                      3
 Frequency:        33.48                  71.27                 101.69
 Force Cnst:      0.0050                 0.0112                 0.0222
 Red. Mass:       7.5775                 3.7424                 3.6480
 IR Active:          YES                    YES                    YES
 IR Intens:        4.211                 16.226                 11.674
 Raman Active:       YES                    YES                    YES
               X      Y      Z        X      Y      Z        X      Y      Z
 C          0.008  0.064  0.167   -0.106  0.122 -0.072   -0.177  0.164  0.200
 C          0.086 -0.034 -0.118   -0.142  0.121  0.248   -0.066  0.016 -0.161
 H          0.008  0.044  0.071   -0.202  0.162  0.050   -0.214  0.163  0.170
 H         -0.056  0.161  0.501    0.020  0.080 -0.466   -0.230  0.283  0.549
 H          0.148 -0.138 -0.457   -0.268  0.153  0.623   -0.026 -0.109 -0.482
 C          0.098 -0.012  0.000    0.014  0.041  0.017    0.000  0.028 -0.035
 O          0.161 -0.116 -0.302    0.072 -0.096 -0.145   -0.004 -0.014  0.118
 O          0.046  0.106  0.389    0.080  0.110 -0.015    0.057  0.087 -0.067
 O         -0.285  0.008 -0.068    0.006 -0.129 -0.001    0.112 -0.084 -0.027
 O         -0.070 -0.017 -0.069    0.042 -0.120  0.001    0.043 -0.164 -0.038
 H         -0.028  0.022  0.083    0.059 -0.047  0.027    0.056 -0.040 -0.059
 TransDip   0.060  0.008  0.026   -0.060  0.091  0.069   -0.088  0.064 -0.009

 Mode:                 4                      5                      6
 Frequency:       116.60                 131.45                 189.10
 Force Cnst:      0.0875                 0.1165                 0.1460
 Red. Mass:      10.9208                11.4420                 6.9277
 IR Active:          YES                    YES                    YES
 IR Intens:       10.919                  3.185                 35.458
 Raman Active:       YES                    YES                    YES
               X      Y      Z        X      Y      Z        X      Y      Z
 C         -0.001  0.081  0.206    0.013  0.075 -0.164   -0.021 -0.056  0.003
 C          0.054  0.008  0.018    0.043 -0.005 -0.097   -0.045  0.005 -0.024
 H         -0.062  0.119  0.342   -0.071  0.089 -0.156    0.050 -0.069 -0.007
 H          0.010  0.112  0.229    0.074  0.121 -0.233   -0.067 -0.104  0.037
 H          0.045 -0.011  0.008   -0.019 -0.054 -0.025   -0.008  0.040 -0.059
 C          0.099 -0.029 -0.120    0.139 -0.019 -0.073   -0.102  0.020 -0.004
 O          0.079 -0.008  0.028    0.128 -0.052  0.135   -0.123  0.075 -0.037
 O          0.142 -0.084 -0.348    0.207 -0.010 -0.239   -0.129  0.004  0.028
 O         -0.376 -0.366  0.042   -0.371  0.395  0.231   -0.201  0.046  0.005
 O          0.039  0.385  0.149   -0.106 -0.366  0.130    0.542 -0.082  0.000
 H          0.035  0.226  0.251   -0.050 -0.244  0.328    0.628 -0.176  0.381
 TransDip   0.037  0.076  0.064    0.023 -0.048 -0.020    0.179 -0.061  0.027

 Mode:                 7                      8                      9
 Frequency:       294.89                 514.98                 534.44
 Force Cnst:      0.1917                 0.2698                 0.6448
 Red. Mass:       3.7421                 1.7270                 3.8316
 IR Active:          YES                    YES                    YES
 IR Intens:        0.804                  5.889                 14.554
 Raman Active:       YES                    YES                    YES
               X      Y      Z        X      Y      Z        X      Y      Z
 C          0.065 -0.280  0.069   -0.057 -0.042  0.028   -0.173 -0.162 -0.019
 C         -0.083  0.065 -0.039   -0.030 -0.038 -0.107   -0.183 -0.049  0.055
 H          0.445 -0.323  0.154   -0.134  0.103  0.670    0.127 -0.289 -0.384
 H         -0.175 -0.605  0.097    0.004 -0.223 -0.445   -0.390 -0.291  0.306
 H          0.034  0.224 -0.052   -0.173  0.046  0.410   -0.212 -0.286 -0.259
 C         -0.068  0.078 -0.036    0.067 -0.029 -0.133    0.120  0.035  0.117
 O         -0.012 -0.136  0.036    0.019  0.089  0.040    0.098  0.250 -0.081
 O          0.083  0.264 -0.056    0.017 -0.001  0.081    0.119 -0.063 -0.015
 O         -0.010  0.004  0.006    0.002 -0.000 -0.000    0.000 -0.000  0.001
 O         -0.016  0.011  0.006   -0.001  0.006  0.000   -0.009  0.005  0.001
 H         -0.013  0.042 -0.002   -0.022 -0.121 -0.014   -0.025 -0.077 -0.014
 TransDip  -0.012 -0.026  0.001   -0.039 -0.066 -0.013   -0.101 -0.069  0.007

 Mode:                10                     11                     12
 Frequency:       626.66                 664.61                 865.05
 Force Cnst:      0.3136                 0.5522                 1.8789
 Red. Mass:       1.3556                 2.1220                 4.2616
 IR Active:          YES                    YES                    YES
 IR Intens:       54.726                122.139                 48.259
 Raman Active:       YES                    YES                    YES
               X      Y      Z        X      Y      Z        X      Y      Z
 C         -0.005 -0.034  0.003   -0.005  0.022 -0.011   -0.000 -0.007 -0.010
 C          0.030 -0.105  0.025   -0.070  0.173 -0.060    0.048 -0.058 -0.211
 H         -0.190 -0.002  0.015    0.358 -0.011  0.113   -0.173  0.175  0.732
 H          0.117  0.132 -0.028   -0.212 -0.265  0.015    0.061 -0.069 -0.276
 H          0.030 -0.078  0.076   -0.101  0.146 -0.026   -0.047  0.021  0.169
 C         -0.019 -0.034 -0.006    0.051  0.047 -0.004   -0.080  0.117  0.441
 O         -0.050  0.048 -0.018    0.098 -0.057  0.032    0.023 -0.028 -0.102
 O          0.047  0.056 -0.005   -0.093 -0.135  0.018    0.011 -0.019 -0.102
 O          0.000  0.001  0.001    0.002  0.000 -0.002   -0.000  0.000  0.001
 O         -0.009 -0.036 -0.006   -0.001 -0.030 -0.006   -0.001  0.001 -0.000
 H          0.155  0.922  0.134    0.136  0.769  0.126   -0.002 -0.016 -0.004
 TransDip   0.023  0.224  0.073    0.036  0.352 -0.001   -0.037  0.057  0.212

 Mode:                13                     14                     15
 Frequency:       891.68                 929.34                1011.59
 Force Cnst:      1.9870                 7.8463                 0.7950
 Red. Mass:       4.2417                15.4195                 1.3186
 IR Active:          YES                    YES                    YES
 IR Intens:       49.947                 11.200                 71.944
 Raman Active:       YES                    YES                    YES
               X      Y      Z        X      Y      Z        X      Y      Z
 C          0.049  0.151 -0.028   -0.004 -0.009  0.003    0.034 -0.034 -0.153
 C         -0.013  0.148 -0.046    0.001 -0.008  0.002   -0.007  0.006  0.044
 H          0.704  0.091  0.164   -0.049 -0.008 -0.022   -0.109  0.130  0.526
 H         -0.295 -0.345  0.014    0.022  0.022 -0.006   -0.180  0.177  0.761
 H         -0.101  0.052 -0.030    0.011  0.001 -0.006   -0.034  0.023  0.144
 C         -0.060 -0.260  0.063    0.005  0.018 -0.004    0.004 -0.003 -0.020
 O         -0.235  0.037 -0.054    0.015 -0.003  0.004    0.000  0.000  0.004
 O          0.241 -0.054  0.051   -0.019  0.003 -0.003   -0.003  0.003  0.003
 O         -0.001 -0.002  0.015   -0.012 -0.094  0.690   -0.001  0.000  0.001
 O         -0.008  0.003 -0.012    0.006  0.094 -0.683    0.001  0.001 -0.000
 H          0.000  0.014 -0.010    0.144 -0.015 -0.114   -0.005 -0.028 -0.009
 TransDip  -0.103 -0.196  0.047    0.023 -0.016  0.104   -0.057  0.062  0.258

 Mode:                16                     17                     18
 Frequency:      1044.67                1066.70                1297.09
 Force Cnst:      0.7339                 1.0424                 1.3396
 Red. Mass:       1.1414                 1.5549                 1.3514
 IR Active:          YES                    YES                    YES
 IR Intens:       20.380                 20.183                 20.406
 Raman Active:       YES                    YES                    YES
               X      Y      Z        X      Y      Z        X      Y      Z
 C         -0.009  0.013  0.039    0.009 -0.107  0.025   -0.098  0.051 -0.034
 C          0.024 -0.027 -0.095   -0.072  0.123 -0.050    0.063 -0.082  0.034
 H          0.114 -0.105 -0.437   -0.509 -0.048 -0.107    0.052  0.025  0.005
 H         -0.081  0.068  0.319    0.305  0.340  0.027   -0.356 -0.307 -0.013
 H         -0.182  0.169  0.773    0.274  0.627 -0.054    0.586  0.634 -0.021
 C         -0.001  0.003  0.007   -0.008 -0.024  0.010   -0.021 -0.042  0.007
 O          0.001 -0.002 -0.003   -0.020  0.012 -0.008    0.043  0.015  0.004
 O         -0.002  0.002 -0.002    0.070 -0.063  0.027   -0.018  0.017 -0.007
 O         -0.000 -0.000  0.000   -0.000  0.000  0.000   -0.000 -0.000 -0.000
 O          0.000  0.000  0.000   -0.001 -0.000  0.000   -0.000  0.000  0.000
 H         -0.002 -0.011 -0.005   -0.005 -0.012 -0.002    0.002  0.008 -0.005
 TransDip  -0.027  0.034  0.138   -0.130  0.061 -0.013   -0.092 -0.112  0.003

 Mode:                19                     20                     21
 Frequency:      1364.73                1392.20                1449.10
 Force Cnst:      1.1924                 2.3841                 2.5924
 Red. Mass:       1.0867                 2.0877                 2.0954
 IR Active:          YES                    YES                    YES
 IR Intens:       53.330                159.228                285.037
 Raman Active:       YES                    YES                    YES
               X      Y      Z        X      Y      Z        X      Y      Z
 C         -0.001  0.000 -0.001   -0.009  0.002 -0.002   -0.067  0.007 -0.016
 C          0.008  0.001  0.002    0.109  0.028  0.018   -0.048 -0.116  0.018
 H         -0.043  0.003 -0.010   -0.621  0.045 -0.150    0.715 -0.068  0.178
 H         -0.032 -0.037  0.008   -0.411 -0.535  0.033    0.262  0.453 -0.054
 H          0.005 -0.005  0.004   -0.002 -0.150  0.034    0.202  0.208 -0.006
 C          0.005  0.016 -0.004    0.039  0.200 -0.043    0.027  0.215 -0.048
 O         -0.012 -0.005 -0.001   -0.119 -0.055 -0.008   -0.083 -0.039 -0.005
 O          0.007 -0.005 -0.001    0.079 -0.078  0.034    0.075 -0.077  0.033
 O          0.034 -0.002 -0.025   -0.005  0.000  0.004   -0.001 -0.000  0.001
 O         -0.042  0.012 -0.032    0.006 -0.003  0.005    0.001  0.000  0.000
 H          0.146 -0.170  0.969   -0.023  0.051 -0.139   -0.013 -0.011 -0.015
 TransDip   0.027  0.004  0.232    0.068  0.387 -0.093    0.162  0.512 -0.066

 Mode:                22                     23                     24
 Frequency:      1593.22                1723.40                3152.12
 Force Cnst:     16.6943                 9.0610                 6.1981
 Red. Mass:      11.1626                 5.1779                 1.0588
 IR Active:          YES                    YES                    YES
 IR Intens:     1312.476                 41.302                 12.279
 Raman Active:       YES                    YES                    YES
               X      Y      Z        X      Y      Z        X      Y      Z
 C         -0.119 -0.069 -0.010   -0.358 -0.180 -0.038   -0.056 -0.031 -0.005
 C          0.050  0.076 -0.006    0.377  0.244  0.025   -0.013  0.016 -0.007
 H          0.086 -0.105  0.040    0.294 -0.302  0.143    0.100  0.684 -0.144
 H          0.057  0.184 -0.033    0.057  0.489 -0.106    0.500 -0.353  0.199
 H          0.195  0.213 -0.009   -0.033 -0.400  0.090    0.224 -0.156  0.089
 C          0.767 -0.132  0.172   -0.108 -0.041 -0.011   -0.001  0.000 -0.000
 O         -0.317 -0.085 -0.036    0.028 -0.001  0.006    0.000 -0.000  0.000
 O         -0.224  0.159 -0.081    0.019 -0.003  0.005    0.000 -0.000  0.000
 O         -0.000 -0.000  0.000    0.000  0.000 -0.000   -0.000  0.000 -0.000
 O         -0.006  0.001  0.003    0.001  0.001 -0.000    0.000 -0.000  0.000
 H          0.038 -0.005 -0.051   -0.007 -0.016  0.005   -0.001  0.002  0.001
 TransDip   1.128 -0.181  0.204   -0.199 -0.052 -0.010   -0.090 -0.064 -0.018

 Mode:                25                     26                     27
 Frequency:      3179.23                3243.80                3592.44
 Force Cnst:      6.5167                 6.9221                 8.1425
 Red. Mass:       1.0943                 1.1166                 1.0708
 IR Active:          YES                    YES                    YES
 IR Intens:       21.040                  5.851                802.563
 Raman Active:       YES                    YES                    YES
               X      Y      Z        X      Y      Z        X      Y      Z
 C          0.028  0.001  0.006    0.036 -0.087  0.029   -0.000  0.000 -0.000
 C         -0.069  0.041 -0.026    0.010 -0.006  0.004   -0.000 -0.000 -0.000
 H         -0.019 -0.118  0.025    0.107  0.667 -0.138   -0.000 -0.002  0.000
 H         -0.226  0.157 -0.089   -0.557  0.374 -0.217    0.003 -0.000  0.001
 H          0.740 -0.511  0.292   -0.101  0.068 -0.040    0.002 -0.003  0.001
 C         -0.002 -0.003  0.000    0.001  0.000  0.000   -0.003  0.002 -0.002
 O          0.001  0.000  0.000   -0.000 -0.000 -0.000    0.002 -0.000  0.000
 O          0.000  0.000 -0.000   -0.000 -0.000 -0.000    0.002 -0.002  0.000
 O         -0.000 -0.000  0.000    0.000 -0.000  0.000    0.000  0.000 -0.001
 O          0.000 -0.000 -0.000   -0.000 -0.000  0.000   -0.062  0.009  0.015
 H         -0.003 -0.000  0.001    0.003 -0.001 -0.001    0.967 -0.134 -0.208
 TransDip  -0.099  0.102 -0.037    0.020 -0.068  0.032    0.845 -0.140 -0.299

 STANDARD THERMODYNAMIC QUANTITIES AT   298.15 K  AND     1.00 ATM

   This Molecule has  0 Imaginary Frequencies
   Zero point vibrational energy:       44.425 kcal/mol

   Atom    1 Element C  Has Mass   12.00000
   Atom    2 Element C  Has Mass   12.00000
   Atom    3 Element H  Has Mass    1.00783
   Atom    4 Element H  Has Mass    1.00783
   Atom    5 Element H  Has Mass    1.00783
   Atom    6 Element C  Has Mass   12.00000
   Atom    7 Element O  Has Mass   15.99491
   Atom    8 Element O  Has Mass   15.99491
   Atom    9 Element O  Has Mass   15.99491
   Atom   10 Element O  Has Mass   15.99491
   Atom   11 Element H  Has Mass    1.00783
   Molecular Mass:   104.010960 amu
   Principal axes and moments of inertia in amu*Bohr^2:
                             1           2           3
    Eigenvalues --      480.30522  1375.83021  1664.00363
          X               0.93974     0.24620     0.23721
          Y              -0.26004     0.96518     0.02843
          Z              -0.22195    -0.08840     0.97104
   Rotational Symmetry Number is   1
   The Molecule is an Asymmetric Top
   Translational Enthalpy:        0.889 kcal/mol
   Rotational Enthalpy:           0.889 kcal/mol
   Vibrational Enthalpy:         48.041 kcal/mol
   gas constant (RT):             0.592 kcal/mol
   Translational Entropy:        39.835  cal/mol.K
   Rotational Entropy:           28.488  cal/mol.K
   Vibrational Entropy:          25.632  cal/mol.K

   Total Enthalpy:               50.411 kcal/mol
   Total Entropy:                93.955  cal/mol.K
Archival summary:
1\1\c4-84\FREQ\ProcedureUnspecified\BasisUnspecified\434(2-,1)\leeping\FriMar2023:19:272020FriMar2023:19:272020\0\\#,FREQ,ProcedureUnspecified,BasisUnspecified,\\-2,1\O\C,1,1.26108\O,2,1.25647,1,125.606\C,2,1.51582,1,118.526,3,179.641,0\H,4,1.08797,2,115.355,1,178.018,0\C,4,1.32824,2,124,1,-2.46483,0\H,6,1.08647,4,121.438,2,-179.592,0\H,6,1.08653,4,120.773,2,0.562828,0\H,1,1.85628,2,132.969,3,145.598,0\O,9,0.974894,1,174.375,2,-153.252,0\O,10,1.47152,9,102.346,1,112.368,0\\\@

 Total job time:  6360.44s(wall), 88996.42s(cpu) 
 Fri Mar 20 23:19:27 2020

        *************************************************************
        *                                                           *
        *  Thank you very much for using Q-Chem.  Have a nice day.  *
        *                                                           *
        *************************************************************


