11   
From 3-product-freq.out: Frame 1 / 67, Energy=    -417.8026553016
C        0.5666024865    0.8900004389   -0.3583157791
C       -0.8355972628    0.5244283024   -0.0686954089
H        0.6278829333    1.8530259529   -0.8786560973
H        1.2044600094    0.9411939556    0.5384487943
H       -1.6327781502    1.0653968478   -0.5751473525
C       -1.1722808678   -0.5821744546    0.7456869715
O       -2.3893429964   -0.8731436534    1.0522543753
O       -0.1949958394   -1.3487470644    1.1960988742
O        1.3069540668    0.0023983392   -1.2723717280
O        1.6380245617   -1.1986257130   -0.5467673913
H        0.8834729656   -1.2788278258    0.1670543139
