
Running Job 1 of 1 qc-freq1.in
qchem qc-freq1.in_16525.0 /scratch/leeping/1862942/qc-freq1.d/ 1
/home/leeping/opt/qchem/5.0.2-openmp/exe/qcprog.exe_s qc-freq1.in_16525.0 /scratch/leeping/1862942/qc-freq1.d/
Check license passed

                  Welcome to Q-Chem
     A Quantum Leap Into The Future Of Chemistry


 Q-Chem 5.0, Q-Chem, Inc., Pleasanton, CA (2017)

 Yihan Shao,  Zhengting Gan,  E. Epifanovsky,  A. T. B. Gilbert,  M. Wormit,  
 J. Kussmann,  A. W. Lange,  A. Behn,  Jia Deng,  Xintian Feng,  D. Ghosh,  
 M. Goldey,  P. R. Horn,  L. D. Jacobson,  I. Kaliman,  T. Kus,  A. Landau,  
 Jie Liu,  E. I. Proynov,  R. M. Richard,  R. P. Steele,  E. J. Sundstrom,  
 H. L. Woodcock III,  P. M. Zimmerman,  D. Zuev,  B. Albrecht,  E. Alguire,  
 S. A. Baeppler,  D. Barton,  Z. Benda,  Y. A. Bernard,  E. J. Berquist,  
 K. B. Bravaya,  H. Burton,  D. Casanova,  Chun-Min Chang,  Yunqing Chen,  
 A. Chien,  K. D. Closser,  M. P. Coons,  S. Dasgupta,  A. L. Dempwolff,  
 M. Diedenhofen,  Hainam Do,  R. G. Edgar,  Po-Tung Fang,  S. Fatehi,  
 Qingguo Feng,  J. Fosso-Tande,  Qinghui Ge,  A. Ghysels,  G. Gidofalvi,  
 J. Gomes,  J. Gonthier,  A. Gunina,  M. W. D. Hanson-Heine,  
 P. H. P. Harbach,  A. W. Hauser,  J. E. Herr,  E. G. Hohenstein,  
 Z. C. Holden,  Kerwin Hui,  T.-C. Jagau,  Hyunjun Ji,  B. Kaduk,  
 K. Khistyaev,  Jaehoon Kim,  P. Klunzinger,  K. Koh,  D. Kosenkov,  
 L. Koulias,  T. Kowalczyk,  C. M. Krauter,  A. Kunitsa,  Ka Un Lao,  
 A. Laurent,  K. V. Lawler,  Joonho Lee,  D. Lefrancois,  S. Lehtola,  
 D. S. Levine,  Yi-Pei Li,  You-Sheng Lin,  Fenglai Liu,  E. Livshits,  
 A. Luenser,  P. Manohar,  E. Mansoor,  S. F. Manzer,  Shan-Ping Mao,  
 Yuezhi Mao,  N. Mardirossian,  A. V. Marenich,  T. Markovich,  
 L. A. Martinez-Martinez,  S. A. Maurer,  N. J. Mayhall,  S. C. McKenzie,  
 J.-M. Mewes,  A. F. Morrison,  J. W. Mullinax,  K. Nanda,  
 T. S. Nguyen-Beck,  R. Olivares-Amaya,  J. A. Parkhill,  T. M. Perrine,  
 F. Plasser,  S. Prager,  A. Prociuk,  E. Ramos,  D. R. Rehn,  F. Rob,  
 M. Schneider,  N. Sergueev,  S. M. Sharada,  S. Sharma,  D. W. Small,  
 T. Stauch,  T. Stein,  Yu-Chuan Su,  A. J. W. Thom,  A. Tkatchenko,  
 T. Tsuchimochi,  L. Vogt,  O. Vydrov,  M. A. Watson,  J. Wenzel,  
 M. de Wergifosse,  T. A. Wesolowski,  A. White,  J. Witte,  A. Yamada,  
 Jun Yang,  K. Yao,  S. Yeganeh,  S. R. Yost,  Zhi-Qiang You,  A. Zech,  
 Igor Ying Zhang,  Xing Zhang,  Yan Zhao,  Ying Zhu,  B. R. Brooks,  
 G. K. L. Chan,  C. J. Cramer,  M. S. Gordon,  W. J. Hehre,  A. Klamt,  
 M. W. Schmidt,  C. D. Sherrill,  D. G. Truhlar,  A. Aspuru-Guzik,  R. Baer,  
 A. T. Bell,  N. A. Besley,  Jeng-Da Chai,  R. A. DiStasio Jr.,  A. Dreuw,  
 B. D. Dunietz,  T. R. Furlani,  Chao-Ping Hsu,  Yousung Jung,  Jing Kong,  
 D. S. Lambrecht,  WanZhen Liang,  C. Ochsenfeld,  V. A. Rassolov,  
 L. V. Slipchenko,  J. E. Subotnik,  T. Van Voorhis,  J. M. Herbert,  
 A. I. Krylov,  P. M. W. Gill,  M. Head-Gordon

 Contributors to earlier versions of Q-Chem not listed above: 
 R. D. Adamson,  B. Austin,  J. Baker,  G. J. O. Beran,  K. Brandhorst,  
 S. T. Brown,  E. F. C. Byrd,  A. K. Chakraborty,  C.-L. Cheng,  
 Siu Hung Chien,  D. M. Chipman,  D. L. Crittenden,  H. Dachsel,  
 R. J. Doerksen,  A. D. Dutoi,  L. Fusti-Molnar,  W. A. Goddard III,  
 A. Golubeva-Zadorozhnaya,  S. R. Gwaltney,  G. Hawkins,  A. Heyden,  
 S. Hirata,  G. Kedziora,  F. J. Keil,  C. Kelley,  Jihan Kim,  R. A. King,  
 R. Z. Khaliullin,  P. P. Korambath,  W. Kurlancheek,  A. M. Lee,  M. S. Lee,  
 S. V. Levchenko,  Ching Yeh Lin,  D. Liotard,  R. C. Lochan,  I. Lotan,  
 P. E. Maslen,  N. Nair,  D. P. O'Neill,  D. Neuhauser,  E. Neuscamman,  
 C. M. Oana,  R. Olson,  B. Peters,  R. Peverati,  P. A. Pieniazek,  
 Y. M. Rhee,  J. Ritchie,  M. A. Rohrdanz,  E. Rosta,  N. J. Russ,  
 H. F. Schaefer III,  N. E. Schultz,  N. Shenvi,  A. C. Simmonett,  A. Sodt,  
 D. Stuck,  K. S. Thanthiriwatte,  V. Vanovschi,  Tao Wang,  A. Warshel,  
 C. F. Williams,  Q. Wu,  X. Xu,  W. Zhang

 Please cite Q-Chem as follows:
 Y. Shao et al., Mol. Phys. 113, 184-215 (2015)
 DOI: 10.1080/00268976.2014.952696

 Q-Chem 5.0.2 for Intel X86 EM64T Linux

 Parts of Q-Chem use Armadillo 5.200.1 (Boston Tea Smuggler).
 http://arma.sourceforge.net/

 Q-Chem begins on Sat Mar 21 02:29:08 2020  

Host: 
0

     Scratch files written to /scratch/leeping/1862942/qc-freq1.d//
 Dec517 15110_ 26548  26544 5633   
Processing $rem in /home/leeping/opt/qchem/5.0.2-openmp/config/preferences.
 MEM_STATIC 2000
 MEM_TOTAL  8000
 SYMMETRY   OFF
 SYM_IGNORE TRUE 
Symmetry turned off for PCM/SM12/SMD calculation

Checking the input file for inconsistencies... 	...done.

--------------------------------------------------------------
User input:
--------------------------------------------------------------
$molecule
-2 1
C       -2.6158626764    0.3702193368   -1.0076411029
H       -2.8948818871    1.1307089350   -0.2726376553
H       -2.3506549015    0.8662256196   -1.9453375509
H       -3.4666048186   -0.2923183482   -1.1805715615
C       -1.4295422973   -0.4554090847   -0.5228888643
C        0.8383073015   -0.0417239919    0.1890038944
H        1.2212162722   -0.7935236769   -0.5099123416
H        0.6676366364   -0.5355794206    1.1526019043
C        1.8275332673    1.0978505196    0.3400909065
H        1.4255694028    1.8502428371    1.0294732839
H        1.9610368199    1.6043484949   -0.6225717684
C        3.2167609446    0.6934568810    0.8561171311
O       -1.8530284030   -0.9201176296    0.8608566100
O       -1.0892859789   -1.4916866983   -1.2440949498
H       -1.1515119730   -2.4095084778    0.0461382689
O       -0.3825087934    0.5027405626   -0.2981347770
O        4.0792282541    1.6115310260    0.8991492086
O        3.4036139891   -0.5011228375    1.2024246922
O       -1.4127076696   -2.2729743575    1.0151810450
$end

$rem
jobtype               freq
method                wb97x-v
basis                 def2-tzvpd
symmetry              off
sym_ignore            true
unrestricted          false
incdft                false
incfock               0
!scf_algorithm        diis_gdm
scf_convergence       8
thresh                14
!purecart             112
max_scf_cycles        1000
geom_opt_max_cycles   900
geom_opt_dmax         100
geom_opt_tol_gradient 10
solvent_method        pcm
ideriv                1
rpath_tol_displacement 1000
rpath_max_cycles      100
rpath_direction       1
!scf_guess            read
scf_guess             read
$end

$pcm
theory              cosmo
method              iswig
Radii               bondi
vdwScale            1.20
hpoints             110
heavypoints         110
$end

$solvent
dielectric 78.400000
$end

--------------------------------------------------------------
 ----------------------------------------------------------------
             Standard Nuclear Orientation (Angstroms)
    I     Atom           X                Y                Z
 ----------------------------------------------------------------
    1      C      -2.6158626764     0.3702193368    -1.0076411029
    2      H      -2.8948818871     1.1307089350    -0.2726376553
    3      H      -2.3506549015     0.8662256196    -1.9453375509
    4      H      -3.4666048186    -0.2923183482    -1.1805715615
    5      C      -1.4295422973    -0.4554090847    -0.5228888643
    6      C       0.8383073015    -0.0417239919     0.1890038944
    7      H       1.2212162722    -0.7935236769    -0.5099123416
    8      H       0.6676366364    -0.5355794206     1.1526019043
    9      C       1.8275332673     1.0978505196     0.3400909065
   10      H       1.4255694028     1.8502428371     1.0294732839
   11      H       1.9610368199     1.6043484949    -0.6225717684
   12      C       3.2167609446     0.6934568810     0.8561171311
   13      O      -1.8530284030    -0.9201176296     0.8608566100
   14      O      -1.0892859789    -1.4916866983    -1.2440949498
   15      H      -1.1515119730    -2.4095084778     0.0461382689
   16      O      -0.3825087934     0.5027405626    -0.2981347770
   17      O       4.0792282541     1.6115310260     0.8991492086
   18      O       3.4036139891    -0.5011228375     1.2024246922
   19      O      -1.4127076696    -2.2729743575     1.0151810450
 ----------------------------------------------------------------
 Nuclear Repulsion Energy =   644.0205573700 hartrees
 There are       44 alpha and       44 beta electrons
 Requested basis set is def2-TZVPD
 There are 189 shells and 497 basis functions

 Total QAlloc Memory Limit   8000 MB
 Mega-Array Size      1956 MB
 MEM_STATIC part      2000 MB
 Discretize the solute cavity surface with Lebedev spheres
	Using 110 Lebedev grid points for each H atom
	Using 110 Lebedev grid points for other atoms
	Atomic van der Waals radii will be scaled by 1.20
 Remove points where switching function is < 1.0e-08
 Keep 1136 surface tesserae and discard 954 interior tesserae
 Molecular Surface Area = 198.480 Angst**2
 A cutoff of  1.0D-14 yielded  15996 shell pairs
 There are    110528 function pairs (    140763 Cartesian)
 
 -------------------------------------------------------
 OpenMP Integral Computing Module                       
 Release: version 1.0, May 2013, Q-Chem Inc. Pittsburgh 
 -------------------------------------------------------
 Integral Job Info:
 Integral job number is                      11
 Integral operator is                         1
 short-range coefficients              16700000
 long-range coefficients              100000000
 Omega coefficients                         300
 if combine SR and LR in K                    1
 Integral screening is                        0
 Integral computing path is                   2
 max size of driver memory is            800000
 size of driver memory is                776718
 size of scratch memory is              4473992
 max col of scratch BK array              10000
 max len of scratch array in speh3          662
 max len of scratch index in speh4           32
 max int batch size is                      520
 min int batch size is                       52
 fixed nKL is                                52
 max L of basis functions is                  3
 order of int derivative is                   0
 number of shells is                        189
 number of basis is                         563
 number of cartesian basis is               563
 number of contracted shell pairs         15996
 number of primitive shell pairs          32216
 maxK2 (contraction) of shell pair           36
 max number of K2 of shell pair               1
 max number of CS2 of shell pair           2640
 max number of PS2 of shell pair           3732
 mem total for path MDJ                  820668
 -------------------------------------------------------
 Smallest overlap matrix eigenvalue = 3.38E-06
 Guess MOs from SCF MO coefficient file
 Reading MOs from coefficient file
 Reading MOs from coefficient file
 Long-range K will be added via erf
 Coulomb attenuation parameter = 0.3 bohr**(-1)
 A restricted hybrid HF-DFT SCF calculation will be
 performed using Pulay DIIS extrapolation
 Polarizable Continuum solvation model will be applied
 Exchange:     0.1670 Hartree-Fock + 1.0000 wB97X-V + LR-HF
 Correlation:  1.0000 wB97X-V
 Using SG-2 standard quadrature grid
 Nonlocal Correlation:  VV10 with C = 0.0100 and b = 6.00
 Grid used for NLC:  SG-1 standard quadrature
 SCF converges when DIIS error is below 1.0E-08
Using Q-Chem read-in guess as SCF_GUESS READ specified.

 using 16 threads for integral computing
 -------------------------------------------------------
 OpenMP Integral computing Module                
 Release: version 1.0, May 2013, Q-Chem Inc. Pittsburgh 
 -------------------------------------------------------
 using 16 threads for integral computing
 -------------------------------------------------------
 OpenMP Integral computing Module                
 Release: version 1.0, May 2013, Q-Chem Inc. Pittsburgh 
 -------------------------------------------------------
 -------------------------------------------------------
 OpenMP BLAS3 based DFT computing Module                
 Release: version 1.0, May 2013, Q-Chem Inc. Pittsburgh 
 -------------------------------------------------------
 -------------------------------------------------------
 OpenMP BLAS3 based DFT computing Module                
 Release: version 1.0, May 2013, Q-Chem Inc. Pittsburgh 
 -------------------------------------------------------
 -------------------------------------------------------
 OpenMP BLAS3 based DFT computing Module                
 Release: version 1.0, May 2013, Q-Chem Inc. Pittsburgh 
 -------------------------------------------------------
 ---------------------------------------
  Cycle       Energy         DIIS Error
 ---------------------------------------
    1    -646.6720910574      2.73E-04
    2    -646.9617441467      2.78E-04
    3    -646.9652729869      1.31E-04
    4    -646.9658641437      9.81E-05
    5    -646.9662291588      7.56E-05
    6    -646.9664271699      6.06E-05
    7    -646.9665607469      4.79E-05
    8    -646.9666482641      3.73E-05
    9    -646.9667157342      2.64E-05
   10    -646.9667417430      2.07E-05
   11    -646.9667606209      1.52E-05
   12    -646.9667698005      1.17E-05
   13    -646.9667756358      8.76E-06
   14    -646.9667786748      6.73E-06
   15    -646.9667800865      5.53E-06
   16    -646.9667811465      4.43E-06
   17    -646.9667830359      2.39E-09 Convergence criterion met
 ---------------------------------------

************** Final PCM Free Energy Summary **************
 G_electrostatic  =      -0.29469388 hartree =    -184.92320285 kcal/mol
 G_cavitation     =       0.00000000 hartree =       0.00000000 kcal/mol
 G_dispersion     =       0.00000000 hartree =       0.00000000 kcal/mol
 G_repulsion      =       0.00000000 hartree =       0.00000000 kcal/mol
 --------------------------------------------------
 Non-electrostatic Free Energy =       0.00000000 hartree =       0.00000000 kcal/mol
 Total                         =      -0.29469388 hartree =    -184.92320285 kcal/mol
 --------------------------------------------------
 SCF Energy (H0 + V/2)                       =    -646.96678304 
 Solute Internal Energy (H0)                 =    -646.67208915 
 Total Free Energy (H0 + V/2 + non-elec)     =    -646.96678304 hartree
                                             = -405977.78377741 kcal/mol
***********************************************************

 SCF time:  CPU 5456.99 s  wall 384.67 s
 SCF   energy in the final basis set = -646.96678304
 Total energy in the final basis set = -646.96678304
 
 --------------------------------------------------------------
 
                    Orbital Energies (a.u.)
 --------------------------------------------------------------
 
 Alpha MOs
 -- Occupied --
-19.228 -19.224 -19.192 -19.140 -19.138 -19.128 -10.377 -10.342
-10.288 -10.246 -10.240  -1.228  -1.149  -1.143  -1.063  -1.049
 -0.970  -0.877  -0.833  -0.739  -0.672  -0.635  -0.601  -0.578
 -0.567  -0.553  -0.529  -0.526  -0.511  -0.505  -0.490  -0.478
 -0.471  -0.455  -0.440  -0.429  -0.415  -0.369  -0.349  -0.345
 -0.340  -0.333  -0.331  -0.314
 -- Virtual --
  0.060   0.072   0.076   0.086   0.097   0.099   0.107   0.112
  0.125   0.126   0.132   0.140   0.143   0.156   0.159   0.163
  0.170   0.172   0.178   0.182   0.184   0.191   0.209   0.211
  0.217   0.228   0.239   0.241   0.246   0.246   0.252   0.268
  0.272   0.276   0.278   0.282   0.291   0.295   0.301   0.304
  0.313   0.318   0.322   0.326   0.331   0.338   0.342   0.351
  0.359   0.364   0.369   0.370   0.376   0.381   0.386   0.394
  0.399   0.403   0.410   0.411   0.413   0.419   0.420   0.431
  0.434   0.441   0.444   0.447   0.455   0.456   0.463   0.471
  0.475   0.479   0.484   0.490   0.499   0.504   0.505   0.514
  0.517   0.525   0.529   0.534   0.547   0.550   0.554   0.556
  0.563   0.570   0.572   0.583   0.590   0.592   0.598   0.603
  0.612   0.616   0.625   0.629   0.635   0.650   0.654   0.659
  0.663   0.667   0.672   0.686   0.687   0.703   0.720   0.722
  0.726   0.735   0.737   0.744   0.745   0.760   0.768   0.775
  0.784   0.785   0.789   0.791   0.805   0.809   0.812   0.818
  0.827   0.833   0.833   0.840   0.843   0.858   0.862   0.870
  0.871   0.875   0.886   0.899   0.907   0.915   0.918   0.920
  0.931   0.937   0.950   0.957   0.966   0.981   0.985   1.005
  1.016   1.030   1.036   1.043   1.054   1.067   1.082   1.088
  1.100   1.114   1.129   1.134   1.144   1.164   1.172   1.184
  1.187   1.200   1.210   1.216   1.239   1.247   1.263   1.277
  1.279   1.298   1.313   1.331   1.334   1.341   1.350   1.375
  1.386   1.393   1.405   1.423   1.439   1.451   1.462   1.474
  1.486   1.496   1.516   1.542   1.557   1.573   1.590   1.618
  1.632   1.655   1.702   1.745   1.762   1.771   1.801   1.833
  1.835   1.879   1.895   1.916   1.928   1.941   1.948   1.965
  1.970   1.980   1.990   2.000   2.008   2.019   2.022   2.037
  2.051   2.057   2.067   2.092   2.107   2.140   2.175   2.185
  2.196   2.217   2.227   2.243   2.249   2.268   2.279   2.288
  2.314   2.335   2.339   2.360   2.367   2.386   2.389   2.429
  2.437   2.467   2.480   2.486   2.501   2.516   2.530   2.538
  2.587   2.589   2.637   2.644   2.649   2.655   2.687   2.696
  2.721   2.727   2.744   2.762   2.777   2.780   2.823   2.854
  2.877   2.892   2.918   2.935   2.941   2.959   2.973   2.978
  2.984   3.022   3.038   3.056   3.071   3.089   3.093   3.120
  3.133   3.146   3.196   3.211   3.220   3.244   3.263   3.266
  3.297   3.317   3.329   3.365   3.369   3.377   3.393   3.398
  3.441   3.452   3.463   3.479   3.496   3.499   3.522   3.537
  3.538   3.555   3.576   3.583   3.585   3.613   3.624   3.650
  3.659   3.670   3.678   3.694   3.705   3.721   3.734   3.735
  3.743   3.764   3.776   3.795   3.803   3.838   3.866   3.880
  3.904   3.945   3.976   3.992   4.059   4.077   4.099   4.121
  4.160   4.185   4.204   4.222   4.256   4.271   4.334   4.422
  4.431   4.538   4.615   4.628   4.638   4.662   4.700   4.721
  4.785   4.813   4.826   4.866   4.888   4.924   4.964   5.010
  5.057   5.133   5.143   5.207   5.227   5.273   5.324   5.351
  5.360   5.374   5.379   5.388   5.482   5.503   5.525   5.555
  5.578   5.609   5.663   5.694   5.713   5.725   5.737   5.767
  5.778   5.820   5.956   6.004   6.049   6.099   6.100   6.211
  6.239   6.251   6.312   6.321   6.339   6.408   6.431   6.503
  6.569   6.615   6.628   6.638   6.667   6.682   6.700   6.748
  6.769   6.775   6.809   6.832   6.949   6.959   6.969   6.981
  7.041   7.052   7.106   7.113   7.156   7.213   7.256   7.261
  7.334   7.363   7.398   7.408   7.414   7.529   7.595   7.678
  7.732   8.334  22.692  22.860  22.949  23.216  23.737  44.230
 44.269  44.436  44.515  44.699  44.725
 --------------------------------------------------------------
 
          Ground-State Mulliken Net Atomic Charges

     Atom                 Charge (a.u.)
  ----------------------------------------
      1 C                    -1.166909
      2 H                     0.226427
      3 H                     0.248923
      4 H                     0.246230
      5 C                     0.781006
      6 C                    -0.200748
      7 H                     0.167867
      8 H                     0.191445
      9 C                    -0.077150
     10 H                     0.228168
     11 H                     0.244466
     12 C                     0.042957
     13 O                    -0.305583
     14 O                    -0.912890
     15 H                     0.370264
     16 O                    -0.268982
     17 O                    -0.710831
     18 O                    -0.691431
     19 O                    -0.413228
  ----------------------------------------
  Sum of atomic charges =    -2.000000

 -----------------------------------------------------------------
                    Cartesian Multipole Moments
 -----------------------------------------------------------------
    Charge (ESU x 10^10)
                -9.6064
    Dipole Moment (Debye)
         X     -12.8882      Y       3.7061      Z      -4.9394
       Tot      14.2912
    Quadrupole Moments (Debye-Ang)
        XX    -158.0653     XY     -22.5799     YY     -92.7799
        XZ     -20.1196     YZ      -1.1707     ZZ     -85.6762
    Octopole Moments (Debye-Ang^2)
       XXX    -393.9020    XXY     -37.4897    XYY     -49.5083
       YYY      28.5068    XXZ    -110.0875    XYZ     -12.2762
       YYZ     -24.0135    XZZ     -38.1961    YZZ      26.7131
       ZZZ     -39.9629
    Hexadecapole Moments (Debye-Ang^3)
      XXXX   -3727.8496   XXXY    -594.1160   XXYY    -701.1182
      XYYY    -383.0555   YYYY    -696.7944   XXXZ    -606.7851
      XXYZ     -40.5660   XYYZ    -118.2378   YYYZ      -1.8308
      XXZZ    -575.0225   XYZZ    -120.2215   YYZZ    -211.3620
      XZZZ    -293.8842   YZZZ     -12.3134   ZZZZ    -426.4008
 -----------------------------------------------------------------
 Calculating analytic gradient of the SCF energy
 Gradient of SCF Energy
            1           2           3           4           5           6
    1  -0.1175152   0.0162928  -0.0214139   0.0614648   0.1128967   0.0507386
    2   0.0181417  -0.0496975  -0.0319829   0.0483788   0.0335938  -0.1014441
    3  -0.0536027  -0.0525371   0.0653486   0.0134910   0.0664154   0.0344146
            7           8           9          10          11          12
    1  -0.0216773   0.0155932  -0.0394775   0.0226804  -0.0107666   0.0389926
    2   0.0539486   0.0382370   0.0630973  -0.0354488  -0.0205301  -0.0115752
    3   0.0389778  -0.0607074  -0.0258592  -0.0468312   0.0595527   0.0180128
           13          14          15          16          17          18
    1  -0.0223792  -0.0213857  -0.0151247  -0.0092021  -0.0440261  -0.0148584
    2   0.0265301   0.0026310   0.0106088  -0.0131571  -0.0343210   0.0524618
    3  -0.0180629  -0.0172926   0.0456230  -0.0014822  -0.0052305  -0.0170888
           19
    1   0.0191676
    2  -0.0494721
    3  -0.0431413
 Max gradient component =       1.175E-01
 RMS gradient           =       4.383E-02
 Computing fast CPCM-ISWIG gradient
 Updating gradient with PCM contributions...
 -- total gradient after adding PCM contribution --
---------------------------------------------------
  Atom         X              Y              Z     
---------------------------------------------------
   1      -0.000011      -0.000044      -0.000006
   2       0.000010       0.000007      -0.000001
   3       0.000005       0.000015       0.000003
   4       0.000007       0.000006      -0.000002
   5       0.000027       0.000032      -0.000094
   6      -0.000006       0.000003       0.000021
   7       0.000000       0.000003      -0.000005
   8       0.000004       0.000001      -0.000001
   9      -0.000047       0.000007      -0.000018
  10       0.000003       0.000003       0.000002
  11       0.000014      -0.000010       0.000005
  12       0.000022      -0.000012       0.000003
  13      -0.000009      -0.000059       0.000078
  14       0.000007       0.000009       0.000028
  15       0.000003      -0.000023      -0.000003
  16      -0.000014      -0.000013      -0.000005
  17      -0.000003      -0.000003       0.000013
  18      -0.000001       0.000017       0.000006
  19      -0.000011       0.000062      -0.000022
---------------------------------------------------
 Number of fixed atoms: 0
 Gradient time:  CPU 1102.12 s  wall 79.50 s
 ######################################################
 ######################################################
 # Starting finite difference calculation for IDERIV  #
 Finite diff step size:  1.88973e-03 a.u.
 ----------------------------------------------------------------
             Standard Nuclear Orientation (Angstroms)
    I     Atom           X                Y                Z
 ----------------------------------------------------------------
    1      C      -2.6148626764     0.3702193368    -1.0076411029
    2      H      -2.8948818871     1.1307089350    -0.2726376553
    3      H      -2.3506549015     0.8662256196    -1.9453375509
    4      H      -3.4666048186    -0.2923183482    -1.1805715615
    5      C      -1.4295422973    -0.4554090847    -0.5228888643
    6      C       0.8383073015    -0.0417239919     0.1890038944
    7      H       1.2212162722    -0.7935236769    -0.5099123416
    8      H       0.6676366364    -0.5355794206     1.1526019043
    9      C       1.8275332673     1.0978505196     0.3400909065
   10      H       1.4255694028     1.8502428371     1.0294732839
   11      H       1.9610368199     1.6043484949    -0.6225717684
   12      C       3.2167609446     0.6934568810     0.8561171311
   13      O      -1.8530284030    -0.9201176296     0.8608566100
   14      O      -1.0892859789    -1.4916866983    -1.2440949498
   15      H      -1.1515119730    -2.4095084778     0.0461382689
   16      O      -0.3825087934     0.5027405626    -0.2981347770
   17      O       4.0792282541     1.6115310260     0.8991492086
   18      O       3.4036139891    -0.5011228375     1.2024246922
   19      O      -1.4127076696    -2.2729743575     1.0151810450
 ----------------------------------------------------------------
 Nuclear Repulsion Energy =   644.0384469064 hartrees
 There are       44 alpha and       44 beta electrons
 Discretize the solute cavity surface with Lebedev spheres
	Using 110 Lebedev grid points for each H atom
	Using 110 Lebedev grid points for other atoms
	Atomic van der Waals radii will be scaled by 1.20
 Remove points where switching function is < 1.0e-08
 Keep 1136 surface tesserae and discard 954 interior tesserae
 Molecular Surface Area = 198.471 Angst**2
 Requested basis set is def2-TZVPD
 There are 189 shells and 497 basis functions
 A cutoff of  1.0D-14 yielded  15996 shell pairs
 There are    110528 function pairs (    140763 Cartesian)
 Smallest overlap matrix eigenvalue = 3.38E-06
 Guess MOs from SCF MO coefficient file
 Reading MOs from coefficient file
 Reading MOs from coefficient file
 Long-range K will be added via erf
 Coulomb attenuation parameter = 0.3 bohr**(-1)
 A restricted hybrid HF-DFT SCF calculation will be
 performed using Pulay DIIS extrapolation
 Polarizable Continuum solvation model will be applied
 Exchange:     0.1670 Hartree-Fock + 1.0000 wB97X-V + LR-HF
 Correlation:  1.0000 wB97X-V
 Using SG-2 standard quadrature grid
 Nonlocal Correlation:  VV10 with C = 0.0100 and b = 6.00
 Grid used for NLC:  SG-1 standard quadrature
 SCF converges when DIIS error is below 1.0E-08
Using Q-Chem read-in guess as SCF_GUESS READ specified.

 using 16 threads for integral computing
 -------------------------------------------------------
 OpenMP Integral computing Module                
 Release: version 1.0, May 2013, Q-Chem Inc. Pittsburgh 
 -------------------------------------------------------
 using 16 threads for integral computing
 -------------------------------------------------------
 OpenMP Integral computing Module                
 Release: version 1.0, May 2013, Q-Chem Inc. Pittsburgh 
 -------------------------------------------------------
 -------------------------------------------------------
 OpenMP BLAS3 based DFT computing Module                
 Release: version 1.0, May 2013, Q-Chem Inc. Pittsburgh 
 -------------------------------------------------------
 -------------------------------------------------------
 OpenMP BLAS3 based DFT computing Module                
 Release: version 1.0, May 2013, Q-Chem Inc. Pittsburgh 
 -------------------------------------------------------
 -------------------------------------------------------
 OpenMP BLAS3 based DFT computing Module                
 Release: version 1.0, May 2013, Q-Chem Inc. Pittsburgh 
 -------------------------------------------------------
 ---------------------------------------
  Cycle       Energy         DIIS Error
 ---------------------------------------
    1    -646.6717498118      2.73E-04
    2    -646.9617418866      2.78E-04
    3    -646.9652728455      1.31E-04
    4    -646.9658647896      9.80E-05
    5    -646.9662353093      7.51E-05
    6    -646.9664442708      5.90E-05
    7    -646.9666051514      4.27E-05
    8    -646.9667109107      2.71E-05
    9    -646.9667716094      1.04E-05
   10    -646.9667809214      3.52E-06
   11    -646.9667820560      7.05E-07
   12    -646.9667821013      1.59E-07
   13    -646.9667821036      9.51E-09 Convergence criterion met
 ---------------------------------------

************** Final PCM Free Energy Summary **************
 G_electrostatic  =      -0.29470131 hartree =    -184.92786621 kcal/mol
 G_cavitation     =       0.00000000 hartree =       0.00000000 kcal/mol
 G_dispersion     =       0.00000000 hartree =       0.00000000 kcal/mol
 G_repulsion      =       0.00000000 hartree =       0.00000000 kcal/mol
 --------------------------------------------------
 Non-electrostatic Free Energy =       0.00000000 hartree =       0.00000000 kcal/mol
 Total                         =      -0.29470131 hartree =    -184.92786621 kcal/mol
 --------------------------------------------------
 SCF Energy (H0 + V/2)                       =    -646.96678210 
 Solute Internal Energy (H0)                 =    -646.67208079 
 Total Free Energy (H0 + V/2 + non-elec)     =    -646.96678210 hartree
                                             = -405977.78319240 kcal/mol
***********************************************************

 SCF time:  CPU 4169.41 s  wall 293.98 s
 SCF   energy in the final basis set = -646.96678210
 Total energy in the final basis set = -646.96678210
 
 --------------------------------------------------------------
 
                    Orbital Energies (a.u.)
 --------------------------------------------------------------
 
 Alpha MOs
 -- Occupied --
-19.228 -19.224 -19.192 -19.140 -19.138 -19.128 -10.377 -10.342
-10.288 -10.246 -10.240  -1.228  -1.149  -1.143  -1.064  -1.049
 -0.970  -0.877  -0.833  -0.739  -0.672  -0.635  -0.601  -0.578
 -0.567  -0.553  -0.529  -0.526  -0.511  -0.505  -0.490  -0.477
 -0.471  -0.455  -0.440  -0.429  -0.415  -0.369  -0.349  -0.345
 -0.340  -0.333  -0.331  -0.314
 -- Virtual --
  0.060   0.072   0.076   0.086   0.097   0.099   0.107   0.112
  0.124   0.126   0.132   0.140   0.143   0.156   0.159   0.163
  0.170   0.172   0.178   0.182   0.184   0.191   0.209   0.211
  0.217   0.228   0.239   0.241   0.246   0.246   0.252   0.268
  0.272   0.276   0.278   0.282   0.291   0.295   0.301   0.304
  0.313   0.318   0.322   0.326   0.331   0.338   0.342   0.351
  0.359   0.364   0.369   0.370   0.376   0.381   0.386   0.394
  0.399   0.403   0.410   0.411   0.413   0.419   0.420   0.431
  0.434   0.441   0.444   0.447   0.455   0.456   0.463   0.471
  0.475   0.479   0.484   0.490   0.499   0.504   0.505   0.514
  0.517   0.525   0.529   0.534   0.547   0.550   0.554   0.556
  0.563   0.570   0.572   0.583   0.590   0.592   0.598   0.603
  0.612   0.616   0.625   0.629   0.635   0.650   0.654   0.659
  0.663   0.667   0.672   0.686   0.687   0.703   0.720   0.722
  0.726   0.735   0.737   0.744   0.745   0.760   0.768   0.775
  0.784   0.785   0.789   0.791   0.805   0.809   0.812   0.818
  0.827   0.833   0.833   0.840   0.843   0.858   0.862   0.870
  0.871   0.875   0.886   0.899   0.907   0.915   0.918   0.920
  0.931   0.937   0.950   0.957   0.966   0.981   0.985   1.005
  1.016   1.030   1.036   1.044   1.054   1.067   1.082   1.088
  1.100   1.114   1.129   1.134   1.144   1.164   1.172   1.184
  1.187   1.200   1.210   1.216   1.239   1.247   1.263   1.277
  1.279   1.298   1.313   1.331   1.334   1.342   1.350   1.375
  1.386   1.393   1.405   1.423   1.439   1.451   1.462   1.474
  1.487   1.496   1.516   1.542   1.557   1.573   1.590   1.618
  1.631   1.655   1.702   1.745   1.762   1.771   1.801   1.833
  1.835   1.879   1.895   1.916   1.928   1.941   1.948   1.965
  1.970   1.980   1.990   2.000   2.008   2.019   2.022   2.037
  2.051   2.057   2.067   2.092   2.107   2.140   2.175   2.185
  2.196   2.217   2.227   2.243   2.249   2.268   2.279   2.288
  2.315   2.335   2.339   2.360   2.367   2.386   2.389   2.429
  2.437   2.467   2.480   2.486   2.501   2.516   2.530   2.537
  2.587   2.589   2.637   2.644   2.649   2.655   2.687   2.696
  2.721   2.727   2.744   2.762   2.777   2.780   2.823   2.854
  2.877   2.892   2.918   2.935   2.941   2.959   2.973   2.978
  2.984   3.022   3.038   3.056   3.071   3.089   3.093   3.121
  3.133   3.146   3.196   3.211   3.220   3.244   3.263   3.266
  3.297   3.317   3.329   3.365   3.369   3.377   3.393   3.398
  3.441   3.452   3.463   3.479   3.496   3.499   3.522   3.537
  3.538   3.555   3.576   3.583   3.585   3.613   3.624   3.650
  3.659   3.670   3.678   3.694   3.705   3.721   3.734   3.735
  3.743   3.764   3.776   3.795   3.803   3.838   3.866   3.880
  3.904   3.945   3.976   3.992   4.059   4.077   4.099   4.121
  4.160   4.185   4.204   4.222   4.257   4.271   4.334   4.422
  4.431   4.538   4.615   4.628   4.638   4.662   4.699   4.721
  4.784   4.813   4.826   4.866   4.888   4.924   4.964   5.010
  5.057   5.133   5.143   5.208   5.227   5.274   5.324   5.351
  5.360   5.374   5.379   5.388   5.482   5.503   5.525   5.555
  5.578   5.609   5.663   5.694   5.713   5.725   5.737   5.767
  5.778   5.821   5.956   6.004   6.049   6.099   6.100   6.211
  6.239   6.251   6.312   6.321   6.339   6.408   6.432   6.503
  6.569   6.615   6.628   6.638   6.667   6.682   6.700   6.748
  6.769   6.775   6.809   6.832   6.949   6.959   6.969   6.982
  7.041   7.052   7.106   7.113   7.156   7.213   7.256   7.261
  7.334   7.363   7.398   7.408   7.414   7.529   7.595   7.678
  7.732   8.334  22.692  22.860  22.949  23.216  23.737  44.230
 44.269  44.436  44.515  44.699  44.725
 --------------------------------------------------------------
 
          Ground-State Mulliken Net Atomic Charges

     Atom                 Charge (a.u.)
  ----------------------------------------
      1 C                    -1.167628
      2 H                     0.226413
      3 H                     0.249107
      4 H                     0.245965
      5 C                     0.781912
      6 C                    -0.200962
      7 H                     0.167861
      8 H                     0.191439
      9 C                    -0.077072
     10 H                     0.228178
     11 H                     0.244469
     12 C                     0.042938
     13 O                    -0.305593
     14 O                    -0.912914
     15 H                     0.370251
     16 O                    -0.268891
     17 O                    -0.710832
     18 O                    -0.691433
     19 O                    -0.413210
  ----------------------------------------
  Sum of atomic charges =    -2.000000

 -----------------------------------------------------------------
                    Cartesian Multipole Moments
 -----------------------------------------------------------------
    Charge (ESU x 10^10)
                -9.6064
    Dipole Moment (Debye)
         X     -12.8891      Y       3.7070      Z      -4.9399
       Tot      14.2924
    Quadrupole Moments (Debye-Ang)
        XX    -158.0640     XY     -22.5838     YY     -92.7799
        XZ     -20.1181     YZ      -1.1736     ZZ     -85.6746
    Octopole Moments (Debye-Ang^2)
       XXX    -393.9250    XXY     -37.4745    XYY     -49.5147
       YYY      28.5067    XXZ    -110.0930    XYZ     -12.2678
       YYZ     -24.0133    XZZ     -38.2064    YZZ      26.7174
       ZZZ     -39.9672
    Hexadecapole Moments (Debye-Ang^3)
      XXXX   -3727.6984   XXXY    -594.1834   XXYY    -701.0895
      XYYY    -383.0668   YYYY    -696.7911   XXXZ    -606.7604
      XXYZ     -40.5937   XYYZ    -118.2307   YYYZ      -1.8405
      XXZZ    -574.9848   XYZZ    -120.2385   YYZZ    -211.3581
      XZZZ    -293.8571   YZZZ     -12.3267   ZZZZ    -426.3852
 -----------------------------------------------------------------
 Calculating analytic gradient of the SCF energy
 Gradient of SCF Energy
            1           2           3           4           5           6
    1  -0.1168682   0.0162414  -0.0214500   0.0610530   0.1128507   0.0507145
    2   0.0182014  -0.0495977  -0.0320716   0.0480848   0.0337876  -0.1014584
    3  -0.0536951  -0.0524330   0.0655081   0.0134143   0.0663381   0.0343894
            7           8           9          10          11          12
    1  -0.0216775   0.0155957  -0.0394620   0.0226827  -0.0107685   0.0389927
    2   0.0539523   0.0382384   0.0631026  -0.0354513  -0.0205325  -0.0115752
    3   0.0389843  -0.0607098  -0.0258431  -0.0468318   0.0595558   0.0180105
           13          14          15          16          17          18
    1  -0.0223778  -0.0214076  -0.0151278  -0.0092709  -0.0440284  -0.0148592
    2   0.0265347   0.0026564   0.0106139  -0.0131550  -0.0343224   0.0524647
    3  -0.0180761  -0.0172754   0.0456300  -0.0014986  -0.0052307  -0.0170898
           19
    1   0.0191671
    2  -0.0494728
    3  -0.0431471
 Max gradient component =       1.169E-01
 RMS gradient           =       4.378E-02
 Computing fast CPCM-ISWIG gradient
 Updating gradient with PCM contributions...
 -- total gradient after adding PCM contribution --
---------------------------------------------------
  Atom         X              Y              Z     
---------------------------------------------------
   1       0.000994       0.000046      -0.000051
   2      -0.000112       0.000096       0.000084
   3      -0.000116      -0.000042       0.000110
   4      -0.000390      -0.000243      -0.000063
   5      -0.000248       0.000129      -0.000160
   6      -0.000004      -0.000008       0.000022
   7      -0.000001       0.000005      -0.000004
   8       0.000004       0.000003      -0.000004
   9      -0.000050       0.000010      -0.000020
  10       0.000004       0.000002       0.000001
  11       0.000014      -0.000010       0.000007
  12       0.000025      -0.000013       0.000004
  13      -0.000003      -0.000062       0.000080
  14      -0.000006       0.000045       0.000031
  15       0.000001      -0.000023       0.000004
  16      -0.000099      -0.000001      -0.000040
  17      -0.000005      -0.000004       0.000013
  18      -0.000002       0.000019       0.000006
  19      -0.000005       0.000052      -0.000021
---------------------------------------------------
 Number of fixed atoms: 0
 Gradient time:  CPU 1102.85 s  wall 78.81 s
 ----------------------------------------------------------------
             Standard Nuclear Orientation (Angstroms)
    I     Atom           X                Y                Z
 ----------------------------------------------------------------
    1      C      -2.6168626764     0.3702193368    -1.0076411029
    2      H      -2.8948818871     1.1307089350    -0.2726376553
    3      H      -2.3506549015     0.8662256196    -1.9453375509
    4      H      -3.4666048186    -0.2923183482    -1.1805715615
    5      C      -1.4295422973    -0.4554090847    -0.5228888643
    6      C       0.8383073015    -0.0417239919     0.1890038944
    7      H       1.2212162722    -0.7935236769    -0.5099123416
    8      H       0.6676366364    -0.5355794206     1.1526019043
    9      C       1.8275332673     1.0978505196     0.3400909065
   10      H       1.4255694028     1.8502428371     1.0294732839
   11      H       1.9610368199     1.6043484949    -0.6225717684
   12      C       3.2167609446     0.6934568810     0.8561171311
   13      O      -1.8530284030    -0.9201176296     0.8608566100
   14      O      -1.0892859789    -1.4916866983    -1.2440949498
   15      H      -1.1515119730    -2.4095084778     0.0461382689
   16      O      -0.3825087934     0.5027405626    -0.2981347770
   17      O       4.0792282541     1.6115310260     0.8991492086
   18      O       3.4036139891    -0.5011228375     1.2024246922
   19      O      -1.4127076696    -2.2729743575     1.0151810450
 ----------------------------------------------------------------
 Nuclear Repulsion Energy =   644.0026738645 hartrees
 There are       44 alpha and       44 beta electrons
 Discretize the solute cavity surface with Lebedev spheres
	Using 110 Lebedev grid points for each H atom
	Using 110 Lebedev grid points for other atoms
	Atomic van der Waals radii will be scaled by 1.20
 Remove points where switching function is < 1.0e-08
 Keep 1136 surface tesserae and discard 954 interior tesserae
 Molecular Surface Area = 198.488 Angst**2
 Requested basis set is def2-TZVPD
 There are 189 shells and 497 basis functions
 A cutoff of  1.0D-14 yielded  15996 shell pairs
 There are    110528 function pairs (    140763 Cartesian)
 Smallest overlap matrix eigenvalue = 3.39E-06
 Guess MOs from SCF MO coefficient file
 Reading MOs from coefficient file
 Reading MOs from coefficient file
 Long-range K will be added via erf
 Coulomb attenuation parameter = 0.3 bohr**(-1)
 A restricted hybrid HF-DFT SCF calculation will be
 performed using Pulay DIIS extrapolation
 Polarizable Continuum solvation model will be applied
 Exchange:     0.1670 Hartree-Fock + 1.0000 wB97X-V + LR-HF
 Correlation:  1.0000 wB97X-V
 Using SG-2 standard quadrature grid
 Nonlocal Correlation:  VV10 with C = 0.0100 and b = 6.00
 Grid used for NLC:  SG-1 standard quadrature
 SCF converges when DIIS error is below 1.0E-08
Using Q-Chem read-in guess as SCF_GUESS READ specified.

 using 16 threads for integral computing
 -------------------------------------------------------
 OpenMP Integral computing Module                
 Release: version 1.0, May 2013, Q-Chem Inc. Pittsburgh 
 -------------------------------------------------------
 using 16 threads for integral computing
 -------------------------------------------------------
 OpenMP Integral computing Module                
 Release: version 1.0, May 2013, Q-Chem Inc. Pittsburgh 
 -------------------------------------------------------
 -------------------------------------------------------
 OpenMP BLAS3 based DFT computing Module                
 Release: version 1.0, May 2013, Q-Chem Inc. Pittsburgh 
 -------------------------------------------------------
 -------------------------------------------------------
 OpenMP BLAS3 based DFT computing Module                
 Release: version 1.0, May 2013, Q-Chem Inc. Pittsburgh 
 -------------------------------------------------------
 -------------------------------------------------------
 OpenMP BLAS3 based DFT computing Module                
 Release: version 1.0, May 2013, Q-Chem Inc. Pittsburgh 
 -------------------------------------------------------
 ---------------------------------------
  Cycle       Energy         DIIS Error
 ---------------------------------------
    1    -646.6727614144      2.73E-04
    2    -646.9617440354      2.78E-04
    3    -646.9652756202      1.31E-04
    4    -646.9658685056      9.78E-05
    5    -646.9662446322      7.44E-05
    6    -646.9664834744      5.55E-05
    7    -646.9666811334      3.23E-05
    8    -646.9667617345      1.45E-05
    9    -646.9667812068      2.98E-06
   10    -646.9667820232      6.49E-07
   11    -646.9667820607      1.04E-07
   12    -646.9667820615      3.30E-08
   13    -646.9667820615      1.00E-08
   14    -646.9667820616      5.14E-09 Convergence criterion met
 ---------------------------------------

************** Final PCM Free Energy Summary **************
 G_electrostatic  =      -0.29468685 hartree =    -184.91878815 kcal/mol
 G_cavitation     =       0.00000000 hartree =       0.00000000 kcal/mol
 G_dispersion     =       0.00000000 hartree =       0.00000000 kcal/mol
 G_repulsion      =       0.00000000 hartree =       0.00000000 kcal/mol
 --------------------------------------------------
 Non-electrostatic Free Energy =       0.00000000 hartree =       0.00000000 kcal/mol
 Total                         =      -0.29468685 hartree =    -184.91878815 kcal/mol
 --------------------------------------------------
 SCF Energy (H0 + V/2)                       =    -646.96678206 
 Solute Internal Energy (H0)                 =    -646.67209521 
 Total Free Energy (H0 + V/2 + non-elec)     =    -646.96678206 hartree
                                             = -405977.78316602 kcal/mol
***********************************************************

 SCF time:  CPU 4484.42 s  wall 316.35 s
 SCF   energy in the final basis set = -646.96678206
 Total energy in the final basis set = -646.96678206
 
 --------------------------------------------------------------
 
                    Orbital Energies (a.u.)
 --------------------------------------------------------------
 
 Alpha MOs
 -- Occupied --
-19.228 -19.224 -19.192 -19.140 -19.138 -19.128 -10.377 -10.342
-10.288 -10.246 -10.240  -1.228  -1.149  -1.143  -1.063  -1.049
 -0.970  -0.877  -0.833  -0.739  -0.672  -0.635  -0.601  -0.578
 -0.567  -0.553  -0.529  -0.526  -0.511  -0.505  -0.490  -0.478
 -0.471  -0.455  -0.440  -0.429  -0.415  -0.369  -0.349  -0.345
 -0.340  -0.333  -0.331  -0.314
 -- Virtual --
  0.060   0.072   0.076   0.086   0.097   0.099   0.107   0.112
  0.125   0.126   0.132   0.140   0.143   0.156   0.159   0.163
  0.170   0.172   0.178   0.182   0.184   0.191   0.209   0.211
  0.217   0.228   0.239   0.241   0.246   0.246   0.252   0.268
  0.272   0.276   0.278   0.282   0.291   0.295   0.301   0.304
  0.313   0.318   0.322   0.326   0.331   0.338   0.342   0.351
  0.359   0.364   0.369   0.370   0.376   0.381   0.386   0.394
  0.399   0.403   0.410   0.411   0.413   0.419   0.420   0.431
  0.434   0.441   0.444   0.447   0.455   0.456   0.463   0.471
  0.475   0.479   0.484   0.490   0.499   0.504   0.505   0.514
  0.517   0.525   0.529   0.534   0.547   0.550   0.554   0.556
  0.563   0.570   0.572   0.583   0.590   0.592   0.598   0.603
  0.612   0.616   0.625   0.629   0.635   0.650   0.654   0.659
  0.663   0.667   0.672   0.686   0.687   0.703   0.720   0.722
  0.726   0.735   0.737   0.744   0.745   0.760   0.768   0.775
  0.784   0.785   0.789   0.791   0.805   0.809   0.812   0.818
  0.827   0.833   0.833   0.840   0.843   0.858   0.862   0.870
  0.871   0.875   0.886   0.899   0.907   0.915   0.918   0.920
  0.931   0.937   0.950   0.957   0.966   0.981   0.985   1.005
  1.016   1.030   1.036   1.043   1.054   1.067   1.082   1.088
  1.100   1.114   1.129   1.134   1.144   1.164   1.172   1.184
  1.187   1.200   1.210   1.216   1.239   1.247   1.263   1.277
  1.279   1.298   1.313   1.331   1.334   1.341   1.350   1.375
  1.386   1.393   1.405   1.423   1.439   1.451   1.462   1.474
  1.486   1.496   1.515   1.542   1.557   1.573   1.589   1.618
  1.632   1.655   1.702   1.745   1.762   1.771   1.801   1.833
  1.835   1.879   1.895   1.916   1.928   1.941   1.948   1.965
  1.970   1.980   1.990   2.000   2.008   2.019   2.022   2.037
  2.051   2.057   2.067   2.092   2.107   2.140   2.175   2.185
  2.196   2.217   2.227   2.243   2.249   2.268   2.279   2.288
  2.314   2.335   2.339   2.360   2.367   2.386   2.389   2.429
  2.437   2.467   2.480   2.486   2.501   2.516   2.530   2.538
  2.587   2.589   2.636   2.644   2.648   2.655   2.687   2.696
  2.721   2.727   2.744   2.762   2.777   2.780   2.823   2.854
  2.877   2.892   2.918   2.935   2.941   2.959   2.972   2.978
  2.984   3.022   3.038   3.056   3.071   3.089   3.093   3.120
  3.133   3.146   3.196   3.211   3.220   3.244   3.263   3.266
  3.296   3.317   3.329   3.365   3.369   3.376   3.393   3.399
  3.441   3.452   3.463   3.479   3.496   3.499   3.522   3.537
  3.539   3.555   3.576   3.583   3.585   3.613   3.624   3.650
  3.659   3.670   3.678   3.694   3.705   3.721   3.734   3.735
  3.743   3.764   3.776   3.795   3.803   3.838   3.866   3.880
  3.904   3.945   3.976   3.992   4.059   4.077   4.099   4.121
  4.160   4.185   4.203   4.221   4.256   4.271   4.334   4.422
  4.431   4.538   4.615   4.628   4.638   4.662   4.701   4.721
  4.785   4.813   4.826   4.866   4.888   4.924   4.964   5.010
  5.057   5.133   5.143   5.207   5.227   5.273   5.324   5.351
  5.360   5.374   5.379   5.388   5.482   5.503   5.525   5.555
  5.578   5.609   5.663   5.694   5.713   5.725   5.737   5.767
  5.778   5.820   5.956   6.004   6.049   6.099   6.100   6.211
  6.239   6.251   6.312   6.321   6.339   6.408   6.431   6.503
  6.569   6.615   6.628   6.638   6.667   6.682   6.700   6.748
  6.769   6.775   6.809   6.832   6.949   6.959   6.969   6.981
  7.041   7.052   7.106   7.113   7.156   7.213   7.256   7.261
  7.334   7.363   7.398   7.408   7.414   7.529   7.595   7.678
  7.732   8.334  22.692  22.860  22.949  23.215  23.737  44.230
 44.269  44.436  44.515  44.698  44.725
 --------------------------------------------------------------
 
          Ground-State Mulliken Net Atomic Charges

     Atom                 Charge (a.u.)
  ----------------------------------------
      1 C                    -1.166194
      2 H                     0.226443
      3 H                     0.248742
      4 H                     0.246500
      5 C                     0.780095
      6 C                    -0.200538
      7 H                     0.167873
      8 H                     0.191450
      9 C                    -0.077233
     10 H                     0.228162
     11 H                     0.244468
     12 C                     0.042975
     13 O                    -0.305573
     14 O                    -0.912866
     15 H                     0.370278
     16 O                    -0.269074
     17 O                    -0.710830
     18 O                    -0.691429
     19 O                    -0.413247
  ----------------------------------------
  Sum of atomic charges =    -2.000000

 -----------------------------------------------------------------
                    Cartesian Multipole Moments
 -----------------------------------------------------------------
    Charge (ESU x 10^10)
                -9.6064
    Dipole Moment (Debye)
         X     -12.8873      Y       3.7054      Z      -4.9390
       Tot      14.2901
    Quadrupole Moments (Debye-Ang)
        XX    -158.0666     XY     -22.5759     YY     -92.7798
        XZ     -20.1210     YZ      -1.1678     ZZ     -85.6778
    Octopole Moments (Debye-Ang^2)
       XXX    -393.8798    XXY     -37.5047    XYY     -49.5019
       YYY      28.5072    XXZ    -110.0823    XYZ     -12.2845
       YYZ     -24.0136    XZZ     -38.1860    YZZ      26.7088
       ZZZ     -39.9586
    Hexadecapole Moments (Debye-Ang^3)
      XXXX   -3728.0011   XXXY    -594.0481   XXYY    -701.1463
      XYYY    -383.0438   YYYY    -696.7969   XXXZ    -606.8101
      XXYZ     -40.5384   XYYZ    -118.2448   YYYZ      -1.8211
      XXZZ    -575.0602   XYZZ    -120.2043   YYZZ    -211.3658
      XZZZ    -293.9112   YZZZ     -12.3000   ZZZZ    -426.4163
 -----------------------------------------------------------------
 Calculating analytic gradient of the SCF energy
 Gradient of SCF Energy
            1           2           3           4           5           6
    1  -0.1181662   0.0163445  -0.0213783   0.0618797   0.1129450   0.0507648
    2   0.0180802  -0.0497987  -0.0318950   0.0486757   0.0334015  -0.1014322
    3  -0.0535116  -0.0526427   0.0651909   0.0135684   0.0664937   0.0344409
            7           8           9          10          11          12
    1  -0.0216777   0.0155913  -0.0394948   0.0226791  -0.0107650   0.0389942
    2   0.0539466   0.0382366   0.0630940  -0.0354474  -0.0205283  -0.0115770
    3   0.0389723  -0.0607067  -0.0258760  -0.0468323   0.0595518   0.0180158
           13          14          15          16          17          18
    1  -0.0223814  -0.0213646  -0.0151221  -0.0091336  -0.0440254  -0.0148582
    2   0.0265264   0.0026059   0.0106042  -0.0131597  -0.0343205   0.0524608
    3  -0.0180502  -0.0173101   0.0456175  -0.0014657  -0.0052306  -0.0170885
           19
    1   0.0191689
    2  -0.0494730
    3  -0.0431369
 Max gradient component =       1.182E-01
 RMS gradient           =       4.387E-02
 Computing fast CPCM-ISWIG gradient
 Updating gradient with PCM contributions...
 -- total gradient after adding PCM contribution --
---------------------------------------------------
  Atom         X              Y              Z     
---------------------------------------------------
   1      -0.001020      -0.000137       0.000038
   2       0.000133      -0.000084      -0.000087
   3       0.000126       0.000070      -0.000103
   4       0.000406       0.000257       0.000059
   5       0.000304      -0.000062      -0.000027
   6      -0.000007       0.000011       0.000020
   7       0.000000       0.000002      -0.000005
   8       0.000004       0.000001      -0.000001
   9      -0.000045       0.000005      -0.000017
  10       0.000003       0.000003       0.000002
  11       0.000014      -0.000010       0.000005
  12       0.000021      -0.000011       0.000003
  13      -0.000015      -0.000054       0.000076
  14       0.000019      -0.000027       0.000024
  15       0.000005      -0.000023      -0.000009
  16       0.000071      -0.000026       0.000029
  17      -0.000002      -0.000002       0.000013
  18      -0.000000       0.000017       0.000006
  19      -0.000016       0.000070      -0.000025
---------------------------------------------------
 Number of fixed atoms: 0
 Gradient time:  CPU 1101.78 s  wall 79.44 s
 ----------------------------------------------------------------
             Standard Nuclear Orientation (Angstroms)
    I     Atom           X                Y                Z
 ----------------------------------------------------------------
    1      C      -2.6158626764     0.3712193368    -1.0076411029
    2      H      -2.8948818871     1.1307089350    -0.2726376553
    3      H      -2.3506549015     0.8662256196    -1.9453375509
    4      H      -3.4666048186    -0.2923183482    -1.1805715615
    5      C      -1.4295422973    -0.4554090847    -0.5228888643
    6      C       0.8383073015    -0.0417239919     0.1890038944
    7      H       1.2212162722    -0.7935236769    -0.5099123416
    8      H       0.6676366364    -0.5355794206     1.1526019043
    9      C       1.8275332673     1.0978505196     0.3400909065
   10      H       1.4255694028     1.8502428371     1.0294732839
   11      H       1.9610368199     1.6043484949    -0.6225717684
   12      C       3.2167609446     0.6934568810     0.8561171311
   13      O      -1.8530284030    -0.9201176296     0.8608566100
   14      O      -1.0892859789    -1.4916866983    -1.2440949498
   15      H      -1.1515119730    -2.4095084778     0.0461382689
   16      O      -0.3825087934     0.5027405626    -0.2981347770
   17      O       4.0792282541     1.6115310260     0.8991492086
   18      O       3.4036139891    -0.5011228375     1.2024246922
   19      O      -1.4127076696    -2.2729743575     1.0151810450
 ----------------------------------------------------------------
 Nuclear Repulsion Energy =   644.0103209802 hartrees
 There are       44 alpha and       44 beta electrons
 Discretize the solute cavity surface with Lebedev spheres
	Using 110 Lebedev grid points for each H atom
	Using 110 Lebedev grid points for other atoms
	Atomic van der Waals radii will be scaled by 1.20
 Remove points where switching function is < 1.0e-08
 Keep 1136 surface tesserae and discard 954 interior tesserae
 Molecular Surface Area = 198.485 Angst**2
 Requested basis set is def2-TZVPD
 There are 189 shells and 497 basis functions
 A cutoff of  1.0D-14 yielded  15996 shell pairs
 There are    110528 function pairs (    140763 Cartesian)
 Smallest overlap matrix eigenvalue = 3.39E-06
 Guess MOs from SCF MO coefficient file
 Reading MOs from coefficient file
 Reading MOs from coefficient file
 Long-range K will be added via erf
 Coulomb attenuation parameter = 0.3 bohr**(-1)
 A restricted hybrid HF-DFT SCF calculation will be
 performed using Pulay DIIS extrapolation
 Polarizable Continuum solvation model will be applied
 Exchange:     0.1670 Hartree-Fock + 1.0000 wB97X-V + LR-HF
 Correlation:  1.0000 wB97X-V
 Using SG-2 standard quadrature grid
 Nonlocal Correlation:  VV10 with C = 0.0100 and b = 6.00
 Grid used for NLC:  SG-1 standard quadrature
 SCF converges when DIIS error is below 1.0E-08
Using Q-Chem read-in guess as SCF_GUESS READ specified.

 using 16 threads for integral computing
 -------------------------------------------------------
 OpenMP Integral computing Module                
 Release: version 1.0, May 2013, Q-Chem Inc. Pittsburgh 
 -------------------------------------------------------
 using 16 threads for integral computing
 -------------------------------------------------------
 OpenMP Integral computing Module                
 Release: version 1.0, May 2013, Q-Chem Inc. Pittsburgh 
 -------------------------------------------------------
 -------------------------------------------------------
 OpenMP BLAS3 based DFT computing Module                
 Release: version 1.0, May 2013, Q-Chem Inc. Pittsburgh 
 -------------------------------------------------------
 -------------------------------------------------------
 OpenMP BLAS3 based DFT computing Module                
 Release: version 1.0, May 2013, Q-Chem Inc. Pittsburgh 
 -------------------------------------------------------
 -------------------------------------------------------
 OpenMP BLAS3 based DFT computing Module                
 Release: version 1.0, May 2013, Q-Chem Inc. Pittsburgh 
 -------------------------------------------------------
 ---------------------------------------
  Cycle       Energy         DIIS Error
 ---------------------------------------
    1    -646.6718783658      2.73E-04
    2    -646.9617492839      2.77E-04
    3    -646.9652748754      1.31E-04
    4    -646.9658661921      9.79E-05
    5    -646.9662378906      7.49E-05
    6    -646.9664539501      5.82E-05
    7    -646.9666277008      3.99E-05
    8    -646.9667313772      2.29E-05
    9    -646.9667772566      7.10E-06
   10    -646.9667817384      1.99E-06
   11    -646.9667821031      3.39E-07
   12    -646.9667821132      7.31E-08
   13    -646.9667821137      1.03E-08
   14    -646.9667821137      8.23E-09 Convergence criterion met
 ---------------------------------------

************** Final PCM Free Energy Summary **************
 G_electrostatic  =      -0.29468902 hartree =    -184.92014805 kcal/mol
 G_cavitation     =       0.00000000 hartree =       0.00000000 kcal/mol
 G_dispersion     =       0.00000000 hartree =       0.00000000 kcal/mol
 G_repulsion      =       0.00000000 hartree =       0.00000000 kcal/mol
 --------------------------------------------------
 Non-electrostatic Free Energy =       0.00000000 hartree =       0.00000000 kcal/mol
 Total                         =      -0.29468902 hartree =    -184.92014805 kcal/mol
 --------------------------------------------------
 SCF Energy (H0 + V/2)                       =    -646.96678211 
 Solute Internal Energy (H0)                 =    -646.67209310 
 Total Free Energy (H0 + V/2 + non-elec)     =    -646.96678211 hartree
                                             = -405977.78319872 kcal/mol
***********************************************************

 SCF time:  CPU 4487.36 s  wall 316.15 s
 SCF   energy in the final basis set = -646.96678211
 Total energy in the final basis set = -646.96678211
 
 --------------------------------------------------------------
 
                    Orbital Energies (a.u.)
 --------------------------------------------------------------
 
 Alpha MOs
 -- Occupied --
-19.228 -19.224 -19.192 -19.140 -19.138 -19.128 -10.377 -10.342
-10.288 -10.246 -10.240  -1.228  -1.149  -1.143  -1.063  -1.049
 -0.970  -0.877  -0.833  -0.739  -0.672  -0.635  -0.601  -0.578
 -0.567  -0.553  -0.529  -0.526  -0.511  -0.505  -0.490  -0.478
 -0.471  -0.455  -0.440  -0.429  -0.415  -0.369  -0.349  -0.345
 -0.340  -0.333  -0.331  -0.314
 -- Virtual --
  0.060   0.072   0.076   0.086   0.097   0.099   0.107   0.112
  0.125   0.126   0.132   0.140   0.143   0.156   0.159   0.163
  0.170   0.172   0.178   0.182   0.184   0.191   0.209   0.211
  0.217   0.228   0.239   0.241   0.246   0.246   0.252   0.268
  0.272   0.276   0.278   0.282   0.291   0.295   0.301   0.304
  0.313   0.318   0.322   0.326   0.331   0.338   0.342   0.351
  0.359   0.364   0.369   0.370   0.376   0.381   0.386   0.394
  0.399   0.403   0.410   0.411   0.413   0.419   0.420   0.431
  0.434   0.441   0.444   0.447   0.455   0.456   0.463   0.471
  0.475   0.479   0.484   0.490   0.499   0.504   0.505   0.514
  0.517   0.525   0.529   0.534   0.547   0.550   0.554   0.556
  0.563   0.570   0.572   0.583   0.590   0.592   0.598   0.603
  0.612   0.616   0.625   0.629   0.635   0.650   0.654   0.659
  0.663   0.667   0.672   0.685   0.687   0.703   0.720   0.722
  0.726   0.735   0.737   0.744   0.745   0.760   0.768   0.775
  0.784   0.785   0.789   0.791   0.805   0.809   0.812   0.818
  0.827   0.833   0.833   0.840   0.843   0.858   0.862   0.870
  0.871   0.875   0.886   0.899   0.907   0.915   0.918   0.920
  0.931   0.937   0.950   0.957   0.966   0.981   0.985   1.005
  1.016   1.030   1.036   1.043   1.054   1.067   1.082   1.088
  1.100   1.114   1.129   1.134   1.144   1.164   1.172   1.184
  1.187   1.200   1.210   1.216   1.239   1.247   1.263   1.277
  1.279   1.298   1.313   1.331   1.334   1.341   1.350   1.375
  1.386   1.393   1.405   1.423   1.439   1.451   1.462   1.474
  1.486   1.496   1.515   1.542   1.557   1.573   1.589   1.618
  1.631   1.655   1.702   1.745   1.762   1.771   1.801   1.833
  1.835   1.879   1.895   1.916   1.928   1.941   1.948   1.965
  1.970   1.980   1.990   2.000   2.008   2.019   2.022   2.037
  2.051   2.057   2.067   2.092   2.107   2.140   2.175   2.185
  2.196   2.217   2.227   2.243   2.249   2.268   2.279   2.288
  2.314   2.335   2.339   2.360   2.367   2.386   2.389   2.429
  2.437   2.467   2.480   2.486   2.501   2.516   2.530   2.538
  2.587   2.589   2.636   2.644   2.649   2.655   2.687   2.696
  2.721   2.727   2.744   2.762   2.777   2.780   2.823   2.854
  2.877   2.892   2.918   2.935   2.941   2.959   2.973   2.978
  2.984   3.022   3.038   3.056   3.071   3.089   3.093   3.120
  3.133   3.146   3.196   3.211   3.220   3.244   3.263   3.266
  3.297   3.317   3.329   3.365   3.369   3.376   3.393   3.399
  3.441   3.452   3.463   3.479   3.496   3.499   3.522   3.537
  3.538   3.555   3.576   3.583   3.585   3.613   3.624   3.650
  3.659   3.670   3.678   3.694   3.705   3.721   3.734   3.735
  3.743   3.764   3.776   3.795   3.803   3.838   3.866   3.880
  3.904   3.945   3.976   3.992   4.059   4.077   4.099   4.121
  4.160   4.185   4.203   4.221   4.256   4.271   4.334   4.422
  4.431   4.538   4.615   4.627   4.639   4.662   4.700   4.721
  4.784   4.813   4.826   4.866   4.888   4.924   4.964   5.010
  5.057   5.133   5.143   5.207   5.227   5.273   5.324   5.351
  5.360   5.374   5.379   5.388   5.482   5.503   5.525   5.555
  5.578   5.609   5.663   5.694   5.713   5.725   5.737   5.767
  5.778   5.820   5.956   6.004   6.049   6.099   6.100   6.211
  6.239   6.251   6.312   6.321   6.339   6.408   6.431   6.503
  6.569   6.615   6.628   6.638   6.667   6.682   6.700   6.748
  6.769   6.775   6.809   6.832   6.949   6.959   6.969   6.981
  7.041   7.052   7.106   7.113   7.156   7.213   7.256   7.261
  7.334   7.363   7.398   7.408   7.414   7.529   7.595   7.678
  7.732   8.334  22.692  22.860  22.949  23.215  23.737  44.230
 44.269  44.436  44.515  44.699  44.725
 --------------------------------------------------------------
 
          Ground-State Mulliken Net Atomic Charges

     Atom                 Charge (a.u.)
  ----------------------------------------
      1 C                    -1.166013
      2 H                     0.226767
      3 H                     0.249147
      4 H                     0.245870
      5 C                     0.779838
      6 C                    -0.200777
      7 H                     0.167844
      8 H                     0.191425
      9 C                    -0.077160
     10 H                     0.228149
     11 H                     0.244446
     12 C                     0.042968
     13 O                    -0.305559
     14 O                    -0.912822
     15 H                     0.370265
     16 O                    -0.268896
     17 O                    -0.710834
     18 O                    -0.691431
     19 O                    -0.413226
  ----------------------------------------
  Sum of atomic charges =    -2.000000

 -----------------------------------------------------------------
                    Cartesian Multipole Moments
 -----------------------------------------------------------------
    Charge (ESU x 10^10)
                -9.6064
    Dipole Moment (Debye)
         X     -12.8874      Y       3.7059      Z      -4.9391
       Tot      14.2903
    Quadrupole Moments (Debye-Ang)
        XX    -158.0726     XY     -22.5811     YY     -92.7783
        XZ     -20.1234     YZ      -1.1701     ZZ     -85.6748
    Octopole Moments (Debye-Ang^2)
       XXX    -393.8714    XXY     -37.4901    XYY     -49.5103
       YYY      28.4893    XXZ    -110.0715    XYZ     -12.2772
       YYZ     -24.0132    XZZ     -38.1960    YZZ      26.7076
       ZZZ     -39.9673
    Hexadecapole Moments (Debye-Ang^3)
      XXXX   -3728.0247   XXXY    -594.1003   XXYY    -701.1213
      XYYY    -383.0199   YYYY    -696.8039   XXXZ    -606.8613
      XXYZ     -40.5586   XYYZ    -118.2421   YYYZ      -1.8140
      XXZZ    -575.0377   XYZZ    -120.2099   YYZZ    -211.3632
      XZZZ    -293.8838   YZZZ     -12.3001   ZZZZ    -426.3813
 -----------------------------------------------------------------
 Calculating analytic gradient of the SCF energy
 Gradient of SCF Energy
            1           2           3           4           5           6
    1  -0.1173129   0.0164007  -0.0214847   0.0611398   0.1129666   0.0507357
    2   0.0190105  -0.0500232  -0.0321307   0.0481342   0.0334596  -0.1014395
    3  -0.0535345  -0.0528418   0.0655990   0.0134172   0.0664888   0.0343916
            7           8           9          10          11          12
    1  -0.0216799   0.0155930  -0.0394811   0.0226824  -0.0107654   0.0389949
    2   0.0539467   0.0382364   0.0631134  -0.0354503  -0.0205322  -0.0115770
    3   0.0389799  -0.0607065  -0.0258740  -0.0468348   0.0595556   0.0180183
           13          14          15          16          17          18
    1  -0.0223835  -0.0213678  -0.0151316  -0.0091925  -0.0440273  -0.0148587
    2   0.0265093   0.0025929   0.0106148  -0.0131330  -0.0343217   0.0524626
    3  -0.0180450  -0.0172915   0.0456127  -0.0014786  -0.0052309  -0.0170888
           19
    1   0.0191723
    2  -0.0494729
    3  -0.0431367
 Max gradient component =       1.173E-01
 RMS gradient           =       4.383E-02
 Computing fast CPCM-ISWIG gradient
 Updating gradient with PCM contributions...
 -- total gradient after adding PCM contribution --
---------------------------------------------------
  Atom         X              Y              Z     
---------------------------------------------------
   1       0.000079       0.001020       0.000033
   2       0.000097      -0.000326      -0.000243
   3      -0.000054      -0.000178       0.000203
   4      -0.000233      -0.000277      -0.000050
   5       0.000131      -0.000157      -0.000055
   6      -0.000010      -0.000004       0.000021
   7      -0.000001       0.000004      -0.000005
   8       0.000004       0.000002      -0.000002
   9      -0.000050       0.000010      -0.000019
  10       0.000004       0.000002       0.000002
  11       0.000014      -0.000010       0.000005
  12       0.000024      -0.000013       0.000004
  13       0.000003      -0.000080       0.000111
  14       0.000062      -0.000050       0.000022
  15       0.000005      -0.000022      -0.000008
  16      -0.000060       0.000001      -0.000021
  17      -0.000005      -0.000003       0.000013
  18      -0.000002       0.000017       0.000006
  19      -0.000009       0.000063      -0.000017
---------------------------------------------------
 Number of fixed atoms: 0
 Gradient time:  CPU 1104.86 s  wall 79.41 s
 ----------------------------------------------------------------
             Standard Nuclear Orientation (Angstroms)
    I     Atom           X                Y                Z
 ----------------------------------------------------------------
    1      C      -2.6158626764     0.3692193368    -1.0076411029
    2      H      -2.8948818871     1.1307089350    -0.2726376553
    3      H      -2.3506549015     0.8662256196    -1.9453375509
    4      H      -3.4666048186    -0.2923183482    -1.1805715615
    5      C      -1.4295422973    -0.4554090847    -0.5228888643
    6      C       0.8383073015    -0.0417239919     0.1890038944
    7      H       1.2212162722    -0.7935236769    -0.5099123416
    8      H       0.6676366364    -0.5355794206     1.1526019043
    9      C       1.8275332673     1.0978505196     0.3400909065
   10      H       1.4255694028     1.8502428371     1.0294732839
   11      H       1.9610368199     1.6043484949    -0.6225717684
   12      C       3.2167609446     0.6934568810     0.8561171311
   13      O      -1.8530284030    -0.9201176296     0.8608566100
   14      O      -1.0892859789    -1.4916866983    -1.2440949498
   15      H      -1.1515119730    -2.4095084778     0.0461382689
   16      O      -0.3825087934     0.5027405626    -0.2981347770
   17      O       4.0792282541     1.6115310260     0.8991492086
   18      O       3.4036139891    -0.5011228375     1.2024246922
   19      O      -1.4127076696    -2.2729743575     1.0151810450
 ----------------------------------------------------------------
 Nuclear Repulsion Energy =   644.0307923261 hartrees
 There are       44 alpha and       44 beta electrons
 Discretize the solute cavity surface with Lebedev spheres
	Using 110 Lebedev grid points for each H atom
	Using 110 Lebedev grid points for other atoms
	Atomic van der Waals radii will be scaled by 1.20
 Remove points where switching function is < 1.0e-08
 Keep 1136 surface tesserae and discard 954 interior tesserae
 Molecular Surface Area = 198.474 Angst**2
 Requested basis set is def2-TZVPD
 There are 189 shells and 497 basis functions
 A cutoff of  1.0D-14 yielded  15996 shell pairs
 There are    110528 function pairs (    140763 Cartesian)
 Smallest overlap matrix eigenvalue = 3.38E-06
 Guess MOs from SCF MO coefficient file
 Reading MOs from coefficient file
 Reading MOs from coefficient file
 Long-range K will be added via erf
 Coulomb attenuation parameter = 0.3 bohr**(-1)
 A restricted hybrid HF-DFT SCF calculation will be
 performed using Pulay DIIS extrapolation
 Polarizable Continuum solvation model will be applied
 Exchange:     0.1670 Hartree-Fock + 1.0000 wB97X-V + LR-HF
 Correlation:  1.0000 wB97X-V
 Using SG-2 standard quadrature grid
 Nonlocal Correlation:  VV10 with C = 0.0100 and b = 6.00
 Grid used for NLC:  SG-1 standard quadrature
 SCF converges when DIIS error is below 1.0E-08
Using Q-Chem read-in guess as SCF_GUESS READ specified.

 using 16 threads for integral computing
 -------------------------------------------------------
 OpenMP Integral computing Module                
 Release: version 1.0, May 2013, Q-Chem Inc. Pittsburgh 
 -------------------------------------------------------
 using 16 threads for integral computing
 -------------------------------------------------------
 OpenMP Integral computing Module                
 Release: version 1.0, May 2013, Q-Chem Inc. Pittsburgh 
 -------------------------------------------------------
 -------------------------------------------------------
 OpenMP BLAS3 based DFT computing Module                
 Release: version 1.0, May 2013, Q-Chem Inc. Pittsburgh 
 -------------------------------------------------------
 -------------------------------------------------------
 OpenMP BLAS3 based DFT computing Module                
 Release: version 1.0, May 2013, Q-Chem Inc. Pittsburgh 
 -------------------------------------------------------
 -------------------------------------------------------
 OpenMP BLAS3 based DFT computing Module                
 Release: version 1.0, May 2013, Q-Chem Inc. Pittsburgh 
 -------------------------------------------------------
 ---------------------------------------
  Cycle       Energy         DIIS Error
 ---------------------------------------
    1    -646.6718532570      2.74E-04
    2    -646.9617312302      2.78E-04
    3    -646.9652727887      1.31E-04
    4    -646.9658673306      9.79E-05
    5    -646.9662469244      7.43E-05
    6    -646.9664780939      5.60E-05
    7    -646.9666700501      3.40E-05
    8    -646.9667571245      1.60E-05
    9    -646.9667807276      3.56E-06
   10    -646.9667818749      8.81E-07
   11    -646.9667819450      1.50E-07
   12    -646.9667819469      3.55E-08
   13    -646.9667819470      1.22E-08
   14    -646.9667819470      5.43E-09 Convergence criterion met
 ---------------------------------------

************** Final PCM Free Energy Summary **************
 G_electrostatic  =      -0.29469890 hartree =    -184.92635059 kcal/mol
 G_cavitation     =       0.00000000 hartree =       0.00000000 kcal/mol
 G_dispersion     =       0.00000000 hartree =       0.00000000 kcal/mol
 G_repulsion      =       0.00000000 hartree =       0.00000000 kcal/mol
 --------------------------------------------------
 Non-electrostatic Free Energy =       0.00000000 hartree =       0.00000000 kcal/mol
 Total                         =      -0.29469890 hartree =    -184.92635059 kcal/mol
 --------------------------------------------------
 SCF Energy (H0 + V/2)                       =    -646.96678195 
 Solute Internal Energy (H0)                 =    -646.67208305 
 Total Free Energy (H0 + V/2 + non-elec)     =    -646.96678195 hartree
                                             = -405977.78309411 kcal/mol
***********************************************************

 SCF time:  CPU 4482.34 s  wall 316.22 s
 SCF   energy in the final basis set = -646.96678195
 Total energy in the final basis set = -646.96678195
 
 --------------------------------------------------------------
 
                    Orbital Energies (a.u.)
 --------------------------------------------------------------
 
 Alpha MOs
 -- Occupied --
-19.228 -19.224 -19.192 -19.140 -19.138 -19.128 -10.377 -10.342
-10.288 -10.246 -10.240  -1.228  -1.149  -1.143  -1.064  -1.049
 -0.970  -0.877  -0.833  -0.739  -0.672  -0.635  -0.601  -0.578
 -0.567  -0.553  -0.529  -0.526  -0.511  -0.505  -0.490  -0.478
 -0.471  -0.455  -0.440  -0.429  -0.415  -0.369  -0.349  -0.345
 -0.340  -0.333  -0.331  -0.314
 -- Virtual --
  0.060   0.072   0.076   0.086   0.097   0.099   0.107   0.112
  0.125   0.126   0.132   0.140   0.143   0.156   0.159   0.163
  0.170   0.172   0.178   0.182   0.184   0.191   0.209   0.211
  0.217   0.228   0.239   0.241   0.246   0.246   0.252   0.268
  0.272   0.276   0.278   0.282   0.291   0.295   0.301   0.304
  0.313   0.318   0.322   0.326   0.331   0.338   0.342   0.351
  0.359   0.364   0.369   0.370   0.376   0.381   0.386   0.394
  0.399   0.403   0.410   0.411   0.413   0.419   0.420   0.431
  0.434   0.441   0.444   0.447   0.455   0.456   0.463   0.471
  0.475   0.479   0.484   0.490   0.499   0.504   0.505   0.514
  0.517   0.525   0.529   0.534   0.547   0.550   0.554   0.556
  0.563   0.570   0.572   0.583   0.590   0.592   0.598   0.603
  0.612   0.616   0.625   0.629   0.635   0.650   0.654   0.659
  0.663   0.667   0.672   0.686   0.687   0.703   0.720   0.722
  0.726   0.735   0.737   0.744   0.745   0.760   0.768   0.775
  0.784   0.785   0.789   0.791   0.805   0.809   0.812   0.818
  0.827   0.833   0.833   0.840   0.843   0.858   0.862   0.870
  0.871   0.875   0.886   0.899   0.907   0.915   0.918   0.920
  0.931   0.937   0.950   0.957   0.967   0.981   0.985   1.005
  1.016   1.030   1.036   1.043   1.054   1.067   1.082   1.088
  1.100   1.114   1.129   1.134   1.144   1.164   1.172   1.184
  1.187   1.200   1.210   1.216   1.239   1.247   1.263   1.277
  1.279   1.298   1.313   1.331   1.334   1.341   1.350   1.375
  1.386   1.393   1.405   1.423   1.439   1.451   1.462   1.474
  1.486   1.496   1.516   1.542   1.557   1.573   1.590   1.618
  1.632   1.655   1.702   1.745   1.762   1.771   1.801   1.833
  1.835   1.879   1.895   1.916   1.928   1.941   1.948   1.965
  1.970   1.980   1.990   2.000   2.008   2.019   2.022   2.037
  2.051   2.057   2.067   2.092   2.107   2.140   2.175   2.185
  2.196   2.217   2.227   2.243   2.249   2.268   2.279   2.288
  2.315   2.335   2.339   2.360   2.367   2.386   2.389   2.429
  2.437   2.467   2.479   2.486   2.501   2.516   2.530   2.537
  2.587   2.589   2.637   2.644   2.649   2.655   2.687   2.696
  2.722   2.727   2.744   2.762   2.777   2.780   2.823   2.854
  2.877   2.892   2.918   2.935   2.941   2.959   2.972   2.978
  2.984   3.022   3.038   3.056   3.071   3.089   3.093   3.121
  3.133   3.146   3.196   3.211   3.220   3.244   3.263   3.266
  3.297   3.317   3.329   3.365   3.369   3.377   3.393   3.398
  3.441   3.452   3.463   3.479   3.496   3.499   3.522   3.537
  3.538   3.555   3.576   3.583   3.585   3.613   3.624   3.650
  3.659   3.670   3.678   3.694   3.705   3.721   3.734   3.735
  3.743   3.764   3.776   3.795   3.803   3.838   3.866   3.880
  3.904   3.945   3.976   3.993   4.059   4.077   4.099   4.121
  4.160   4.185   4.204   4.222   4.257   4.271   4.334   4.422
  4.431   4.538   4.615   4.628   4.638   4.662   4.700   4.721
  4.785   4.813   4.826   4.866   4.888   4.924   4.964   5.011
  5.057   5.133   5.143   5.208   5.227   5.274   5.324   5.351
  5.360   5.374   5.379   5.388   5.482   5.503   5.525   5.555
  5.578   5.609   5.663   5.694   5.713   5.725   5.737   5.767
  5.778   5.821   5.956   6.004   6.049   6.099   6.100   6.211
  6.239   6.251   6.312   6.321   6.339   6.408   6.431   6.504
  6.569   6.615   6.628   6.638   6.667   6.682   6.700   6.748
  6.769   6.775   6.809   6.832   6.949   6.959   6.969   6.982
  7.041   7.052   7.106   7.113   7.156   7.213   7.256   7.261
  7.334   7.363   7.398   7.408   7.414   7.529   7.595   7.678
  7.732   8.334  22.692  22.860  22.949  23.216  23.737  44.230
 44.269  44.436  44.515  44.699  44.725
 --------------------------------------------------------------
 
          Ground-State Mulliken Net Atomic Charges

     Atom                 Charge (a.u.)
  ----------------------------------------
      1 C                    -1.167812
      2 H                     0.226090
      3 H                     0.248701
      4 H                     0.246594
      5 C                     0.782171
      6 C                    -0.200720
      7 H                     0.167889
      8 H                     0.191464
      9 C                    -0.077143
     10 H                     0.228189
     11 H                     0.244488
     12 C                     0.042945
     13 O                    -0.305607
     14 O                    -0.912957
     15 H                     0.370264
     16 O                    -0.269068
     17 O                    -0.710828
     18 O                    -0.691430
     19 O                    -0.413230
  ----------------------------------------
  Sum of atomic charges =    -2.000000

 -----------------------------------------------------------------
                    Cartesian Multipole Moments
 -----------------------------------------------------------------
    Charge (ESU x 10^10)
                -9.6064
[...]
 Red. Mass:       3.4769                 2.7922                 2.7562
 IR Active:          YES                    YES                    YES
 IR Intens:      184.131                 45.430                288.906
 Raman Active:       YES                    YES                    YES
               X      Y      Z        X      Y      Z        X      Y      Z
 C         -0.105 -0.069  0.092    0.035  0.030 -0.014   -0.103 -0.072 -0.115
 H          0.007  0.236 -0.190   -0.065 -0.057  0.036    0.322 -0.065  0.075
 H          0.483 -0.244  0.151   -0.135  0.027 -0.058   -0.134  0.361  0.096
 H         -0.238  0.225 -0.330    0.120 -0.112  0.098   -0.522  0.455 -0.055
 C          0.064  0.020 -0.149   -0.061 -0.026  0.032    0.248  0.082  0.221
 C         -0.239  0.082 -0.097   -0.111 -0.243 -0.004   -0.023 -0.007 -0.001
 H         -0.189  0.029 -0.043   -0.297 -0.319 -0.037   -0.188 -0.007 -0.081
 H         -0.188  0.059 -0.078   -0.310 -0.304 -0.061   -0.150 -0.039 -0.045
 C         -0.010  0.003  0.004    0.093  0.250 -0.007    0.010  0.018 -0.004
 H          0.170  0.092  0.018    0.306  0.322  0.043    0.066  0.027  0.021
 H          0.208  0.083  0.071    0.300  0.314  0.052    0.025  0.028  0.004
 C         -0.004 -0.005 -0.005   -0.013 -0.003 -0.010    0.002  0.001  0.006
 O         -0.015  0.029 -0.006    0.001 -0.010  0.012   -0.011 -0.023 -0.009
 O         -0.019  0.018  0.056    0.017 -0.023 -0.024   -0.029 -0.033 -0.067
 H          0.011 -0.038  0.026   -0.003 -0.002 -0.004    0.059  0.105 -0.029
 O          0.217 -0.099  0.103    0.047  0.054  0.006   -0.013 -0.026 -0.013
 O          0.015  0.015  0.002   -0.029 -0.007 -0.006   -0.004 -0.005 -0.001
 O         -0.004  0.003 -0.001    0.013 -0.019  0.010    0.001  0.005 -0.002
 O          0.009 -0.018 -0.014   -0.001  0.008  0.001   -0.012  0.010  0.012
 TransDip  -0.284  0.003 -0.329   -0.209 -0.051  0.015    0.362  0.278  0.297

 Mode:                31                     32                     33
 Frequency:      1225.46                1288.22                1301.02
 Force Cnst:      1.0689                 1.4806                 1.0973
 Red. Mass:       1.2080                 1.5143                 1.1003
 IR Active:          YES                    YES                    YES
 IR Intens:        2.629                 20.699                  0.084
 Raman Active:       YES                    YES                    YES
               X      Y      Z        X      Y      Z        X      Y      Z
 C          0.001  0.001  0.001    0.000 -0.005 -0.004    0.000 -0.001 -0.001
 H          0.001  0.001 -0.000    0.028 -0.008  0.011   -0.006  0.001 -0.004
 H         -0.000 -0.005 -0.002    0.016  0.013  0.010   -0.008  0.007  0.000
 H          0.007 -0.005  0.001   -0.003 -0.003  0.014   -0.008  0.009 -0.001
 C         -0.002 -0.001 -0.002   -0.005  0.034  0.016    0.005 -0.002  0.004
 C         -0.035  0.014  0.100   -0.017 -0.044  0.001   -0.020  0.007  0.050
 H         -0.469  0.158 -0.284    0.363  0.056  0.104    0.479  0.190  0.119
 H          0.528 -0.192  0.100    0.335  0.057  0.114   -0.452 -0.197 -0.136
 C         -0.001  0.002  0.003   -0.156 -0.050 -0.044    0.026 -0.007 -0.057
 H         -0.376 -0.109 -0.093    0.525  0.086  0.201   -0.424 -0.235 -0.070
 H          0.378  0.116  0.119    0.574  0.087  0.133    0.375  0.234  0.118
 C          0.015 -0.013 -0.049   -0.049 -0.009 -0.008    0.008 -0.007 -0.027
 O         -0.001 -0.003  0.002    0.001 -0.009  0.000   -0.000  0.001 -0.001
 O          0.002  0.004  0.003    0.004 -0.020 -0.016   -0.001 -0.000 -0.001
 H          0.001 -0.003  0.002   -0.011  0.041 -0.018    0.001  0.005 -0.003
 O          0.016 -0.008 -0.049   -0.006  0.036 -0.007   -0.007  0.003  0.018
 O         -0.001  0.003  0.008    0.058  0.047  0.005   -0.001  0.001  0.003
 O         -0.003  0.003  0.007    0.001 -0.019  0.004   -0.001  0.002  0.003
 O         -0.001  0.001 -0.000   -0.002 -0.000  0.007    0.000  0.000  0.000
 TransDip  -0.019 -0.025  0.041   -0.120 -0.073  0.039    0.005  0.003 -0.007

 Mode:                34                     35                     36
 Frequency:      1333.84                1401.60                1412.72
 Force Cnst:      2.6831                 1.8462                 1.9390
 Red. Mass:       2.5596                 1.5951                 1.6490
 IR Active:          YES                    YES                    YES
 IR Intens:      310.517                108.069                 94.758
 Raman Active:       YES                    YES                    YES
               X      Y      Z        X      Y      Z        X      Y      Z
 C         -0.051  0.003 -0.039    0.098 -0.076  0.041   -0.096  0.063 -0.041
 H          0.407 -0.146  0.276   -0.255  0.119 -0.284    0.236 -0.070  0.220
 H          0.445 -0.086  0.073   -0.366  0.178  0.038    0.325 -0.103 -0.008
 H          0.186 -0.327  0.186   -0.187  0.326 -0.106    0.149 -0.285  0.104
 C         -0.164  0.249  0.044   -0.053  0.078  0.000    0.094 -0.064  0.016
 C         -0.021  0.034 -0.011   -0.104 -0.035 -0.030   -0.109 -0.056 -0.029
 H         -0.018  0.050 -0.022    0.374  0.057  0.126    0.432  0.033  0.162
 H         -0.035  0.039 -0.012    0.411  0.068  0.119    0.461  0.039  0.128
 C          0.023 -0.006  0.006    0.058  0.000  0.021    0.059 -0.002  0.021
 H         -0.096 -0.032 -0.034   -0.123  0.061 -0.140   -0.101  0.115 -0.185
 H         -0.086 -0.019 -0.016   -0.192  0.074  0.016   -0.193  0.141  0.051
 C          0.017 -0.003  0.005    0.056 -0.002  0.017    0.051  0.002  0.014
 O          0.030 -0.058 -0.014    0.009 -0.018 -0.007   -0.013  0.015  0.010
 O          0.051 -0.107 -0.077    0.013 -0.028 -0.020   -0.016  0.017  0.012
 H         -0.129  0.386 -0.171   -0.058  0.178 -0.075    0.060 -0.181  0.076
 O          0.049 -0.032  0.017    0.008  0.013 -0.000   -0.019  0.032 -0.010
 O         -0.011 -0.010 -0.001   -0.035 -0.028 -0.004   -0.033 -0.027 -0.003
 O         -0.003  0.011 -0.003   -0.008  0.026 -0.009   -0.007  0.020 -0.007
 O         -0.013 -0.004  0.056   -0.004 -0.005  0.022    0.003  0.005 -0.022
 TransDip  -0.149  0.541  0.064   -0.115  0.307 -0.058    0.236 -0.182  0.093

 Mode:                37                     38                     39
 Frequency:      1438.33                1459.11                1465.73
 Force Cnst:      5.2812                 1.6258                 1.3292
 Red. Mass:       4.3328                 1.2961                 1.0501
 IR Active:          YES                    YES                    YES
 IR Intens:      382.223                 34.306                 14.777
 Raman Active:       YES                    YES                    YES
               X      Y      Z        X      Y      Z        X      Y      Z
 C         -0.002  0.011 -0.002    0.008  0.002  0.002    0.012 -0.026 -0.047
 H         -0.014 -0.043  0.048   -0.035 -0.041  0.028   -0.357  0.001 -0.192
 H          0.018 -0.055 -0.031   -0.012 -0.049 -0.028    0.396  0.337  0.266
 H          0.002  0.000  0.006   -0.020  0.039 -0.009   -0.156  0.013  0.668
 C         -0.002 -0.020 -0.003   -0.011  0.002 -0.004   -0.007  0.001 -0.019
 C          0.019 -0.005  0.008    0.059  0.027  0.016    0.004  0.002  0.002
 H         -0.064 -0.009 -0.038   -0.148 -0.073  0.010   -0.016 -0.003 -0.003
 H         -0.093 -0.010 -0.011   -0.136 -0.092 -0.079   -0.010 -0.006 -0.005
 C         -0.153  0.070 -0.062   -0.060 -0.091 -0.007   -0.003 -0.001 -0.001
 H          0.140 -0.295  0.495    0.158  0.461 -0.457    0.004  0.005 -0.004
 H          0.380 -0.393 -0.223   -0.082  0.586  0.329    0.002  0.007  0.005
 C          0.362 -0.102  0.137    0.075 -0.007  0.024    0.001 -0.001  0.001
 O         -0.001  0.004  0.002    0.001 -0.001 -0.001   -0.002  0.005  0.005
 O         -0.001  0.006  0.005    0.001  0.001  0.000    0.001 -0.004  0.004
 H          0.013 -0.051  0.020   -0.002  0.013 -0.004    0.032 -0.129  0.051
 O          0.017  0.008  0.005    0.001 -0.005  0.001    0.000 -0.001  0.001
 O         -0.147 -0.120 -0.016   -0.029 -0.026 -0.003   -0.000 -0.000 -0.000
 O         -0.060  0.189 -0.064   -0.010  0.028 -0.010   -0.000  0.001 -0.000
 O          0.001  0.001 -0.005   -0.000 -0.000  0.001    0.002  0.003 -0.011
 TransDip   0.543 -0.229  0.211    0.164  0.087  0.029   -0.017 -0.021  0.120

 Mode:                40                     41                     42
 Frequency:      1468.66                1516.92                1523.36
 Force Cnst:      1.3352                 1.4951                 1.8082
 Red. Mass:       1.0506                 1.1028                 1.3225
 IR Active:          YES                    YES                    YES
 IR Intens:        3.903                 21.229                248.146
 Raman Active:       YES                    YES                    YES
               X      Y      Z        X      Y      Z        X      Y      Z
 C         -0.032 -0.039  0.015    0.005 -0.003  0.002   -0.020  0.015 -0.007
 H          0.390  0.470 -0.348    0.016 -0.005  0.008   -0.033  0.057 -0.057
 H         -0.123  0.472  0.247   -0.023 -0.010 -0.008    0.077  0.077  0.050
 H          0.246 -0.340 -0.117    0.003  0.008 -0.024    0.027 -0.076  0.097
 C         -0.017 -0.015  0.006   -0.016  0.019  0.007    0.049 -0.110 -0.035
 C          0.010  0.004  0.003    0.005 -0.080  0.015    0.002 -0.031  0.005
 H         -0.026 -0.020  0.007    0.047  0.455 -0.504    0.009  0.129 -0.158
 H         -0.025 -0.024 -0.017   -0.222  0.569  0.283   -0.065  0.171  0.091
 C         -0.009 -0.004 -0.002    0.005 -0.007  0.002   -0.002  0.000  0.000
 H          0.016  0.024 -0.017    0.012  0.046 -0.049    0.015  0.021 -0.011
 H          0.007  0.030  0.017   -0.009  0.062  0.034    0.004  0.020  0.011
 C          0.010 -0.002  0.003    0.009  0.011 -0.000    0.006  0.005  0.001
 O         -0.001  0.004  0.004   -0.004  0.008  0.007    0.014 -0.025 -0.026
 O          0.003  0.001  0.000    0.003 -0.009 -0.001   -0.014  0.049  0.012
 H          0.020 -0.083  0.030    0.056 -0.232  0.083   -0.214  0.845 -0.302
 O         -0.000  0.001 -0.001    0.007 -0.005  0.002   -0.004  0.009  0.001
 O         -0.003 -0.003 -0.000   -0.007 -0.006 -0.001   -0.004 -0.004 -0.000
 O         -0.002  0.004 -0.001   -0.000 -0.002  0.001   -0.000 -0.001  0.000
 O          0.001  0.002 -0.007    0.002  0.004 -0.017   -0.007 -0.017  0.058
 TransDip   0.056 -0.001  0.029    0.043  0.050  0.132    0.099  0.143 -0.474

 Mode:                43                     44                     45
 Frequency:      1584.78                2978.95                3048.86
 Force Cnst:     15.0865                 5.5694                 5.7848
 Red. Mass:      10.1953                 1.0652                 1.0562
 IR Active:          YES                    YES                    YES
 IR Intens:     1279.231                675.713                 43.437
 Raman Active:       YES                    YES                    YES
               X      Y      Z        X      Y      Z        X      Y      Z
 C          0.001 -0.002  0.001    0.000 -0.001 -0.004    0.002 -0.002  0.002
 H         -0.002 -0.002 -0.001    0.005 -0.003  0.003   -0.008  0.018  0.018
 H         -0.002 -0.002  0.000   -0.011 -0.011  0.022    0.012  0.021 -0.040
 H         -0.003  0.006 -0.002    0.015  0.013  0.002   -0.027 -0.022 -0.006
 C         -0.004  0.007  0.000   -0.003  0.005  0.008    0.001  0.003  0.000
 C         -0.008  0.031 -0.006    0.001 -0.001 -0.002   -0.006  0.062 -0.012
 H         -0.015 -0.042  0.081   -0.008  0.018  0.018    0.238 -0.458 -0.452
 H          0.032 -0.066 -0.058   -0.002 -0.005  0.006   -0.114 -0.293  0.610
 C         -0.051 -0.050 -0.004   -0.000  0.001 -0.001    0.002 -0.016  0.004
 H          0.188 -0.101  0.199    0.004 -0.007 -0.007   -0.058  0.103  0.099
 H          0.326 -0.136 -0.006   -0.002 -0.006  0.012    0.021  0.071 -0.144
 C          0.205  0.733 -0.115   -0.000 -0.000  0.000   -0.001  0.001 -0.000
 O          0.000  0.000  0.000    0.003 -0.003 -0.005   -0.000 -0.000  0.000
 O          0.001 -0.002 -0.001    0.001 -0.007  0.001    0.000 -0.001 -0.000
 H          0.003 -0.015  0.005   -0.295  0.323  0.896   -0.007  0.005  0.016
 O          0.003 -0.007  0.002    0.000 -0.001 -0.001   -0.003  0.000 -0.001
 O         -0.180 -0.212 -0.004    0.000  0.000 -0.000    0.000 -0.000  0.000
 O          0.035 -0.297  0.082   -0.000  0.000  0.000   -0.000 -0.001 -0.000
 O         -0.000  0.000 -0.001    0.016 -0.013 -0.057    0.001 -0.000 -0.001
 TransDip   0.344  1.082 -0.154   -0.170 -0.083  0.811   -0.137  0.155 -0.042

 Mode:                46                     47                     48
 Frequency:      3055.09                3058.47                3083.15
 Force Cnst:      5.8343                 5.7070                 6.1765
 Red. Mass:       1.0609                 1.0355                 1.1028
 IR Active:          YES                    YES                    YES
 IR Intens:       61.499                 27.202                  8.001
 Raman Active:       YES                    YES                    YES
               X      Y      Z        X      Y      Z        X      Y      Z
 C         -0.001 -0.000 -0.001   -0.035  0.031 -0.015   -0.001  0.000 -0.001
 H          0.001 -0.001 -0.001    0.149 -0.419 -0.415    0.002 -0.005 -0.005
 H         -0.004 -0.006  0.012   -0.153 -0.263  0.507   -0.004 -0.007  0.013
 H          0.011  0.009  0.002    0.399  0.324  0.079    0.010  0.008  0.002
 C          0.000  0.000 -0.000    0.003 -0.002  0.001    0.000  0.000  0.000
 C         -0.001  0.013 -0.009    0.001  0.003 -0.005   -0.023  0.012  0.067
 H          0.042 -0.076 -0.076    0.005 -0.006 -0.007    0.190 -0.386 -0.354
 H         -0.033 -0.088  0.180   -0.012 -0.031  0.061    0.083  0.237 -0.449
 C         -0.016  0.065 -0.006    0.001 -0.002 -0.002    0.016 -0.001 -0.057
 H          0.275 -0.505 -0.482   -0.013  0.025  0.024   -0.140  0.259  0.227
 H         -0.083 -0.271  0.545    0.001  0.001 -0.005   -0.060 -0.245  0.462
 C          0.002  0.001  0.000   -0.000 -0.000 -0.000    0.001  0.000 -0.001
 O         -0.000  0.000  0.000   -0.000  0.000  0.000   -0.000 -0.000 -0.000
 O          0.000  0.000 -0.000   -0.000  0.001  0.000    0.000 -0.000 -0.000
 H          0.005 -0.005 -0.014    0.008 -0.009 -0.023   -0.004  0.005  0.015
 O         -0.000  0.000 -0.000   -0.000  0.000 -0.000   -0.000  0.000  0.000
 O         -0.000 -0.000  0.000    0.000  0.000 -0.000   -0.000 -0.000  0.000
 O         -0.000 -0.000  0.000   -0.000  0.000  0.000    0.000 -0.000 -0.000
 O         -0.000  0.000  0.001   -0.000  0.000  0.001    0.000 -0.000 -0.001
 TransDip  -0.027  0.243 -0.060   -0.102  0.098 -0.090   -0.043  0.040  0.069

 Mode:                49                     50                     51
 Frequency:      3104.32                3135.79                3148.37
 Force Cnst:      6.2761                 6.3907                 6.4466
 Red. Mass:       1.1054                 1.1031                 1.1039
 IR Active:          YES                    YES                    YES
 IR Intens:      100.320                 50.521                 42.330
 Raman Active:       YES                    YES                    YES
               X      Y      Z        X      Y      Z        X      Y      Z
 C          0.001 -0.002  0.001    0.021 -0.023 -0.088   -0.057 -0.074  0.006
 H         -0.007  0.020  0.020   -0.184  0.517  0.493   -0.079  0.182  0.190
 H          0.008  0.014 -0.027   -0.163 -0.307  0.559    0.105  0.196 -0.394
 H         -0.016 -0.013 -0.003    0.092  0.066  0.003    0.656  0.513  0.135
 C         -0.000 -0.000 -0.000    0.000 -0.001 -0.002   -0.001 -0.002  0.000
 C          0.019 -0.008 -0.058    0.000  0.001 -0.000    0.000  0.000  0.000
 H         -0.148  0.308  0.284    0.002 -0.004 -0.004    0.000 -0.001 -0.001
 H         -0.078 -0.209  0.400   -0.002 -0.006  0.011   -0.000  0.001 -0.002
 C          0.021 -0.008 -0.068    0.000 -0.001  0.000   -0.000 -0.000  0.000
 H         -0.188  0.357  0.319   -0.003  0.006  0.006   -0.000  0.001  0.001
 H         -0.069 -0.265  0.492    0.001  0.005 -0.010    0.001  0.003 -0.006
 C          0.000  0.000 -0.001   -0.000  0.000 -0.000   -0.000 -0.000  0.000
 O          0.000  0.000  0.000    0.000  0.000  0.000    0.000  0.000 -0.000
 O         -0.000  0.000  0.000   -0.000  0.000  0.000    0.000  0.000  0.000
 H          0.005 -0.005 -0.016    0.006 -0.005 -0.020    0.001 -0.001 -0.004
 O          0.000  0.000  0.000   -0.000  0.000  0.000    0.000  0.000 -0.000
 O         -0.000 -0.000  0.000    0.000  0.000  0.000    0.000  0.000 -0.000
 O         -0.000 -0.000  0.000    0.000 -0.000  0.000   -0.000 -0.000  0.000
 O         -0.000  0.000  0.001   -0.000  0.000  0.001   -0.000  0.000  0.000
 TransDip   0.107 -0.040 -0.300    0.056 -0.060 -0.212   -0.121 -0.170  0.008

 STANDARD THERMODYNAMIC QUANTITIES AT   298.15 K  AND     1.00 ATM

   This Molecule has  0 Imaginary Frequencies
   Zero point vibrational energy:       86.680 kcal/mol

   Atom    1 Element C  Has Mass   12.00000
   Atom    2 Element H  Has Mass    1.00783
   Atom    3 Element H  Has Mass    1.00783
   Atom    4 Element H  Has Mass    1.00783
   Atom    5 Element C  Has Mass   12.00000
   Atom    6 Element C  Has Mass   12.00000
   Atom    7 Element H  Has Mass    1.00783
   Atom    8 Element H  Has Mass    1.00783
   Atom    9 Element C  Has Mass   12.00000
   Atom   10 Element H  Has Mass    1.00783
   Atom   11 Element H  Has Mass    1.00783
   Atom   12 Element C  Has Mass   12.00000
   Atom   13 Element O  Has Mass   15.99491
   Atom   14 Element O  Has Mass   15.99491
   Atom   15 Element H  Has Mass    1.00783
   Atom   16 Element O  Has Mass   15.99491
   Atom   17 Element O  Has Mass   15.99491
   Atom   18 Element O  Has Mass   15.99491
   Atom   19 Element O  Has Mass   15.99491
   Molecular Mass:   164.032100 amu
   Principal axes and moments of inertia in amu*Bohr^2:
                             1           2           3
    Eigenvalues --      780.90935  3638.61663  4043.48069
          X               0.93319    -0.16457    -0.31948
          Y               0.29930     0.84799     0.43741
          Z               0.19893    -0.50381     0.84060
   Rotational Symmetry Number is   1
   The Molecule is an Asymmetric Top
   Translational Enthalpy:        0.889 kcal/mol
   Rotational Enthalpy:           0.889 kcal/mol
   Vibrational Enthalpy:         92.157 kcal/mol
   gas constant (RT):             0.592 kcal/mol
   Translational Entropy:        41.193  cal/mol.K
   Rotational Entropy:           30.819  cal/mol.K
   Vibrational Entropy:          36.816  cal/mol.K

   Total Enthalpy:               94.527 kcal/mol
   Total Entropy:               108.828  cal/mol.K
Archival summary:
1\1\c5-68\FREQ\ProcedureUnspecified\BasisUnspecified\658(2-,1)\leeping\SatMar2115:22:202020SatMar2115:22:202020\0\\#,FREQ,ProcedureUnspecified,BasisUnspecified,\\-2,1\O\C,1,1.42272\H,2,1.09558,1,110.126\H,2,1.09615,1,109.865,3,-118.619,0\C,1,1.43696,2,115.063,3,58.1809,0\O,5,1.30759,1,115.157,2,-50.8366,0\C,2,1.51658,1,107.834,3,120.719,0\H,7,1.09594,2,109.829,1,-57.8158,0\H,7,1.09678,2,109.818,1,58.6728,0\O,5,1.51988,1,105.337,2,69.7965,0\O,10,1.43106,5,107.547,1,-109.672,0\H,11,1.01287,10,95.9468,5,-10.35,0\C,5,1.52447,1,104.811,2,178.948,0\H,13,1.09207,5,109.148,1,-178.759,0\H,13,1.09345,5,109.245,1,61.9419,0\H,13,1.09381,5,111.185,1,-58.1857,0\C,7,1.53615,2,115.185,1,-179.801,0\O,17,1.25772,7,118.482,2,-5.0815,0\O,17,1.26038,7,116.012,2,175.23,0\\\@

 Total job time:  46391.69s(wall), 655789.78s(cpu) 
 Sat Mar 21 15:22:20 2020

        *************************************************************
        *                                                           *
        *  Thank you very much for using Q-Chem.  Have a nice day.  *
        *                                                           *
        *************************************************************


