19   
From 2-transition-freq.out: Frame 1 / 115, Energy=    -646.9617318174
C       -2.5237682634    0.5754899536   -1.1210217930
H       -2.7032237109    1.4782995569   -0.5309244732
H       -2.1766731270    0.8655965720   -2.1161040086
H       -3.4553037950    0.0137041691   -1.2140733478
C       -1.4812477134   -0.2970435743   -0.4466614428
C        0.8068855115   -0.1182091768    0.2758534937
H        1.0784425244   -1.0462406355   -0.2376690994
H        0.5319856965   -0.3703627160    1.3054564525
C        1.9614106717    0.8635304391    0.2525618454
H        1.6664902417    1.7986097558    0.7423274825
H        2.2093873692    1.1232424470   -0.7833684203
C        3.2471838340    0.3632916503    0.9288779232
O       -1.9428158426   -0.5671102343    0.9087301814
O       -1.2824608705   -1.5007640790   -1.0397259727
H       -1.4062034348   -2.0877202148   -0.0798058029
O       -0.3018358724    0.4959503348   -0.3792452693
O        4.2092671417    1.1762610255    0.9549099004
O        3.2598950214   -0.8018940595    1.4019211878
O       -1.6974153806   -1.9646312094    1.1779611734
