
Running Job 1 of 1 qc-3-tshess.in
qchem qc-3-tshess.in_3050.0 ./qc-3-tshess.d/ 1
/home/leeping/opt/qchem/5.0.2-openmp/exe/qcprog.exe_s qc-3-tshess.in_3050.0 ./qc-3-tshess.d/
Check license passed

                  Welcome to Q-Chem
     A Quantum Leap Into The Future Of Chemistry


 Q-Chem 5.0, Q-Chem, Inc., Pleasanton, CA (2017)

 Yihan Shao,  Zhengting Gan,  E. Epifanovsky,  A. T. B. Gilbert,  M. Wormit,  
 J. Kussmann,  A. W. Lange,  A. Behn,  Jia Deng,  Xintian Feng,  D. Ghosh,  
 M. Goldey,  P. R. Horn,  L. D. Jacobson,  I. Kaliman,  T. Kus,  A. Landau,  
 Jie Liu,  E. I. Proynov,  R. M. Richard,  R. P. Steele,  E. J. Sundstrom,  
 H. L. Woodcock III,  P. M. Zimmerman,  D. Zuev,  B. Albrecht,  E. Alguire,  
 S. A. Baeppler,  D. Barton,  Z. Benda,  Y. A. Bernard,  E. J. Berquist,  
 K. B. Bravaya,  H. Burton,  D. Casanova,  Chun-Min Chang,  Yunqing Chen,  
 A. Chien,  K. D. Closser,  M. P. Coons,  S. Dasgupta,  A. L. Dempwolff,  
 M. Diedenhofen,  Hainam Do,  R. G. Edgar,  Po-Tung Fang,  S. Fatehi,  
 Qingguo Feng,  J. Fosso-Tande,  Qinghui Ge,  A. Ghysels,  G. Gidofalvi,  
 J. Gomes,  J. Gonthier,  A. Gunina,  M. W. D. Hanson-Heine,  
 P. H. P. Harbach,  A. W. Hauser,  J. E. Herr,  E. G. Hohenstein,  
 Z. C. Holden,  Kerwin Hui,  T.-C. Jagau,  Hyunjun Ji,  B. Kaduk,  
 K. Khistyaev,  Jaehoon Kim,  P. Klunzinger,  K. Koh,  D. Kosenkov,  
 L. Koulias,  T. Kowalczyk,  C. M. Krauter,  A. Kunitsa,  Ka Un Lao,  
 A. Laurent,  K. V. Lawler,  Joonho Lee,  D. Lefrancois,  S. Lehtola,  
 D. S. Levine,  Yi-Pei Li,  You-Sheng Lin,  Fenglai Liu,  E. Livshits,  
 A. Luenser,  P. Manohar,  E. Mansoor,  S. F. Manzer,  Shan-Ping Mao,  
 Yuezhi Mao,  N. Mardirossian,  A. V. Marenich,  T. Markovich,  
 L. A. Martinez-Martinez,  S. A. Maurer,  N. J. Mayhall,  S. C. McKenzie,  
 J.-M. Mewes,  A. F. Morrison,  J. W. Mullinax,  K. Nanda,  
 T. S. Nguyen-Beck,  R. Olivares-Amaya,  J. A. Parkhill,  T. M. Perrine,  
 F. Plasser,  S. Prager,  A. Prociuk,  E. Ramos,  D. R. Rehn,  F. Rob,  
 M. Schneider,  N. Sergueev,  S. M. Sharada,  S. Sharma,  D. W. Small,  
 T. Stauch,  T. Stein,  Yu-Chuan Su,  A. J. W. Thom,  A. Tkatchenko,  
 T. Tsuchimochi,  L. Vogt,  O. Vydrov,  M. A. Watson,  J. Wenzel,  
 M. de Wergifosse,  T. A. Wesolowski,  A. White,  J. Witte,  A. Yamada,  
 Jun Yang,  K. Yao,  S. Yeganeh,  S. R. Yost,  Zhi-Qiang You,  A. Zech,  
 Igor Ying Zhang,  Xing Zhang,  Yan Zhao,  Ying Zhu,  B. R. Brooks,  
 G. K. L. Chan,  C. J. Cramer,  M. S. Gordon,  W. J. Hehre,  A. Klamt,  
 M. W. Schmidt,  C. D. Sherrill,  D. G. Truhlar,  A. Aspuru-Guzik,  R. Baer,  
 A. T. Bell,  N. A. Besley,  Jeng-Da Chai,  R. A. DiStasio Jr.,  A. Dreuw,  
 B. D. Dunietz,  T. R. Furlani,  Chao-Ping Hsu,  Yousung Jung,  Jing Kong,  
 D. S. Lambrecht,  WanZhen Liang,  C. Ochsenfeld,  V. A. Rassolov,  
 L. V. Slipchenko,  J. E. Subotnik,  T. Van Voorhis,  J. M. Herbert,  
 A. I. Krylov,  P. M. W. Gill,  M. Head-Gordon

 Contributors to earlier versions of Q-Chem not listed above: 
 R. D. Adamson,  B. Austin,  J. Baker,  G. J. O. Beran,  K. Brandhorst,  
 S. T. Brown,  E. F. C. Byrd,  A. K. Chakraborty,  C.-L. Cheng,  
 Siu Hung Chien,  D. M. Chipman,  D. L. Crittenden,  H. Dachsel,  
 R. J. Doerksen,  A. D. Dutoi,  L. Fusti-Molnar,  W. A. Goddard III,  
 A. Golubeva-Zadorozhnaya,  S. R. Gwaltney,  G. Hawkins,  A. Heyden,  
 S. Hirata,  G. Kedziora,  F. J. Keil,  C. Kelley,  Jihan Kim,  R. A. King,  
 R. Z. Khaliullin,  P. P. Korambath,  W. Kurlancheek,  A. M. Lee,  M. S. Lee,  
 S. V. Levchenko,  Ching Yeh Lin,  D. Liotard,  R. C. Lochan,  I. Lotan,  
 P. E. Maslen,  N. Nair,  D. P. O'Neill,  D. Neuhauser,  E. Neuscamman,  
 C. M. Oana,  R. Olson,  B. Peters,  R. Peverati,  P. A. Pieniazek,  
 Y. M. Rhee,  J. Ritchie,  M. A. Rohrdanz,  E. Rosta,  N. J. Russ,  
 H. F. Schaefer III,  N. E. Schultz,  N. Shenvi,  A. C. Simmonett,  A. Sodt,  
 D. Stuck,  K. S. Thanthiriwatte,  V. Vanovschi,  Tao Wang,  A. Warshel,  
 C. F. Williams,  Q. Wu,  X. Xu,  W. Zhang

 Please cite Q-Chem as follows:
 Y. Shao et al., Mol. Phys. 113, 184-215 (2015)
 DOI: 10.1080/00268976.2014.952696

 Q-Chem 5.0.2 for Intel X86 EM64T Linux

 Parts of Q-Chem use Armadillo 5.200.1 (Boston Tea Smuggler).
 http://arma.sourceforge.net/

 Q-Chem begins on Sat Mar  7 11:16:59 2020  

Host: 
0

     Scratch files written to ./qc-3-tshess.d//
 Dec517 15110_ 26548  26544 5633   
Processing $rem in /home/leeping/opt/qchem/5.0.2-openmp/config/preferences.
 MEM_STATIC 2000
 MEM_TOTAL  8000
 SYMMETRY   OFF
 SYM_IGNORE TRUE 
Symmetry turned off for PCM/SM12/SMD calculation

Checking the input file for inconsistencies... 	...done.

--------------------------------------------------------------
User input:
--------------------------------------------------------------
$molecule
-2 1
C       -2.5237682634    0.5754899536   -1.1210217930
H       -2.7032237109    1.4782995569   -0.5309244732
H       -2.1766731270    0.8655965720   -2.1161040086
H       -3.4553037950    0.0137041691   -1.2140733478
C       -1.4812477134   -0.2970435743   -0.4466614428
C        0.8068855115   -0.1182091768    0.2758534937
H        1.0784425244   -1.0462406355   -0.2376690994
H        0.5319856965   -0.3703627160    1.3054564525
C        1.9614106717    0.8635304391    0.2525618454
H        1.6664902417    1.7986097558    0.7423274825
H        2.2093873692    1.1232424470   -0.7833684203
C        3.2471838340    0.3632916503    0.9288779232
O       -1.9428158426   -0.5671102343    0.9087301814
O       -1.2824608705   -1.5007640790   -1.0397259727
H       -1.4062034348   -2.0877202148   -0.0798058029
O       -0.3018358724    0.4959503348   -0.3792452693
O        4.2092671417    1.1762610255    0.9549099004
O        3.2598950214   -0.8018940595    1.4019211878
O       -1.6974153806   -1.9646312094    1.1779611734
$end

$rem
jobtype               freq
method                wb97x-v
basis                 def2-tzvpd
symmetry              off
sym_ignore            true
unrestricted          false
incdft                false
incfock               0
!scf_algorithm        diis_gdm
scf_convergence       8
thresh                14
!purecart             112
max_scf_cycles        1000
geom_opt_max_cycles   900
geom_opt_dmax         100
geom_opt_tol_gradient 10
solvent_method        pcm
ideriv                1
rpath_tol_displacement 1000
rpath_max_cycles      100
rpath_direction       1
!scf_guess            read
scf_guess             read
$end

$pcm
theory              cosmo
method              iswig
Radii               bondi
vdwScale            1.20
hpoints             110
heavypoints         110
$end

$solvent
dielectric 78.400000
$end

--------------------------------------------------------------
 ----------------------------------------------------------------
             Standard Nuclear Orientation (Angstroms)
    I     Atom           X                Y                Z
 ----------------------------------------------------------------
    1      C      -2.5237682634     0.5754899536    -1.1210217930
    2      H      -2.7032237109     1.4782995569    -0.5309244732
    3      H      -2.1766731270     0.8655965720    -2.1161040086
    4      H      -3.4553037950     0.0137041691    -1.2140733478
    5      C      -1.4812477134    -0.2970435743    -0.4466614428
    6      C       0.8068855115    -0.1182091768     0.2758534937
    7      H       1.0784425244    -1.0462406355    -0.2376690994
    8      H       0.5319856965    -0.3703627160     1.3054564525
    9      C       1.9614106717     0.8635304391     0.2525618454
   10      H       1.6664902417     1.7986097558     0.7423274825
   11      H       2.2093873692     1.1232424470    -0.7833684203
   12      C       3.2471838340     0.3632916503     0.9288779232
   13      O      -1.9428158426    -0.5671102343     0.9087301814
   14      O      -1.2824608705    -1.5007640790    -1.0397259727
   15      H      -1.4062034348    -2.0877202148    -0.0798058029
   16      O      -0.3018358724     0.4959503348    -0.3792452693
   17      O       4.2092671417     1.1762610255     0.9549099004
   18      O       3.2598950214    -0.8018940595     1.4019211878
   19      O      -1.6974153806    -1.9646312094     1.1779611734
 ----------------------------------------------------------------
 Nuclear Repulsion Energy =   646.5702205060 hartrees
 There are       44 alpha and       44 beta electrons
 Requested basis set is def2-TZVPD
 There are 189 shells and 497 basis functions

 Total QAlloc Memory Limit   8000 MB
 Mega-Array Size      1956 MB
 MEM_STATIC part      2000 MB
 Discretize the solute cavity surface with Lebedev spheres
	Using 110 Lebedev grid points for each H atom
	Using 110 Lebedev grid points for other atoms
	Atomic van der Waals radii will be scaled by 1.20
 Remove points where switching function is < 1.0e-08
 Keep 1102 surface tesserae and discard 988 interior tesserae
 Molecular Surface Area = 198.090 Angst**2
 A cutoff of  1.0D-14 yielded  16007 shell pairs
 There are    110569 function pairs (    140818 Cartesian)
 
 -------------------------------------------------------
 OpenMP Integral Computing Module                       
 Release: version 1.0, May 2013, Q-Chem Inc. Pittsburgh 
 -------------------------------------------------------
 Integral Job Info:
 Integral job number is                      11
 Integral operator is                         1
 short-range coefficients              16700000
 long-range coefficients              100000000
 Omega coefficients                         300
 if combine SR and LR in K                    1
 Integral screening is                        0
 Integral computing path is                   2
 max size of driver memory is            800000
 size of driver memory is                776718
 size of scratch memory is              4473992
 max col of scratch BK array              10000
 max len of scratch array in speh3          662
 max len of scratch index in speh4           32
 max int batch size is                      520
 min int batch size is                       52
 fixed nKL is                                52
 max L of basis functions is                  3
 order of int derivative is                   0
 number of shells is                        189
 number of basis is                         563
 number of cartesian basis is               563
 number of contracted shell pairs         16007
 number of primitive shell pairs          32284
 maxK2 (contraction) of shell pair           36
 max number of K2 of shell pair               1
 max number of CS2 of shell pair           2640
 max number of PS2 of shell pair           3726
 mem total for path MDJ                  820668
 -------------------------------------------------------
 Smallest overlap matrix eigenvalue = 3.23E-06
 Guess MOs from SCF MO coefficient file
 Reading MOs from coefficient file
 Reading MOs from coefficient file
 Long-range K will be added via erf
 Coulomb attenuation parameter = 0.3 bohr**(-1)
 A restricted hybrid HF-DFT SCF calculation will be
 performed using Pulay DIIS extrapolation
 Polarizable Continuum solvation model will be applied
 Exchange:     0.1670 Hartree-Fock + 1.0000 wB97X-V + LR-HF
 Correlation:  1.0000 wB97X-V
 Using SG-2 standard quadrature grid
 Nonlocal Correlation:  VV10 with C = 0.0100 and b = 6.00
 Grid used for NLC:  SG-1 standard quadrature
 SCF converges when DIIS error is below 1.0E-08
Using Q-Chem read-in guess as SCF_GUESS READ specified.

 using 16 threads for integral computing
 -------------------------------------------------------
 OpenMP Integral computing Module                
 Release: version 1.0, May 2013, Q-Chem Inc. Pittsburgh 
 -------------------------------------------------------
 using 16 threads for integral computing
 -------------------------------------------------------
 OpenMP Integral computing Module                
 Release: version 1.0, May 2013, Q-Chem Inc. Pittsburgh 
 -------------------------------------------------------
 -------------------------------------------------------
 OpenMP BLAS3 based DFT computing Module                
 Release: version 1.0, May 2013, Q-Chem Inc. Pittsburgh 
 -------------------------------------------------------
 -------------------------------------------------------
 OpenMP BLAS3 based DFT computing Module                
 Release: version 1.0, May 2013, Q-Chem Inc. Pittsburgh 
 -------------------------------------------------------
 -------------------------------------------------------
 OpenMP BLAS3 based DFT computing Module                
 Release: version 1.0, May 2013, Q-Chem Inc. Pittsburgh 
 -------------------------------------------------------
 ---------------------------------------
  Cycle       Energy         DIIS Error
 ---------------------------------------
    1    -646.6640045464      2.97E-04
    2    -646.9558490994      3.01E-04
    3    -646.9599527318      1.43E-04
    4    -646.9606438207      1.07E-04
    5    -646.9610805823      8.19E-05
    6    -646.9613004982      6.66E-05
    7    -646.9614600343      5.28E-05
    8    -646.9615706543      4.07E-05
    9    -646.9616478892      2.94E-05
   10    -646.9616802650      2.30E-05
   11    -646.9617038263      1.70E-05
   12    -646.9617150788      1.31E-05
   13    -646.9617225359      9.78E-06
   14    -646.9617260647      7.70E-06
   15    -646.9617281341      6.16E-06
   16    -646.9617293952      5.00E-06
   17    -646.9617318174      4.34E-09 Convergence criterion met
 ---------------------------------------

************** Final PCM Free Energy Summary **************
 G_electrostatic  =      -0.29772715 hartree =    -186.82660540 kcal/mol
 G_cavitation     =       0.00000000 hartree =       0.00000000 kcal/mol
 G_dispersion     =       0.00000000 hartree =       0.00000000 kcal/mol
 G_repulsion      =       0.00000000 hartree =       0.00000000 kcal/mol
 --------------------------------------------------
 Non-electrostatic Free Energy =       0.00000000 hartree =       0.00000000 kcal/mol
 Total                         =      -0.29772715 hartree =    -186.82660540 kcal/mol
 --------------------------------------------------
 SCF Energy (H0 + V/2)                       =    -646.96173182 
 Solute Internal Energy (H0)                 =    -646.66400467 
 Total Free Energy (H0 + V/2 + non-elec)     =    -646.96173182 hartree
                                             = -405974.61409001 kcal/mol
***********************************************************

 SCF time:  CPU 5336.94 s  wall 378.46 s
 SCF   energy in the final basis set = -646.96173182
 Total energy in the final basis set = -646.96173182
 
 --------------------------------------------------------------
 
                    Orbital Energies (a.u.)
 --------------------------------------------------------------
 
 Alpha MOs
 -- Occupied --
-19.223 -19.199 -19.177 -19.164 -19.141 -19.138 -10.386 -10.342
-10.291 -10.248 -10.245  -1.223  -1.145  -1.141  -1.085  -1.050
 -0.946  -0.878  -0.836  -0.743  -0.667  -0.633  -0.612  -0.587
 -0.576  -0.562  -0.528  -0.525  -0.510  -0.505  -0.487  -0.481
 -0.461  -0.451  -0.435  -0.426  -0.410  -0.384  -0.363  -0.347
 -0.341  -0.336  -0.331  -0.297
 -- Virtual --
  0.060   0.072   0.076   0.086   0.098   0.099   0.107   0.112
  0.125   0.127   0.132   0.141   0.143   0.155   0.159   0.162
  0.171   0.173   0.180   0.182   0.187   0.191   0.209   0.212
  0.218   0.229   0.237   0.242   0.245   0.249   0.252   0.268
  0.271   0.278   0.279   0.284   0.291   0.294   0.303   0.305
  0.310   0.318   0.328   0.331   0.334   0.339   0.344   0.351
  0.360   0.364   0.369   0.372   0.375   0.382   0.385   0.393
  0.399   0.402   0.408   0.413   0.414   0.420   0.424   0.430
  0.433   0.441   0.444   0.447   0.452   0.455   0.464   0.472
  0.475   0.478   0.484   0.492   0.496   0.506   0.508   0.515
  0.519   0.525   0.529   0.537   0.545   0.550   0.552   0.553
  0.560   0.567   0.570   0.584   0.588   0.591   0.596   0.602
  0.615   0.617   0.624   0.627   0.630   0.645   0.650   0.658
  0.664   0.669   0.675   0.684   0.691   0.700   0.717   0.723
  0.730   0.733   0.739   0.745   0.752   0.759   0.765   0.776
  0.780   0.784   0.788   0.797   0.804   0.807   0.810   0.823
  0.826   0.832   0.836   0.843   0.849   0.857   0.860   0.865
  0.871   0.873   0.885   0.893   0.900   0.913   0.916   0.925
  0.937   0.942   0.952   0.957   0.970   0.981   0.990   1.005
  1.017   1.020   1.035   1.041   1.059   1.070   1.073   1.096
  1.098   1.114   1.130   1.137   1.141   1.162   1.169   1.187
  1.197   1.204   1.212   1.223   1.240   1.259   1.261   1.274
  1.281   1.294   1.309   1.319   1.331   1.334   1.348   1.369
  1.380   1.394   1.404   1.423   1.439   1.452   1.469   1.470
  1.485   1.501   1.513   1.542   1.548   1.563   1.614   1.621
  1.636   1.662   1.707   1.745   1.763   1.769   1.815   1.833
  1.856   1.890   1.901   1.920   1.930   1.941   1.949   1.957
  1.964   1.971   1.984   1.995   2.001   2.011   2.030   2.031
  2.046   2.061   2.082   2.091   2.111   2.167   2.178   2.197
  2.206   2.220   2.233   2.242   2.245   2.274   2.283   2.288
  2.330   2.332   2.342   2.361   2.370   2.388   2.409   2.441
  2.463   2.470   2.481   2.484   2.498   2.503   2.525   2.538
  2.573   2.618   2.624   2.639   2.648   2.655   2.684   2.696
  2.714   2.721   2.726   2.760   2.777   2.780   2.820   2.845
  2.875   2.889   2.907   2.927   2.947   2.955   2.958   2.980
  2.984   3.026   3.043   3.065   3.080   3.091   3.104   3.121
  3.156   3.199   3.231   3.234   3.245   3.251   3.264   3.295
  3.303   3.321   3.353   3.361   3.369   3.374   3.397   3.421
  3.430   3.455   3.460   3.475   3.501   3.515   3.527   3.537
  3.543   3.562   3.574   3.580   3.610   3.614   3.631   3.654
  3.661   3.679   3.683   3.696   3.706   3.727   3.735   3.745
  3.762   3.766   3.778   3.794   3.822   3.864   3.869   3.906
  3.944   3.968   3.973   3.986   4.044   4.086   4.101   4.162
  4.179   4.202   4.223   4.226   4.260   4.272   4.337   4.426
  4.444   4.541   4.618   4.633   4.641   4.653   4.697   4.717
  4.785   4.818   4.827   4.887   4.948   4.955   4.992   5.031
  5.077   5.138   5.143   5.231   5.253   5.284   5.316   5.323
  5.342   5.362   5.374   5.384   5.491   5.505   5.522   5.572
  5.585   5.620   5.671   5.696   5.711   5.726   5.748   5.756
  5.779   5.879   5.945   6.007   6.044   6.104   6.124   6.148
  6.248   6.271   6.314   6.331   6.337   6.390   6.421   6.469
  6.556   6.621   6.631   6.638   6.666   6.691   6.702   6.748
  6.775   6.809   6.854   6.861   6.944   6.962   6.969   7.014
  7.046   7.049   7.097   7.129   7.209   7.230   7.258   7.262
  7.329   7.363   7.409   7.412   7.417   7.554   7.647   7.688
  7.747   8.334  22.692  22.860  22.946  23.146  23.739  44.246
 44.267  44.439  44.537  44.687  44.760
 --------------------------------------------------------------
 
          Ground-State Mulliken Net Atomic Charges

     Atom                 Charge (a.u.)
  ----------------------------------------
      1 C                    -1.182316
      2 H                     0.234538
      3 H                     0.248580
      4 H                     0.248593
      5 C                     0.717840
      6 C                    -0.231617
      7 H                     0.182032
      8 H                     0.194050
      9 C                    -0.088701
     10 H                     0.236837
     11 H                     0.241885
     12 C                     0.041408
     13 O                    -0.254014
     14 O                    -0.675171
     15 H                     0.409076
     16 O                    -0.267274
     17 O                    -0.707899
     18 O                    -0.690437
     19 O                    -0.657409
  ----------------------------------------
  Sum of atomic charges =    -2.000000

 -----------------------------------------------------------------
                    Cartesian Multipole Moments
 -----------------------------------------------------------------
    Charge (ESU x 10^10)
                -9.6064
    Dipole Moment (Debye)
         X     -11.5706      Y       5.8556      Z      -8.3288
       Tot      15.4122
    Quadrupole Moments (Debye-Ang)
        XX    -161.0788     XY     -18.1857     YY     -90.5207
        XZ     -18.0862     YZ       5.1110     ZZ     -87.5675
    Octopole Moments (Debye-Ang^2)
       XXX    -382.6972    XXY      -4.1511    XYY     -33.9863
       YYY      49.0114    XXZ    -131.9468    XYZ      -8.2311
       YYZ     -32.3488    XZZ     -40.2518    YZZ      32.3464
       ZZZ     -67.5240
    Hexadecapole Moments (Debye-Ang^3)
      XXXX   -3859.6862   XXXY    -436.9020   XXYY    -654.2406
      XYYY    -256.2176   YYYY    -552.1606   XXXZ    -627.7930
      XXYZ      12.7627   XYYZ    -104.6466   YYYZ      53.7664
      XXZZ    -626.6235   XYZZ     -83.3720   YYZZ    -199.4279
      XZZZ    -299.0458   YZZZ      46.3490   ZZZZ    -470.1692
 -----------------------------------------------------------------
 Calculating analytic gradient of the SCF energy
 Gradient of SCF Energy
            1           2           3           4           5           6
    1  -0.1135835   0.0098460  -0.0248001   0.0663325   0.1224164   0.0241966
    2   0.0310261  -0.0586561  -0.0175798   0.0383728   0.0013662  -0.1009995
    3  -0.0482908  -0.0416178   0.0647576   0.0085569   0.0814968   0.0572862
            7           8           9          10          11          12
    1  -0.0096263   0.0280407  -0.0316554   0.0189182  -0.0161799   0.0373408
    2   0.0661188   0.0219306   0.0597087  -0.0479873  -0.0038559  -0.0138884
    3   0.0257166  -0.0659120  -0.0402630  -0.0365646   0.0588633   0.0192317
           13          14          15          16          17          18
    1  -0.0238749  -0.0202200  -0.0045214  -0.0118558  -0.0475549  -0.0070407
    2   0.0471537  -0.0017593   0.0280690  -0.0129783  -0.0300144   0.0510811
    3  -0.0208972  -0.0157362  -0.0236064   0.0014104  -0.0050540  -0.0225596
           19
    1   0.0038219
    2  -0.0571082
    3   0.0031821
 Max gradient component =       1.224E-01
 RMS gradient           =       4.394E-02
 Computing fast CPCM-ISWIG gradient
 Updating gradient with PCM contributions...
 -- total gradient after adding PCM contribution --
---------------------------------------------------
  Atom         X              Y              Z     
---------------------------------------------------
   1       0.000001       0.000002      -0.000001
   2       0.000004       0.000005      -0.000007
   3       0.000002      -0.000005      -0.000003
   4      -0.000000       0.000004       0.000002
   5      -0.000001       0.000003       0.000004
   6       0.000001       0.000003      -0.000001
   7      -0.000003      -0.000005       0.000005
   8       0.000000       0.000006       0.000001
   9       0.000003      -0.000005      -0.000005
  10       0.000007      -0.000003      -0.000012
  11       0.000004      -0.000013      -0.000009
  12       0.000001      -0.000005      -0.000007
  13      -0.000004       0.000012       0.000005
  14      -0.000008      -0.000002       0.000010
  15      -0.000007       0.000005       0.000015
  16       0.000001      -0.000005      -0.000004
  17       0.000005      -0.000008      -0.000008
  18      -0.000001      -0.000002       0.000003
  19      -0.000003       0.000014       0.000011
---------------------------------------------------
 Number of fixed atoms: 0
 Gradient time:  CPU 1082.45 s  wall 78.53 s
 ######################################################
 ######################################################
 # Starting finite difference calculation for IDERIV  #
 Finite diff step size:  1.88973e-03 a.u.
 ----------------------------------------------------------------
             Standard Nuclear Orientation (Angstroms)
    I     Atom           X                Y                Z
 ----------------------------------------------------------------
    1      C      -2.5227682634     0.5754899536    -1.1210217930
    2      H      -2.7032237109     1.4782995569    -0.5309244732
    3      H      -2.1766731270     0.8655965720    -2.1161040086
    4      H      -3.4553037950     0.0137041691    -1.2140733478
    5      C      -1.4812477134    -0.2970435743    -0.4466614428
    6      C       0.8068855115    -0.1182091768     0.2758534937
    7      H       1.0784425244    -1.0462406355    -0.2376690994
    8      H       0.5319856965    -0.3703627160     1.3054564525
    9      C       1.9614106717     0.8635304391     0.2525618454
   10      H       1.6664902417     1.7986097558     0.7423274825
   11      H       2.2093873692     1.1232424470    -0.7833684203
   12      C       3.2471838340     0.3632916503     0.9288779232
   13      O      -1.9428158426    -0.5671102343     0.9087301814
   14      O      -1.2824608705    -1.5007640790    -1.0397259727
   15      H      -1.4062034348    -2.0877202148    -0.0798058029
   16      O      -0.3018358724     0.4959503348    -0.3792452693
   17      O       4.2092671417     1.1762610255     0.9549099004
   18      O       3.2598950214    -0.8018940595     1.4019211878
   19      O      -1.6974153806    -1.9646312094     1.1779611734
 ----------------------------------------------------------------
 Nuclear Repulsion Energy =   646.5865062216 hartrees
 There are       44 alpha and       44 beta electrons
 Discretize the solute cavity surface with Lebedev spheres
	Using 110 Lebedev grid points for each H atom
	Using 110 Lebedev grid points for other atoms
	Atomic van der Waals radii will be scaled by 1.20
 Remove points where switching function is < 1.0e-08
 Keep 1103 surface tesserae and discard 987 interior tesserae
 Molecular Surface Area = 198.081 Angst**2
 Requested basis set is def2-TZVPD
 There are 189 shells and 497 basis functions
 A cutoff of  1.0D-14 yielded  16008 shell pairs
 There are    110574 function pairs (    140824 Cartesian)
 Smallest overlap matrix eigenvalue = 3.22E-06
 Guess MOs from SCF MO coefficient file
 Reading MOs from coefficient file
 Reading MOs from coefficient file
 Long-range K will be added via erf
 Coulomb attenuation parameter = 0.3 bohr**(-1)
 A restricted hybrid HF-DFT SCF calculation will be
 performed using Pulay DIIS extrapolation
 Polarizable Continuum solvation model will be applied
 Exchange:     0.1670 Hartree-Fock + 1.0000 wB97X-V + LR-HF
 Correlation:  1.0000 wB97X-V
 Using SG-2 standard quadrature grid
 Nonlocal Correlation:  VV10 with C = 0.0100 and b = 6.00
 Grid used for NLC:  SG-1 standard quadrature
 SCF converges when DIIS error is below 1.0E-08
Using Q-Chem read-in guess as SCF_GUESS READ specified.

 using 16 threads for integral computing
 -------------------------------------------------------
 OpenMP Integral computing Module                
 Release: version 1.0, May 2013, Q-Chem Inc. Pittsburgh 
 -------------------------------------------------------
 using 16 threads for integral computing
 -------------------------------------------------------
 OpenMP Integral computing Module                
 Release: version 1.0, May 2013, Q-Chem Inc. Pittsburgh 
 -------------------------------------------------------
 -------------------------------------------------------
 OpenMP BLAS3 based DFT computing Module                
 Release: version 1.0, May 2013, Q-Chem Inc. Pittsburgh 
 -------------------------------------------------------
 -------------------------------------------------------
 OpenMP BLAS3 based DFT computing Module                
 Release: version 1.0, May 2013, Q-Chem Inc. Pittsburgh 
 -------------------------------------------------------
 -------------------------------------------------------
 OpenMP BLAS3 based DFT computing Module                
 Release: version 1.0, May 2013, Q-Chem Inc. Pittsburgh 
 -------------------------------------------------------
 ---------------------------------------
  Cycle       Energy         DIIS Error
 ---------------------------------------
    1    -646.6636449922      2.98E-04
    2    -646.9558448543      3.01E-04
    3    -646.9599520269      1.43E-04
    4    -646.9606441003      1.07E-04
    5    -646.9610860553      8.15E-05
    6    -646.9613152475      6.53E-05
    7    -646.9615005289      4.86E-05
    8    -646.9616360734      3.12E-05
    9    -646.9617130942      1.35E-05
   10    -646.9617282758      5.14E-06
   11    -646.9617307089      1.10E-06
   12    -646.9617308164      2.91E-07
   13    -646.9617308244      2.65E-08
   14    -646.9617308244      1.41E-08
   15    -646.9617308244      8.32E-09 Convergence criterion met
 ---------------------------------------

************** Final PCM Free Energy Summary **************
 G_electrostatic  =      -0.29773180 hartree =    -186.82952456 kcal/mol
 G_cavitation     =       0.00000000 hartree =       0.00000000 kcal/mol
 G_dispersion     =       0.00000000 hartree =       0.00000000 kcal/mol
 G_repulsion      =       0.00000000 hartree =       0.00000000 kcal/mol
 --------------------------------------------------
 Non-electrostatic Free Energy =       0.00000000 hartree =       0.00000000 kcal/mol
 Total                         =      -0.29773180 hartree =    -186.82952456 kcal/mol
 --------------------------------------------------
 SCF Energy (H0 + V/2)                       =    -646.96173082 
 Solute Internal Energy (H0)                 =    -646.66399902 
 Total Free Energy (H0 + V/2 + non-elec)     =    -646.96173082 hartree
                                             = -405974.61346688 kcal/mol
***********************************************************

 SCF time:  CPU 4708.87 s  wall 334.34 s
 SCF   energy in the final basis set = -646.96173082
 Total energy in the final basis set = -646.96173082
 
 --------------------------------------------------------------
 
                    Orbital Energies (a.u.)
 --------------------------------------------------------------
 
 Alpha MOs
 -- Occupied --
-19.223 -19.199 -19.177 -19.164 -19.141 -19.138 -10.386 -10.342
-10.291 -10.248 -10.245  -1.223  -1.145  -1.141  -1.085  -1.050
 -0.946  -0.878  -0.836  -0.743  -0.667  -0.633  -0.612  -0.587
 -0.576  -0.562  -0.528  -0.525  -0.510  -0.505  -0.487  -0.481
 -0.461  -0.451  -0.435  -0.426  -0.410  -0.384  -0.363  -0.347
 -0.341  -0.336  -0.331  -0.297
 -- Virtual --
  0.060   0.072   0.076   0.086   0.098   0.099   0.107   0.112
  0.125   0.127   0.132   0.141   0.143   0.155   0.159   0.162
  0.171   0.173   0.180   0.182   0.187   0.191   0.209   0.212
  0.218   0.229   0.237   0.242   0.245   0.249   0.252   0.268
  0.271   0.278   0.279   0.284   0.291   0.294   0.303   0.305
  0.310   0.318   0.328   0.331   0.334   0.339   0.344   0.351
  0.360   0.364   0.369   0.372   0.375   0.382   0.385   0.393
  0.399   0.402   0.408   0.413   0.414   0.420   0.424   0.430
  0.433   0.441   0.444   0.447   0.452   0.455   0.464   0.472
  0.475   0.478   0.484   0.492   0.496   0.506   0.508   0.515
  0.519   0.526   0.529   0.537   0.545   0.550   0.552   0.553
  0.560   0.567   0.570   0.584   0.588   0.591   0.596   0.602
  0.615   0.617   0.624   0.627   0.630   0.645   0.650   0.658
  0.664   0.669   0.675   0.684   0.691   0.700   0.717   0.723
  0.730   0.733   0.739   0.745   0.752   0.759   0.765   0.776
  0.780   0.784   0.788   0.797   0.804   0.807   0.810   0.823
  0.826   0.832   0.836   0.843   0.849   0.857   0.860   0.865
  0.871   0.873   0.884   0.893   0.900   0.913   0.916   0.925
  0.937   0.942   0.952   0.957   0.970   0.981   0.990   1.005
  1.017   1.020   1.035   1.041   1.059   1.070   1.073   1.096
  1.098   1.114   1.130   1.137   1.141   1.162   1.169   1.187
  1.197   1.204   1.212   1.223   1.240   1.259   1.261   1.274
  1.281   1.294   1.309   1.319   1.331   1.334   1.348   1.369
  1.380   1.394   1.404   1.423   1.439   1.452   1.469   1.470
  1.485   1.501   1.513   1.542   1.548   1.563   1.614   1.621
  1.636   1.662   1.707   1.745   1.763   1.769   1.815   1.833
  1.856   1.890   1.901   1.920   1.930   1.941   1.949   1.957
  1.964   1.971   1.984   1.995   2.001   2.011   2.030   2.031
  2.046   2.061   2.082   2.091   2.111   2.167   2.178   2.197
  2.206   2.220   2.233   2.242   2.245   2.274   2.283   2.288
  2.330   2.332   2.342   2.362   2.370   2.388   2.409   2.441
  2.463   2.470   2.481   2.484   2.498   2.503   2.525   2.538
  2.573   2.619   2.624   2.639   2.648   2.655   2.684   2.696
  2.714   2.721   2.726   2.760   2.777   2.780   2.820   2.845
  2.875   2.889   2.907   2.927   2.947   2.955   2.958   2.979
  2.984   3.026   3.043   3.065   3.080   3.091   3.104   3.121
  3.156   3.199   3.230   3.234   3.245   3.251   3.264   3.295
  3.303   3.321   3.353   3.361   3.369   3.375   3.397   3.421
  3.430   3.455   3.460   3.475   3.501   3.515   3.527   3.537
  3.543   3.562   3.574   3.580   3.610   3.614   3.631   3.654
  3.661   3.679   3.683   3.696   3.706   3.727   3.735   3.745
  3.762   3.767   3.778   3.794   3.822   3.864   3.869   3.906
  3.944   3.968   3.973   3.986   4.044   4.086   4.101   4.162
  4.179   4.202   4.223   4.226   4.261   4.272   4.337   4.426
  4.444   4.541   4.618   4.633   4.641   4.654   4.696   4.717
  4.785   4.818   4.827   4.887   4.948   4.955   4.992   5.031
  5.077   5.138   5.143   5.231   5.253   5.284   5.316   5.323
  5.342   5.362   5.374   5.384   5.491   5.505   5.522   5.572
  5.585   5.620   5.671   5.696   5.711   5.726   5.748   5.756
  5.779   5.879   5.945   6.007   6.045   6.104   6.124   6.148
  6.248   6.271   6.314   6.331   6.337   6.390   6.421   6.469
  6.556   6.621   6.631   6.638   6.666   6.691   6.702   6.748
  6.775   6.809   6.854   6.861   6.944   6.962   6.969   7.014
  7.046   7.049   7.097   7.129   7.209   7.230   7.258   7.262
  7.329   7.363   7.409   7.412   7.417   7.554   7.647   7.688
  7.747   8.334  22.692  22.860  22.946  23.146  23.739  44.246
 44.267  44.439  44.537  44.687  44.760
 --------------------------------------------------------------
 
          Ground-State Mulliken Net Atomic Charges

     Atom                 Charge (a.u.)
  ----------------------------------------
      1 C                    -1.182812
      2 H                     0.234535
      3 H                     0.248771
      4 H                     0.248320
      5 C                     0.718509
      6 C                    -0.231833
      7 H                     0.182023
      8 H                     0.194048
      9 C                    -0.088619
     10 H                     0.236841
     11 H                     0.241883
     12 C                     0.041388
     13 O                    -0.254023
     14 O                    -0.675173
     15 H                     0.409066
     16 O                    -0.267188
     17 O                    -0.707901
     18 O                    -0.690439
     19 O                    -0.657395
  ----------------------------------------
  Sum of atomic charges =    -2.000000

 -----------------------------------------------------------------
                    Cartesian Multipole Moments
 -----------------------------------------------------------------
    Charge (ESU x 10^10)
                -9.6064
    Dipole Moment (Debye)
         X     -11.5712      Y       5.8562      Z      -8.3293
       Tot      15.4131
    Quadrupole Moments (Debye-Ang)
        XX    -161.0800     XY     -18.1890     YY     -90.5201
        XZ     -18.0853     YZ       5.1085     ZZ     -87.5649
    Octopole Moments (Debye-Ang^2)
       XXX    -382.7075    XXY      -4.1383    XYY     -33.9946
       YYY      49.0108    XXZ    -131.9493    XYZ      -8.2236
       YYZ     -32.3497    XZZ     -40.2635    YZZ      32.3505
       ZZZ     -67.5312
    Hexadecapole Moments (Debye-Ang^3)
      XXXX   -3859.6035   XXXY    -436.9603   XXYY    -654.2071
      XYYY    -256.2314   YYYY    -552.1563   XXXZ    -627.7829
      XXYZ      12.7390   XYYZ    -104.6375   YYYZ      53.7583
      XXZZ    -626.5874   XYZZ     -83.3890   YYZZ    -199.4210
      XZZZ    -299.0127   YZZZ      46.3345   ZZZZ    -470.1420
 -----------------------------------------------------------------
 Calculating analytic gradient of the SCF energy
 Gradient of SCF Energy
            1           2           3           4           5           6
    1  -0.1128859   0.0098154  -0.0248703   0.0658391   0.1224053   0.0241725
    2   0.0310881  -0.0585819  -0.0176494   0.0381089   0.0015256  -0.1010093
    3  -0.0483641  -0.0415622   0.0649633   0.0085069   0.0813910   0.0572629
            7           8           9          10          11          12
    1  -0.0096275   0.0280440  -0.0316411   0.0189193  -0.0161817   0.0373405
    2   0.0661204   0.0219304   0.0597129  -0.0479891  -0.0038574  -0.0138875
    3   0.0257239  -0.0659134  -0.0402468  -0.0365638   0.0588660   0.0192279
           13          14          15          16          17          18
    1  -0.0238700  -0.0202342  -0.0045281  -0.0119263  -0.0475563  -0.0070408
    2   0.0471486  -0.0017364   0.0280845  -0.0129689  -0.0300150   0.0510827
    3  -0.0209090  -0.0157261  -0.0236109   0.0013906  -0.0050541  -0.0225603
           19
    1   0.0038262
    2  -0.0571073
    3   0.0031779
 Max gradient component =       1.224E-01
 RMS gradient           =       4.389E-02
 Computing fast CPCM-ISWIG gradient
 Updating gradient with PCM contributions...
 -- total gradient after adding PCM contribution --
---------------------------------------------------
  Atom         X              Y              Z     
---------------------------------------------------
   1       0.001049       0.000083      -0.000051
   2      -0.000100       0.000076       0.000038
   3      -0.000142      -0.000046       0.000144
   4      -0.000463      -0.000230      -0.000032
   5      -0.000258       0.000107      -0.000076
   6       0.000000      -0.000006       0.000003
   7      -0.000003      -0.000004       0.000006
   8      -0.000000       0.000006       0.000000
   9       0.000001      -0.000002      -0.000007
  10       0.000007      -0.000003      -0.000013
  11       0.000003      -0.000014      -0.000009
  12       0.000002      -0.000006      -0.000006
  13       0.000006       0.000002       0.000014
  14      -0.000008       0.000019       0.000005
  15      -0.000010       0.000005       0.000021
  16      -0.000088       0.000017      -0.000046
  17       0.000003      -0.000009      -0.000009
  18      -0.000002      -0.000001       0.000003
  19       0.000001       0.000008       0.000015
---------------------------------------------------
 Number of fixed atoms: 0
 Gradient time:  CPU 1078.56 s  wall 78.21 s
 ----------------------------------------------------------------
             Standard Nuclear Orientation (Angstroms)
    I     Atom           X                Y                Z
 ----------------------------------------------------------------
    1      C      -2.5247682634     0.5754899536    -1.1210217930
    2      H      -2.7032237109     1.4782995569    -0.5309244732
    3      H      -2.1766731270     0.8655965720    -2.1161040086
    4      H      -3.4553037950     0.0137041691    -1.2140733478
    5      C      -1.4812477134    -0.2970435743    -0.4466614428
    6      C       0.8068855115    -0.1182091768     0.2758534937
    7      H       1.0784425244    -1.0462406355    -0.2376690994
    8      H       0.5319856965    -0.3703627160     1.3054564525
    9      C       1.9614106717     0.8635304391     0.2525618454
   10      H       1.6664902417     1.7986097558     0.7423274825
   11      H       2.2093873692     1.1232424470    -0.7833684203
   12      C       3.2471838340     0.3632916503     0.9288779232
   13      O      -1.9428158426    -0.5671102343     0.9087301814
   14      O      -1.2824608705    -1.5007640790    -1.0397259727
   15      H      -1.4062034348    -2.0877202148    -0.0798058029
   16      O      -0.3018358724     0.4959503348    -0.3792452693
   17      O       4.2092671417     1.1762610255     0.9549099004
   18      O       3.2598950214    -0.8018940595     1.4019211878
   19      O      -1.6974153806    -1.9646312094     1.1779611734
 ----------------------------------------------------------------
 Nuclear Repulsion Energy =   646.5539383902 hartrees
 There are       44 alpha and       44 beta electrons
 Discretize the solute cavity surface with Lebedev spheres
	Using 110 Lebedev grid points for each H atom
	Using 110 Lebedev grid points for other atoms
	Atomic van der Waals radii will be scaled by 1.20
 Remove points where switching function is < 1.0e-08
 Keep 1102 surface tesserae and discard 988 interior tesserae
 Molecular Surface Area = 198.099 Angst**2
 Requested basis set is def2-TZVPD
 There are 189 shells and 497 basis functions
 A cutoff of  1.0D-14 yielded  16007 shell pairs
 There are    110569 function pairs (    140818 Cartesian)
 Smallest overlap matrix eigenvalue = 3.23E-06
 Guess MOs from SCF MO coefficient file
 Reading MOs from coefficient file
 Reading MOs from coefficient file
 Long-range K will be added via erf
 Coulomb attenuation parameter = 0.3 bohr**(-1)
 A restricted hybrid HF-DFT SCF calculation will be
 performed using Pulay DIIS extrapolation
 Polarizable Continuum solvation model will be applied
 Exchange:     0.1670 Hartree-Fock + 1.0000 wB97X-V + LR-HF
 Correlation:  1.0000 wB97X-V
 Using SG-2 standard quadrature grid
 Nonlocal Correlation:  VV10 with C = 0.0100 and b = 6.00
 Grid used for NLC:  SG-1 standard quadrature
 SCF converges when DIIS error is below 1.0E-08
Using Q-Chem read-in guess as SCF_GUESS READ specified.

 using 16 threads for integral computing
 -------------------------------------------------------
 OpenMP Integral computing Module                
 Release: version 1.0, May 2013, Q-Chem Inc. Pittsburgh 
 -------------------------------------------------------
 using 16 threads for integral computing
 -------------------------------------------------------
 OpenMP Integral computing Module                
 Release: version 1.0, May 2013, Q-Chem Inc. Pittsburgh 
 -------------------------------------------------------
 -------------------------------------------------------
 OpenMP BLAS3 based DFT computing Module                
 Release: version 1.0, May 2013, Q-Chem Inc. Pittsburgh 
 -------------------------------------------------------
 -------------------------------------------------------
 OpenMP BLAS3 based DFT computing Module                
 Release: version 1.0, May 2013, Q-Chem Inc. Pittsburgh 
 -------------------------------------------------------
 -------------------------------------------------------
 OpenMP BLAS3 based DFT computing Module                
 Release: version 1.0, May 2013, Q-Chem Inc. Pittsburgh 
 -------------------------------------------------------
 ---------------------------------------
  Cycle       Energy         DIIS Error
 ---------------------------------------
    1    -646.6647201906      2.97E-04
    2    -646.9558531795      3.00E-04
    3    -646.9599561386      1.43E-04
    4    -646.9606484155      1.06E-04
    5    -646.9610964605      8.08E-05
    6    -646.9613493123      6.25E-05
    7    -646.9615798866      3.93E-05
    8    -646.9616994334      1.79E-05
    9    -646.9617289943      4.35E-06
   10    -646.9617307162      1.09E-06
   11    -646.9617308248      1.70E-07
   12    -646.9617308269      5.00E-08
   13    -646.9617308271      1.66E-08
   14    -646.9617308271      8.79E-09 Convergence criterion met
 ---------------------------------------

************** Final PCM Free Energy Summary **************
 G_electrostatic  =      -0.29772265 hartree =    -186.82378045 kcal/mol
 G_cavitation     =       0.00000000 hartree =       0.00000000 kcal/mol
 G_dispersion     =       0.00000000 hartree =       0.00000000 kcal/mol
 G_repulsion      =       0.00000000 hartree =       0.00000000 kcal/mol
 --------------------------------------------------
 Non-electrostatic Free Energy =       0.00000000 hartree =       0.00000000 kcal/mol
 Total                         =      -0.29772265 hartree =    -186.82378045 kcal/mol
 --------------------------------------------------
 SCF Energy (H0 + V/2)                       =    -646.96173083 
 Solute Internal Energy (H0)                 =    -646.66400818 
 Total Free Energy (H0 + V/2 + non-elec)     =    -646.96173083 hartree
                                             = -405974.61346858 kcal/mol
***********************************************************

 SCF time:  CPU 4395.82 s  wall 311.32 s
 SCF   energy in the final basis set = -646.96173083
 Total energy in the final basis set = -646.96173083
 
 --------------------------------------------------------------
 
                    Orbital Energies (a.u.)
 --------------------------------------------------------------
 
 Alpha MOs
 -- Occupied --
-19.223 -19.199 -19.176 -19.164 -19.141 -19.138 -10.386 -10.342
-10.291 -10.248 -10.245  -1.223  -1.145  -1.141  -1.085  -1.050
 -0.946  -0.878  -0.836  -0.743  -0.667  -0.633  -0.612  -0.587
 -0.576  -0.562  -0.528  -0.525  -0.510  -0.505  -0.487  -0.481
 -0.461  -0.451  -0.435  -0.426  -0.410  -0.384  -0.363  -0.347
 -0.341  -0.336  -0.331  -0.297
 -- Virtual --
  0.060   0.072   0.076   0.086   0.098   0.099   0.107   0.112
  0.125   0.127   0.132   0.141   0.143   0.155   0.159   0.162
  0.171   0.173   0.180   0.182   0.187   0.191   0.209   0.212
  0.218   0.229   0.237   0.242   0.245   0.249   0.252   0.268
  0.271   0.278   0.279   0.284   0.291   0.294   0.303   0.305
  0.310   0.318   0.328   0.331   0.334   0.339   0.344   0.351
  0.360   0.364   0.369   0.372   0.375   0.382   0.385   0.393
  0.399   0.402   0.408   0.413   0.414   0.420   0.424   0.430
  0.433   0.441   0.444   0.447   0.452   0.455   0.464   0.472
  0.475   0.478   0.484   0.492   0.496   0.506   0.508   0.515
  0.519   0.525   0.529   0.537   0.545   0.550   0.552   0.553
  0.560   0.567   0.570   0.584   0.588   0.591   0.596   0.602
  0.615   0.617   0.624   0.626   0.630   0.645   0.650   0.658
  0.664   0.669   0.675   0.684   0.691   0.700   0.717   0.723
  0.730   0.733   0.739   0.745   0.752   0.759   0.765   0.776
  0.780   0.784   0.788   0.797   0.804   0.807   0.810   0.823
  0.826   0.832   0.836   0.843   0.849   0.857   0.860   0.865
  0.871   0.873   0.885   0.893   0.900   0.913   0.916   0.925
  0.937   0.942   0.952   0.957   0.970   0.981   0.990   1.005
  1.017   1.020   1.035   1.041   1.059   1.070   1.073   1.096
  1.098   1.114   1.130   1.137   1.141   1.162   1.169   1.187
  1.197   1.204   1.212   1.223   1.240   1.259   1.261   1.274
  1.281   1.294   1.309   1.319   1.331   1.334   1.348   1.369
  1.380   1.394   1.404   1.422   1.439   1.452   1.469   1.470
  1.484   1.501   1.513   1.542   1.548   1.563   1.614   1.621
  1.636   1.662   1.707   1.745   1.763   1.769   1.815   1.833
  1.856   1.890   1.901   1.920   1.930   1.941   1.949   1.957
  1.964   1.971   1.984   1.995   2.001   2.011   2.030   2.032
  2.047   2.061   2.082   2.091   2.110   2.167   2.178   2.197
  2.206   2.220   2.233   2.242   2.245   2.274   2.283   2.288
  2.330   2.332   2.342   2.361   2.369   2.388   2.409   2.441
  2.463   2.470   2.481   2.484   2.498   2.503   2.525   2.538
  2.573   2.618   2.624   2.639   2.648   2.655   2.684   2.695
  2.714   2.721   2.726   2.760   2.777   2.780   2.820   2.845
  2.875   2.889   2.907   2.927   2.947   2.955   2.958   2.980
  2.984   3.026   3.043   3.065   3.080   3.091   3.103   3.121
  3.156   3.199   3.231   3.234   3.244   3.251   3.264   3.295
  3.303   3.321   3.353   3.361   3.369   3.374   3.397   3.422
  3.430   3.455   3.460   3.475   3.501   3.515   3.528   3.537
  3.543   3.562   3.574   3.580   3.610   3.614   3.631   3.654
  3.661   3.678   3.682   3.696   3.706   3.727   3.735   3.744
  3.762   3.766   3.778   3.794   3.822   3.864   3.869   3.906
  3.944   3.968   3.973   3.986   4.044   4.086   4.101   4.162
  4.179   4.201   4.223   4.225   4.260   4.271   4.337   4.426
  4.444   4.541   4.618   4.632   4.641   4.653   4.698   4.717
  4.785   4.818   4.827   4.887   4.948   4.955   4.992   5.030
  5.077   5.138   5.143   5.231   5.253   5.284   5.316   5.323
  5.342   5.362   5.374   5.384   5.491   5.505   5.522   5.572
  5.585   5.620   5.671   5.696   5.711   5.726   5.748   5.756
  5.779   5.879   5.945   6.007   6.044   6.104   6.124   6.148
  6.248   6.271   6.314   6.331   6.337   6.390   6.421   6.469
  6.556   6.621   6.631   6.638   6.666   6.691   6.702   6.748
  6.775   6.809   6.854   6.861   6.944   6.962   6.969   7.014
  7.046   7.049   7.097   7.129   7.209   7.229   7.258   7.262
  7.329   7.363   7.409   7.412   7.417   7.554   7.647   7.688
  7.747   8.334  22.692  22.860  22.946  23.145  23.739  44.246
 44.267  44.439  44.537  44.686  44.760
 --------------------------------------------------------------
 
          Ground-State Mulliken Net Atomic Charges

     Atom                 Charge (a.u.)
  ----------------------------------------
      1 C                    -1.181827
      2 H                     0.234542
      3 H                     0.248390
      4 H                     0.248870
      5 C                     0.717169
      6 C                    -0.231403
      7 H                     0.182041
      8 H                     0.194053
      9 C                    -0.088786
     10 H                     0.236835
     11 H                     0.241890
     12 C                     0.041426
     13 O                    -0.254003
     14 O                    -0.675169
     15 H                     0.409087
     16 O                    -0.267358
     17 O                    -0.707897
     18 O                    -0.690436
     19 O                    -0.657423
  ----------------------------------------
  Sum of atomic charges =    -2.000000

 -----------------------------------------------------------------
                    Cartesian Multipole Moments
 -----------------------------------------------------------------
    Charge (ESU x 10^10)
                -9.6064
    Dipole Moment (Debye)
         X     -11.5700      Y       5.8550      Z      -8.3283
       Tot      15.4112
    Quadrupole Moments (Debye-Ang)
        XX    -161.0776     XY     -18.1823     YY     -90.5213
        XZ     -18.0872     YZ       5.1135     ZZ     -87.5701
    Octopole Moments (Debye-Ang^2)
       XXX    -382.6871    XXY      -4.1636    XYY     -33.9778
       YYY      49.0122    XXZ    -131.9445    XYZ      -8.2386
       YYZ     -32.3480    XZZ     -40.2402    YZZ      32.3424
       ZZZ     -67.5169
    Hexadecapole Moments (Debye-Ang^3)
      XXXX   -3859.7702   XXXY    -436.8430   XXYY    -654.2740
      XYYY    -256.2037   YYYY    -552.1648   XXXZ    -627.8039
      XXYZ      12.7867   XYYZ    -104.6556   YYYZ      53.7745
      XXZZ    -626.6599   XYZZ     -83.3550   YYZZ    -199.4349
      XZZZ    -299.0791   YZZZ      46.3635   ZZZZ    -470.1965
 -----------------------------------------------------------------
 Calculating analytic gradient of the SCF energy
 Gradient of SCF Energy
            1           2           3           4           5           6
    1  -0.1142833   0.0098765  -0.0247301   0.0668285   0.1224277   0.0242213
    2   0.0309621  -0.0587306  -0.0175103   0.0386387   0.0012076  -0.1009904
    3  -0.0482179  -0.0416735   0.0645524   0.0086072   0.0816028   0.0573101
            7           8           9          10          11          12
    1  -0.0096252   0.0280377  -0.0316704   0.0189173  -0.0161784   0.0373417
    2   0.0661179   0.0219312   0.0597048  -0.0479860  -0.0038544  -0.0138898
    3   0.0257094  -0.0659111  -0.0402799  -0.0365660   0.0588614   0.0192359
           13          14          15          16          17          18
    1  -0.0238802  -0.0202060  -0.0045146  -0.0117854  -0.0475542  -0.0070407
    2   0.0471593  -0.0017822   0.0280538  -0.0129881  -0.0300139   0.0510802
    3  -0.0208856  -0.0157464  -0.0236021   0.0014302  -0.0050540  -0.0225592
           19
    1   0.0038178
    2  -0.0571097
    3   0.0031863
 Max gradient component =       1.224E-01
 RMS gradient           =       4.399E-02
 Computing fast CPCM-ISWIG gradient
 Updating gradient with PCM contributions...
 -- total gradient after adding PCM contribution --
---------------------------------------------------
  Atom         X              Y              Z     
---------------------------------------------------
   1      -0.001050      -0.000082       0.000048
   2       0.000108      -0.000065      -0.000051
   3       0.000145       0.000036      -0.000150
   4       0.000465       0.000240       0.000036
   5       0.000257      -0.000100       0.000085
   6       0.000002       0.000011      -0.000003
   7      -0.000002      -0.000006       0.000005
   8       0.000001       0.000006       0.000002
   9       0.000005      -0.000007      -0.000003
  10       0.000007      -0.000003      -0.000012
  11       0.000003      -0.000013      -0.000009
  12       0.000000      -0.000005      -0.000007
  13      -0.000015       0.000022      -0.000005
  14      -0.000008      -0.000024       0.000015
  15      -0.000005       0.000005       0.000009
  16       0.000089      -0.000027       0.000038
  17       0.000006      -0.000008      -0.000008
  18      -0.000001      -0.000002       0.000004
  19      -0.000007       0.000021       0.000008
---------------------------------------------------
 Number of fixed atoms: 0
 Gradient time:  CPU 1117.98 s  wall 80.02 s
 ----------------------------------------------------------------
             Standard Nuclear Orientation (Angstroms)
    I     Atom           X                Y                Z
 ----------------------------------------------------------------
    1      C      -2.5237682634     0.5764899536    -1.1210217930
    2      H      -2.7032237109     1.4782995569    -0.5309244732
    3      H      -2.1766731270     0.8655965720    -2.1161040086
    4      H      -3.4553037950     0.0137041691    -1.2140733478
    5      C      -1.4812477134    -0.2970435743    -0.4466614428
    6      C       0.8068855115    -0.1182091768     0.2758534937
    7      H       1.0784425244    -1.0462406355    -0.2376690994
    8      H       0.5319856965    -0.3703627160     1.3054564525
    9      C       1.9614106717     0.8635304391     0.2525618454
   10      H       1.6664902417     1.7986097558     0.7423274825
   11      H       2.2093873692     1.1232424470    -0.7833684203
   12      C       3.2471838340     0.3632916503     0.9288779232
   13      O      -1.9428158426    -0.5671102343     0.9087301814
   14      O      -1.2824608705    -1.5007640790    -1.0397259727
   15      H      -1.4062034348    -2.0877202148    -0.0798058029
   16      O      -0.3018358724     0.4959503348    -0.3792452693
   17      O       4.2092671417     1.1762610255     0.9549099004
   18      O       3.2598950214    -0.8018940595     1.4019211878
   19      O      -1.6974153806    -1.9646312094     1.1779611734
 ----------------------------------------------------------------
 Nuclear Repulsion Energy =   646.5588624536 hartrees
 There are       44 alpha and       44 beta electrons
 Discretize the solute cavity surface with Lebedev spheres
	Using 110 Lebedev grid points for each H atom
	Using 110 Lebedev grid points for other atoms
	Atomic van der Waals radii will be scaled by 1.20
 Remove points where switching function is < 1.0e-08
 Keep 1102 surface tesserae and discard 988 interior tesserae
 Molecular Surface Area = 198.095 Angst**2
 Requested basis set is def2-TZVPD
 There are 189 shells and 497 basis functions
 A cutoff of  1.0D-14 yielded  16007 shell pairs
 There are    110569 function pairs (    140818 Cartesian)
 Smallest overlap matrix eigenvalue = 3.23E-06
 Guess MOs from SCF MO coefficient file
 Reading MOs from coefficient file
 Reading MOs from coefficient file
 Long-range K will be added via erf
 Coulomb attenuation parameter = 0.3 bohr**(-1)
 A restricted hybrid HF-DFT SCF calculation will be
 performed using Pulay DIIS extrapolation
 Polarizable Continuum solvation model will be applied
 Exchange:     0.1670 Hartree-Fock + 1.0000 wB97X-V + LR-HF
 Correlation:  1.0000 wB97X-V
 Using SG-2 standard quadrature grid
 Nonlocal Correlation:  VV10 with C = 0.0100 and b = 6.00
 Grid used for NLC:  SG-1 standard quadrature
 SCF converges when DIIS error is below 1.0E-08
Using Q-Chem read-in guess as SCF_GUESS READ specified.

 using 16 threads for integral computing
 -------------------------------------------------------
 OpenMP Integral computing Module                
 Release: version 1.0, May 2013, Q-Chem Inc. Pittsburgh 
 -------------------------------------------------------
 using 16 threads for integral computing
 -------------------------------------------------------
 OpenMP Integral computing Module                
 Release: version 1.0, May 2013, Q-Chem Inc. Pittsburgh 
 -------------------------------------------------------
 -------------------------------------------------------
 OpenMP BLAS3 based DFT computing Module                
 Release: version 1.0, May 2013, Q-Chem Inc. Pittsburgh 
 -------------------------------------------------------
 -------------------------------------------------------
 OpenMP BLAS3 based DFT computing Module                
 Release: version 1.0, May 2013, Q-Chem Inc. Pittsburgh 
 -------------------------------------------------------
 -------------------------------------------------------
 OpenMP BLAS3 based DFT computing Module                
 Release: version 1.0, May 2013, Q-Chem Inc. Pittsburgh 
 -------------------------------------------------------
 ---------------------------------------
  Cycle       Energy         DIIS Error
 ---------------------------------------
    1    -646.6638341531      2.97E-04
    2    -646.9558523073      3.01E-04
    3    -646.9599540280      1.43E-04
    4    -646.9606453985      1.06E-04
    5    -646.9610882349      8.13E-05
    6    -646.9613230133      6.47E-05
    7    -646.9615226615      4.62E-05
    8    -646.9616603171      2.69E-05
    9    -646.9617219271      9.56E-06
   10    -646.9617299181      3.04E-06
   11    -646.9617307805      5.43E-07
   12    -646.9617308064      1.31E-07
   13    -646.9617308079      1.60E-08
   14    -646.9617308080      1.42E-08
   15    -646.9617308080      5.57E-09 Convergence criterion met
 ---------------------------------------

************** Final PCM Free Energy Summary **************
 G_electrostatic  =      -0.29772282 hartree =    -186.82389107 kcal/mol
 G_cavitation     =       0.00000000 hartree =       0.00000000 kcal/mol
 G_dispersion     =       0.00000000 hartree =       0.00000000 kcal/mol
 G_repulsion      =       0.00000000 hartree =       0.00000000 kcal/mol
 --------------------------------------------------
 Non-electrostatic Free Energy =       0.00000000 hartree =       0.00000000 kcal/mol
 Total                         =      -0.29772282 hartree =    -186.82389107 kcal/mol
 --------------------------------------------------
 SCF Energy (H0 + V/2)                       =    -646.96173081 
 Solute Internal Energy (H0)                 =    -646.66400799 
 Total Free Energy (H0 + V/2 + non-elec)     =    -646.96173081 hartree
                                             = -405974.61345656 kcal/mol
***********************************************************

 SCF time:  CPU 4695.03 s  wall 332.53 s
 SCF   energy in the final basis set = -646.96173081
 Total energy in the final basis set = -646.96173081
 
 --------------------------------------------------------------
 
                    Orbital Energies (a.u.)
 --------------------------------------------------------------
 
 Alpha MOs
 -- Occupied --
-19.223 -19.199 -19.177 -19.164 -19.141 -19.138 -10.386 -10.342
-10.291 -10.248 -10.245  -1.223  -1.145  -1.141  -1.085  -1.050
 -0.946  -0.878  -0.836  -0.743  -0.667  -0.633  -0.612  -0.587
 -0.576  -0.562  -0.528  -0.525  -0.510  -0.505  -0.487  -0.481
 -0.461  -0.451  -0.435  -0.426  -0.410  -0.384  -0.363  -0.347
 -0.341  -0.336  -0.331  -0.297
 -- Virtual --
  0.060   0.072   0.076   0.086   0.098   0.099   0.107   0.112
  0.125   0.127   0.132   0.141   0.143   0.155   0.159   0.162
  0.171   0.173   0.180   0.182   0.187   0.191   0.209   0.212
  0.218   0.229   0.237   0.242   0.245   0.249   0.252   0.268
  0.271   0.278   0.279   0.284   0.291   0.294   0.303   0.305
  0.310   0.318   0.328   0.331   0.334   0.339   0.344   0.351
  0.360   0.364   0.369   0.372   0.375   0.382   0.385   0.393
  0.399   0.402   0.408   0.413   0.414   0.420   0.424   0.430
  0.433   0.441   0.444   0.447   0.452   0.455   0.464   0.472
  0.475   0.478   0.484   0.492   0.496   0.506   0.508   0.515
  0.519   0.525   0.529   0.537   0.545   0.550   0.552   0.553
  0.560   0.567   0.570   0.584   0.588   0.591   0.596   0.602
  0.615   0.617   0.624   0.627   0.630   0.645   0.650   0.658
  0.664   0.669   0.675   0.684   0.691   0.700   0.717   0.723
  0.730   0.733   0.739   0.745   0.752   0.759   0.765   0.776
  0.780   0.784   0.789   0.797   0.804   0.807   0.810   0.823
  0.826   0.832   0.836   0.843   0.849   0.857   0.860   0.865
  0.871   0.873   0.884   0.893   0.900   0.913   0.916   0.925
  0.937   0.942   0.952   0.957   0.970   0.981   0.990   1.005
  1.017   1.020   1.035   1.041   1.059   1.070   1.073   1.096
  1.098   1.114   1.130   1.137   1.141   1.162   1.169   1.187
  1.197   1.204   1.212   1.223   1.240   1.259   1.261   1.274
  1.281   1.294   1.309   1.319   1.331   1.334   1.348   1.369
  1.380   1.394   1.404   1.423   1.439   1.452   1.469   1.470
  1.485   1.501   1.513   1.542   1.548   1.563   1.614   1.621
  1.636   1.662   1.707   1.745   1.763   1.769   1.815   1.833
  1.856   1.890   1.901   1.920   1.930   1.941   1.949   1.957
  1.964   1.971   1.984   1.995   2.001   2.011   2.030   2.032
  2.046   2.061   2.082   2.091   2.110   2.167   2.178   2.197
  2.206   2.220   2.233   2.242   2.245   2.274   2.283   2.288
  2.330   2.332   2.342   2.361   2.370   2.388   2.409   2.441
  2.463   2.470   2.481   2.484   2.498   2.503   2.525   2.538
  2.573   2.618   2.624   2.639   2.648   2.655   2.684   2.696
  2.714   2.721   2.726   2.760   2.777   2.780   2.820   2.845
  2.875   2.889   2.907   2.927   2.947   2.955   2.958   2.979
  2.984   3.026   3.043   3.065   3.080   3.091   3.103   3.120
  3.156   3.199   3.230   3.234   3.245   3.251   3.264   3.295
  3.303   3.321   3.353   3.361   3.369   3.374   3.397   3.421
  3.430   3.455   3.460   3.475   3.501   3.515   3.527   3.537
  3.543   3.562   3.574   3.580   3.610   3.614   3.631   3.654
  3.661   3.679   3.683   3.696   3.706   3.727   3.735   3.745
  3.762   3.766   3.778   3.794   3.822   3.864   3.869   3.906
  3.944   3.968   3.973   3.986   4.044   4.086   4.101   4.162
  4.179   4.201   4.223   4.226   4.260   4.271   4.337   4.426
  4.444   4.541   4.618   4.633   4.641   4.653   4.697   4.717
  4.785   4.818   4.827   4.887   4.948   4.955   4.992   5.030
  5.077   5.138   5.143   5.231   5.253   5.284   5.316   5.323
  5.342   5.362   5.374   5.384   5.491   5.505   5.522   5.572
  5.585   5.620   5.671   5.696   5.711   5.726   5.748   5.756
  5.779   5.879   5.945   6.007   6.044   6.104   6.124   6.148
  6.248   6.271   6.314   6.331   6.337   6.390   6.421   6.469
  6.556   6.621   6.631   6.638   6.666   6.691   6.702   6.748
  6.775   6.809   6.854   6.861   6.944   6.962   6.969   7.014
  7.046   7.049   7.097   7.129   7.209   7.229   7.258   7.262
  7.328   7.363   7.409   7.412   7.417   7.554   7.647   7.688
  7.747   8.334  22.692  22.860  22.946  23.145  23.739  44.246
 44.267  44.439  44.537  44.687  44.760
 --------------------------------------------------------------
 
          Ground-State Mulliken Net Atomic Charges

     Atom                 Charge (a.u.)
  ----------------------------------------
      1 C                    -1.181317
      2 H                     0.234886
      3 H                     0.248670
      4 H                     0.248299
      5 C                     0.716622
      6 C                    -0.231619
      7 H                     0.182003
      8 H                     0.194033
      9 C                    -0.088711
     10 H                     0.236813
     11 H                     0.241871
     12 C                     0.041424
     13 O                    -0.253980
     14 O                    -0.675121
     15 H                     0.409104
     16 O                    -0.267227
     17 O                    -0.707902
     18 O                    -0.690438
     19 O                    -0.657411
  ----------------------------------------
  Sum of atomic charges =    -2.000000

 -----------------------------------------------------------------
                    Cartesian Multipole Moments
 -----------------------------------------------------------------
    Charge (ESU x 10^10)
                -9.6064
    Dipole Moment (Debye)
         X     -11.5700      Y       5.8555      Z      -8.3284
       Tot      15.4115
    Quadrupole Moments (Debye-Ang)
        XX    -161.0851     XY     -18.1863     YY     -90.5187
        XZ     -18.0896     YZ       5.1125     ZZ     -87.5672
    Octopole Moments (Debye-Ang^2)
       XXX    -382.6704    XXY      -4.1541    XYY     -33.9904
       YYY      48.9972    XXZ    -131.9330    XYZ      -8.2347
       YYZ     -32.3480    XZZ     -40.2498    YZZ      32.3392
       ZZZ     -67.5261
    Hexadecapole Moments (Debye-Ang^3)
      XXXX   -3859.8406   XXXY    -436.8729   XXYY    -654.2385
      XYYY    -256.1880   YYYY    -552.1797   XXXZ    -627.8581
      XXYZ      12.7791   XYYZ    -104.6511   YYYZ      53.7866
      XXZZ    -626.6427   XYZZ     -83.3543   YYZZ    -199.4345
      XZZZ    -299.0504   YZZZ      46.3702   ZZZZ    -470.1581
 -----------------------------------------------------------------
 Calculating analytic gradient of the SCF energy
 Gradient of SCF Energy
            1           2           3           4           5           6
    1  -0.1133674   0.0099270  -0.0248550   0.0660327   0.1224451   0.0241954
    2   0.0318679  -0.0591088  -0.0176393   0.0381940   0.0012423  -0.1009944
    3  -0.0482237  -0.0418996   0.0649072   0.0085138   0.0816132   0.0572741
            7           8           9          10          11          12
    1  -0.0096296   0.0280420  -0.0316566   0.0189196  -0.0161782   0.0373433
    2   0.0661166   0.0219290   0.0597208  -0.0479896  -0.0038563  -0.0138895
    3   0.0257174  -0.0659122  -0.0402794  -0.0365672   0.0588661   0.0192360
           13          14          15          16          17          18
    1  -0.0238855  -0.0202024  -0.0045232  -0.0118362  -0.0475558  -0.0070408
    2   0.0471361  -0.0018017   0.0280723  -0.0129587  -0.0300147   0.0510813
    3  -0.0208793  -0.0157264  -0.0236208   0.0014059  -0.0050543  -0.0225596
           19
    1   0.0038258
    2  -0.0571074
    3   0.0031889
 Max gradient component =       1.224E-01
 RMS gradient           =       4.395E-02
 Computing fast CPCM-ISWIG gradient
 Updating gradient with PCM contributions...
 -- total gradient after adding PCM contribution --
---------------------------------------------------
  Atom         X              Y              Z     
---------------------------------------------------
   1       0.000083       0.001067       0.000043
   2       0.000070      -0.000431      -0.000240
   3      -0.000043      -0.000128       0.000121
   4      -0.000224      -0.000226      -0.000017
   5       0.000106      -0.000208       0.000063
   6      -0.000003      -0.000001       0.000001
   7      -0.000004      -0.000004       0.000005
   8       0.000000       0.000006       0.000001
   9       0.000002      -0.000003      -0.000006
  10       0.000007      -0.000003      -0.000012
  11       0.000003      -0.000014      -0.000009
  12       0.000002      -0.000006      -0.000006
  13       0.000000       0.000001       0.000032
  14       0.000038      -0.000073       0.000026
  15      -0.000001       0.000003       0.000006
  16      -0.000036       0.000012      -0.000019
  17       0.000004      -0.000009      -0.000009
  18      -0.000002      -0.000002       0.000003
  19      -0.000003       0.000018       0.000016
---------------------------------------------------
 Number of fixed atoms: 0
 Gradient time:  CPU 1084.17 s  wall 77.87 s
 ----------------------------------------------------------------
             Standard Nuclear Orientation (Angstroms)
    I     Atom           X                Y                Z
 ----------------------------------------------------------------
    1      C      -2.5237682634     0.5744899536    -1.1210217930
    2      H      -2.7032237109     1.4782995569    -0.5309244732
    3      H      -2.1766731270     0.8655965720    -2.1161040086
    4      H      -3.4553037950     0.0137041691    -1.2140733478
    5      C      -1.4812477134    -0.2970435743    -0.4466614428
    6      C       0.8068855115    -0.1182091768     0.2758534937
    7      H       1.0784425244    -1.0462406355    -0.2376690994
    8      H       0.5319856965    -0.3703627160     1.3054564525
    9      C       1.9614106717     0.8635304391     0.2525618454
   10      H       1.6664902417     1.7986097558     0.7423274825
   11      H       2.2093873692     1.1232424470    -0.7833684203
   12      C       3.2471838340     0.3632916503     0.9288779232
   13      O      -1.9428158426    -0.5671102343     0.9087301814
   14      O      -1.2824608705    -1.5007640790    -1.0397259727
   15      H      -1.4062034348    -2.0877202148    -0.0798058029
   16      O      -0.3018358724     0.4959503348    -0.3792452693
   17      O       4.2092671417     1.1762610255     0.9549099004
   18      O       3.2598950214    -0.8018940595     1.4019211878
   19      O      -1.6974153806    -1.9646312094     1.1779611734
 ----------------------------------------------------------------
 Nuclear Repulsion Energy =   646.5815778294 hartrees
 There are       44 alpha and       44 beta electrons
 Discretize the solute cavity surface with Lebedev spheres
	Using 110 Lebedev grid points for each H atom
	Using 110 Lebedev grid points for other atoms
	Atomic van der Waals radii will be scaled by 1.20
 Remove points where switching function is < 1.0e-08
 Keep 1102 surface tesserae and discard 988 interior tesserae
 Molecular Surface Area = 198.085 Angst**2
 Requested basis set is def2-TZVPD
 There are 189 shells and 497 basis functions
 A cutoff of  1.0D-14 yielded  16007 shell pairs
 There are    110569 function pairs (    140818 Cartesian)
 Smallest overlap matrix eigenvalue = 3.22E-06
 Guess MOs from SCF MO coefficient file
 Reading MOs from coefficient file
 Reading MOs from coefficient file
 Long-range K will be added via erf
 Coulomb attenuation parameter = 0.3 bohr**(-1)
 A restricted hybrid HF-DFT SCF calculation will be
 performed using Pulay DIIS extrapolation
 Polarizable Continuum solvation model will be applied
 Exchange:     0.1670 Hartree-Fock + 1.0000 wB97X-V + LR-HF
 Correlation:  1.0000 wB97X-V
 Using SG-2 standard quadrature grid
 Nonlocal Correlation:  VV10 with C = 0.0100 and b = 6.00
 Grid used for NLC:  SG-1 standard quadrature
 SCF converges when DIIS error is below 1.0E-08
Using Q-Chem read-in guess as SCF_GUESS READ specified.

 using 16 threads for integral computing
 -------------------------------------------------------
 OpenMP Integral computing Module                
 Release: version 1.0, May 2013, Q-Chem Inc. Pittsburgh 
 -------------------------------------------------------
 using 16 threads for integral computing
 -------------------------------------------------------
 OpenMP Integral computing Module                
 Release: version 1.0, May 2013, Q-Chem Inc. Pittsburgh 
 -------------------------------------------------------
 -------------------------------------------------------
 OpenMP BLAS3 based DFT computing Module                
 Release: version 1.0, May 2013, Q-Chem Inc. Pittsburgh 
 -------------------------------------------------------
 -------------------------------------------------------
 OpenMP BLAS3 based DFT computing Module                
 Release: version 1.0, May 2013, Q-Chem Inc. Pittsburgh 
 -------------------------------------------------------
 -------------------------------------------------------
 OpenMP BLAS3 based DFT computing Module                
 Release: version 1.0, May 2013, Q-Chem Inc. Pittsburgh 
 -------------------------------------------------------
 ---------------------------------------
  Cycle       Energy         DIIS Error
 ---------------------------------------
    1    -646.6636424886      2.98E-04
    2    -646.9558351388      3.01E-04
    3    -646.9599523988      1.43E-04
    4    -646.9606471079      1.06E-04
    5    -646.9610993300      8.06E-05
    6    -646.9613481244      6.27E-05
    7    -646.9615705651      4.06E-05
    8    -646.9616948095      1.92E-05
    9    -646.9617284607      4.93E-06
   10    -646.9617306518      1.32E-06
   11    -646.9617308105      2.30E-07
   12    -646.9617308148      5.89E-08
   13    -646.9617308151      1.92E-08
   14    -646.9617308151      9.92E-09 Convergence criterion met
 ---------------------------------------

************** Final PCM Free Energy Summary **************
 G_electrostatic  =      -0.29773155 hartree =    -186.82936487 kcal/mol
 G_cavitation     =       0.00000000 hartree =       0.00000000 kcal/mol
 G_dispersion     =       0.00000000 hartree =       0.00000000 kcal/mol
 G_repulsion      =       0.00000000 hartree =       0.00000000 kcal/mol
 --------------------------------------------------
 Non-electrostatic Free Energy =       0.00000000 hartree =       0.00000000 kcal/mol
 Total                         =      -0.29773155 hartree =    -186.82936487 kcal/mol
 --------------------------------------------------
 SCF Energy (H0 + V/2)                       =    -646.96173082 
 Solute Internal Energy (H0)                 =    -646.66399927 
 Total Free Energy (H0 + V/2 + non-elec)     =    -646.96173082 hartree
                                             = -405974.61346104 kcal/mol
***********************************************************

 SCF time:  CPU 4456.48 s  wall 315.26 s
 SCF   energy in the final basis set = -646.96173082
 Total energy in the final basis set = -646.96173082
 
 --------------------------------------------------------------
 
                    Orbital Energies (a.u.)
 --------------------------------------------------------------
 
 Alpha MOs
 -- Occupied --
-19.223 -19.199 -19.176 -19.164 -19.141 -19.138 -10.386 -10.342
-10.291 -10.248 -10.245  -1.223  -1.145  -1.141  -1.085  -1.050
 -0.946  -0.878  -0.836  -0.743  -0.667  -0.633  -0.612  -0.587
 -0.576  -0.562  -0.528  -0.525  -0.510  -0.505  -0.487  -0.481
 -0.461  -0.451  -0.435  -0.426  -0.410  -0.384  -0.363  -0.347
 -0.341  -0.336  -0.331  -0.297
 -- Virtual --
  0.060   0.072   0.076   0.086   0.098   0.099   0.107   0.112
  0.125   0.127   0.132   0.141   0.143   0.155   0.159   0.162
  0.171   0.173   0.180   0.182   0.187   0.191   0.209   0.212
  0.218   0.229   0.237   0.242   0.245   0.249   0.252   0.268
  0.271   0.278   0.279   0.284   0.291   0.294   0.303   0.305
  0.310   0.318   0.328   0.331   0.334   0.339   0.344   0.351
  0.360   0.364   0.369   0.372   0.375   0.382   0.385   0.393
  0.399   0.402   0.408   0.413   0.414   0.420   0.424   0.430
  0.433   0.441   0.444   0.447   0.452   0.455   0.464   0.472
  0.475   0.478   0.484   0.492   0.496   0.506   0.508   0.515
  0.519   0.525   0.529   0.537   0.545   0.551   0.552   0.554
  0.560   0.567   0.570   0.584   0.588   0.591   0.596   0.602
  0.615   0.617   0.624   0.626   0.630   0.645   0.650   0.658
  0.664   0.669   0.675   0.684   0.691   0.700   0.717   0.723
  0.730   0.733   0.739   0.745   0.752   0.759   0.765   0.776
  0.780   0.784   0.788   0.797   0.804   0.807   0.810   0.823
  0.826   0.832   0.836   0.843   0.849   0.857   0.860   0.865
  0.871   0.873   0.885   0.893   0.900   0.913   0.916   0.925
  0.937   0.942   0.952   0.957   0.970   0.981   0.990   1.005
  1.017   1.020   1.035   1.041   1.059   1.070   1.073   1.096
  1.098   1.114   1.130   1.137   1.141   1.162   1.169   1.187
  1.197   1.204   1.212   1.223   1.240   1.259   1.261   1.274
  1.281   1.294   1.309   1.319   1.331   1.334   1.348   1.369
  1.380   1.394   1.404   1.423   1.439   1.452   1.469   1.470
  1.485   1.501   1.513   1.542   1.548   1.563   1.614   1.621
  1.636   1.662   1.707   1.745   1.763   1.769   1.815   1.833
  1.856   1.890   1.901   1.920   1.930   1.941   1.949   1.957
  1.964   1.971   1.984   1.995   2.001   2.011   2.030   2.031
  2.047   2.061   2.082   2.091   2.111   2.167   2.178   2.197
  2.206   2.220   2.233   2.242   2.245   2.274   2.283   2.288
  2.330   2.332   2.342   2.362   2.370   2.389   2.409   2.441
  2.463   2.470   2.480   2.484   2.498   2.503   2.524   2.538
  2.573   2.619   2.624   2.639   2.648   2.655   2.684   2.695
  2.715   2.721   2.726   2.760   2.777   2.780   2.820   2.845
  2.875   2.889   2.907   2.927   2.947   2.955   2.958   2.980
  2.984   3.026   3.043   3.065   3.080   3.091   3.104   3.121
  3.156   3.199   3.231   3.234   3.245   3.251   3.264   3.295
  3.303   3.321   3.353   3.361   3.369   3.374   3.397   3.421
  3.430   3.455   3.460   3.475   3.501   3.515   3.527   3.537
  3.543   3.562   3.574   3.580   3.610   3.614   3.631   3.654
  3.661   3.679   3.683   3.696   3.706   3.727   3.735   3.745
  3.762   3.767   3.778   3.794   3.822   3.864   3.870   3.906
  3.944   3.968   3.973   3.986   4.044   4.086   4.101   4.162
  4.179   4.202   4.223   4.226   4.261   4.272   4.337   4.426
  4.444   4.541   4.618   4.632   4.641   4.653   4.697   4.717
  4.785   4.818   4.827   4.887   4.948   4.955   4.992   5.031
  5.077   5.138   5.143   5.231   5.253   5.284   5.316   5.323
  5.342   5.362   5.374   5.384   5.491   5.505   5.522   5.572
  5.585   5.620   5.671   5.696   5.711   5.726   5.748   5.756
  5.779   5.879   5.945   6.007   6.045   6.104   6.124   6.148
  6.248   6.271   6.314   6.331   6.337   6.390   6.421   6.469
  6.556   6.621   6.631   6.638   6.666   6.691   6.702   6.748
  6.775   6.809   6.854   6.861   6.944   6.962   6.969   7.014
  7.046   7.049   7.097   7.129   7.209   7.230   7.258   7.262
  7.329   7.363   7.409   7.412   7.417   7.554   7.647   7.688
  7.747   8.334  22.692  22.860  22.946  23.146  23.739  44.246
 44.267  44.439  44.537  44.687  44.760
 --------------------------------------------------------------
 
          Ground-State Mulliken Net Atomic Charges

     Atom                 Charge (a.u.)
  ----------------------------------------
      1 C                    -1.183323
      2 H                     0.234192
      3 H                     0.248491
      4 H                     0.248890
      5 C                     0.719057
      6 C                    -0.231616
      7 H                     0.182060
      8 H                     0.194068
      9 C                    -0.088694
     10 H                     0.236863
     11 H                     0.241901
     12 C                     0.041390
     13 O                    -0.254047
     14 O                    -0.675221
     15 H                     0.409049
     16 O                    -0.267318
     17 O                    -0.707897
     18 O                    -0.690437
     19 O                    -0.657407
  ----------------------------------------
  Sum of atomic charges =    -2.000000

 -----------------------------------------------------------------
                    Cartesian Multipole Moments
[...]
 Red. Mass:       1.9633                 2.5671                 2.4446
 IR Active:          YES                    YES                    YES
 IR Intens:       22.771                 58.988                357.761
 Raman Active:       YES                    YES                    YES
               X      Y      Z        X      Y      Z        X      Y      Z
 C         -0.010 -0.003 -0.006    0.045  0.026 -0.016   -0.135 -0.070  0.056
 H          0.015 -0.006  0.006   -0.070 -0.033  0.037    0.222  0.142 -0.153
 H         -0.009  0.015 -0.001   -0.128  0.035 -0.069    0.398 -0.088  0.219
 H         -0.028  0.028 -0.012    0.113 -0.115  0.120   -0.327  0.345 -0.385
 C          0.001 -0.013  0.006   -0.031 -0.030  0.021    0.209  0.110 -0.085
 C         -0.071  0.071  0.100    0.203  0.149  0.013   -0.007  0.108 -0.051
 H          0.060  0.321 -0.301    0.396  0.216  0.019    0.023  0.119 -0.049
 H         -0.008 -0.429 -0.008    0.365  0.182  0.051    0.031  0.137 -0.037
 C          0.049 -0.068 -0.147   -0.107 -0.195  0.036   -0.050 -0.080  0.021
 H          0.356 -0.204  0.321   -0.342 -0.259  0.009   -0.050 -0.079  0.017
 H         -0.378  0.288 -0.150   -0.407 -0.244 -0.043   -0.022 -0.084  0.027
 C         -0.057  0.061  0.154    0.010  0.006  0.013    0.008 -0.004 -0.001
 O         -0.003  0.000  0.001    0.007  0.008 -0.012   -0.019 -0.010  0.012
 O          0.005  0.011  0.001    0.008  0.023 -0.004   -0.043 -0.021  0.035
 H         -0.104 -0.017 -0.021   -0.093 -0.013  0.026    0.354  0.092 -0.059
 O          0.043 -0.028 -0.017   -0.110  0.008 -0.046    0.004 -0.076  0.047
 O          0.014 -0.008 -0.027    0.019 -0.000  0.005    0.012  0.003  0.005
 O          0.009 -0.010 -0.030   -0.008  0.014 -0.011   -0.004  0.015 -0.006
 O          0.003 -0.001  0.002    0.003 -0.005  0.007   -0.010  0.005 -0.020
 TransDip  -0.138 -0.001  0.066    0.160 -0.092  0.163    0.422  0.322 -0.291

 Mode:                31                     32                     33
 Frequency:      1218.06                1224.52                1288.49
 Force Cnst:      2.6684                 1.0647                 1.4900
 Red. Mass:       3.0526                 1.2052                 1.5233
 IR Active:          YES                    YES                    YES
 IR Intens:      665.227                  2.280                 48.614
 Raman Active:       YES                    YES                    YES
               X      Y      Z        X      Y      Z        X      Y      Z
 C         -0.035 -0.028 -0.117    0.001  0.001  0.001    0.002 -0.009 -0.010
 H          0.040 -0.080  0.035    0.001  0.001 -0.000    0.021 -0.017  0.014
 H         -0.298  0.435 -0.076   -0.003 -0.004 -0.002   -0.003  0.043  0.004
 H         -0.285  0.348  0.034    0.005 -0.005  0.002   -0.019  0.022  0.026
 C          0.192 -0.017  0.312   -0.002 -0.001 -0.001    0.006  0.032  0.031
 C          0.032 -0.034  0.025   -0.028  0.042  0.093   -0.022 -0.041  0.014
 H         -0.169 -0.041 -0.055   -0.439  0.168 -0.336    0.335  0.022  0.093
 H         -0.144 -0.032 -0.026    0.475 -0.238  0.164    0.353  0.013  0.126
 C          0.029  0.025 -0.001   -0.000  0.001  0.004   -0.161 -0.032 -0.044
 H         -0.022  0.014 -0.009   -0.407 -0.071 -0.099    0.533  0.044  0.219
 H         -0.075  0.001 -0.031    0.374  0.077  0.115    0.574  0.018  0.148
 C          0.006  0.003  0.006    0.019 -0.019 -0.046   -0.047 -0.006 -0.018
 O          0.000  0.011 -0.057   -0.001 -0.003  0.002   -0.000 -0.006 -0.004
 O         -0.024  0.002 -0.101    0.002  0.005  0.001   -0.000 -0.017 -0.016
 H          0.239 -0.008  0.453    0.005  0.002  0.003   -0.003  0.006  0.066
 O         -0.074  0.001 -0.050    0.013 -0.021 -0.045   -0.005  0.033 -0.020
 O         -0.013 -0.009 -0.002   -0.005  0.002  0.007    0.062  0.041  0.007
 O          0.002  0.002 -0.001   -0.002  0.003  0.007   -0.002 -0.019  0.008
 O         -0.015 -0.009  0.021   -0.001  0.001  0.000   -0.002  0.000  0.003
 TransDip   0.308 -0.040  0.765   -0.003  0.008  0.048   -0.118 -0.102  0.160

 Mode:                34                     35                     36
 Frequency:      1301.08                1340.03                1404.50
 Force Cnst:      1.1005                 2.6987                 1.8338
 Red. Mass:       1.1034                 2.5508                 1.5778
 IR Active:          YES                    YES                    YES
 IR Intens:        1.752                367.345                 30.738
 Raman Active:       YES                    YES                    YES
               X      Y      Z        X      Y      Z        X      Y      Z
 C          0.000  0.001  0.001   -0.034 -0.022 -0.069    0.062 -0.064  0.038
 H         -0.020  0.009 -0.015    0.373 -0.209  0.345   -0.169  0.083 -0.247
 H         -0.021  0.009 -0.006    0.418 -0.022  0.109   -0.231  0.207  0.012
 H         -0.008  0.016 -0.012    0.079 -0.242  0.355   -0.111  0.245 -0.091
 C          0.010 -0.016  0.004   -0.125  0.287  0.062   -0.019  0.060 -0.003
 C         -0.018  0.021  0.046   -0.014  0.027 -0.010   -0.131 -0.036 -0.030
 H          0.498  0.129  0.110    0.070  0.054 -0.007    0.479  0.024  0.174
 H         -0.478 -0.148 -0.122   -0.046  0.017 -0.023    0.513  0.007  0.159
 C          0.019 -0.024 -0.055    0.025 -0.010  0.004    0.065 -0.006  0.027
 H         -0.437 -0.173 -0.044   -0.132 -0.036 -0.039   -0.121  0.069 -0.207
 H          0.420  0.199  0.097   -0.055  0.013 -0.010   -0.196  0.155 -0.005
 C          0.010 -0.010 -0.025    0.018 -0.004  0.006    0.071 -0.010  0.031
 O         -0.001  0.004 -0.001    0.024 -0.044 -0.023    0.002 -0.008 -0.001
 O         -0.002  0.004  0.001    0.032 -0.104 -0.064    0.004 -0.022 -0.008
 H         -0.001 -0.006 -0.006   -0.130  0.087  0.359   -0.030  0.022  0.038
 O         -0.007  0.010  0.016    0.025 -0.039  0.013    0.003  0.019 -0.009
 O         -0.002  0.001  0.003   -0.013 -0.009 -0.001   -0.048 -0.031 -0.005
 O         -0.001  0.001  0.003   -0.001  0.011 -0.005   -0.005  0.034 -0.016
 O          0.000 -0.001 -0.000   -0.005 -0.003  0.016   -0.000 -0.001  0.002
 TransDip   0.015 -0.037 -0.014   -0.122  0.351  0.489   -0.007  0.172  0.044

 Mode:                37                     38                     39
 Frequency:      1418.85                1434.48                1460.28
 Force Cnst:      2.1353                 5.5004                 1.5905
 Red. Mass:       1.8002                 4.5369                 1.2660
 IR Active:          YES                    YES                    YES
 IR Intens:      116.216                363.079                 24.204
 Raman Active:       YES                    YES                    YES
               X      Y      Z        X      Y      Z        X      Y      Z
 C          0.117 -0.104  0.065    0.003  0.009 -0.000    0.010 -0.003  0.003
 H         -0.307  0.085 -0.343   -0.018 -0.027  0.046   -0.042 -0.021  0.013
 H         -0.352  0.268  0.010   -0.017 -0.062 -0.027   -0.017 -0.026 -0.011
 H         -0.167  0.392 -0.113    0.006  0.002 -0.021   -0.017  0.041 -0.005
 C         -0.105  0.113 -0.029   -0.013 -0.018 -0.002   -0.013  0.006 -0.005
 C          0.084  0.037  0.014    0.035 -0.002  0.012    0.065  0.022  0.013
 H         -0.302  0.010 -0.130   -0.133 -0.013 -0.061   -0.175 -0.051  0.018
 H         -0.336  0.018 -0.108   -0.153  0.007 -0.034   -0.152 -0.085 -0.071
 C         -0.033  0.006 -0.016   -0.153  0.074 -0.087   -0.072 -0.081  0.010
 H          0.027 -0.082  0.172    0.116 -0.175  0.535    0.255  0.324 -0.532
 H          0.104 -0.161 -0.017    0.331 -0.454 -0.095   -0.005  0.643  0.192
 C         -0.044  0.004 -0.018    0.343 -0.133  0.180    0.059 -0.010  0.026
 O          0.012 -0.013 -0.007    0.001  0.002 -0.000    0.001 -0.001 -0.001
 O          0.015 -0.031 -0.010    0.001  0.006  0.002    0.001 -0.001 -0.000
 H         -0.061  0.048  0.084    0.001 -0.004 -0.007    0.001  0.005  0.007
 O          0.015 -0.031  0.016    0.021  0.004  0.006    0.000 -0.006  0.003
 O          0.029  0.019  0.003   -0.161 -0.106 -0.017   -0.025 -0.018 -0.002
 O          0.003 -0.018  0.009   -0.032  0.193 -0.089   -0.005  0.022 -0.011
 O         -0.001 -0.004  0.005    0.000  0.000 -0.000   -0.000 -0.000  0.000
 TransDip  -0.275  0.208  0.026    0.487 -0.250  0.269    0.132  0.081  0.030

 Mode:                40                     41                     42
 Frequency:      1468.43                1471.21                1512.71
 Force Cnst:      1.3328                 1.3639                 1.4806
 Red. Mass:       1.0491                 1.0695                 1.0982
 IR Active:          YES                    YES                    YES
 IR Intens:        1.252                  6.565                 13.587
 Raman Active:       YES                    YES                    YES
               X      Y      Z        X      Y      Z        X      Y      Z
 C         -0.035 -0.017  0.034   -0.018 -0.031 -0.033    0.000  0.000 -0.000
 H          0.562  0.308 -0.288   -0.133  0.166 -0.346    0.002  0.008 -0.012
 H         -0.232  0.351  0.059    0.408  0.481  0.270    0.005  0.015  0.007
 H          0.246 -0.409 -0.302   -0.050 -0.064  0.588    0.006 -0.011  0.013
 C         -0.022 -0.003  0.019    0.003 -0.046 -0.024   -0.005 -0.009 -0.001
 C          0.009  0.002  0.001    0.006  0.001  0.002   -0.010 -0.080  0.033
 H         -0.023 -0.009  0.005   -0.023 -0.015  0.013    0.136  0.338 -0.600
 H         -0.026 -0.014 -0.012   -0.008 -0.023 -0.007   -0.141  0.664  0.157
 C         -0.006 -0.002 -0.001   -0.006  0.000 -0.002    0.003 -0.007  0.003
 H          0.014  0.010 -0.013    0.012  0.006 -0.002    0.028  0.038 -0.064
 H          0.008  0.020  0.007    0.008  0.007  0.003    0.001  0.079  0.023
 C          0.004 -0.002  0.002    0.005 -0.002  0.003    0.011  0.010  0.000
 O          0.002 -0.000 -0.002   -0.002  0.005  0.005    0.000  0.001 -0.000
 O          0.003 -0.001 -0.005   -0.002  0.011  0.009    0.000  0.003  0.001
 H         -0.009 -0.007  0.023    0.014 -0.019 -0.062   -0.004 -0.001 -0.006
 O          0.001  0.000 -0.001   -0.001  0.005  0.000    0.006 -0.003  0.004
 O         -0.001 -0.001 -0.000   -0.002 -0.001 -0.000   -0.008 -0.005 -0.001
 O         -0.000  0.002 -0.001   -0.001  0.003 -0.001   -0.001 -0.002  0.001
 O         -0.000  0.000  0.001    0.001  0.001 -0.002    0.001  0.001 -0.000
 TransDip   0.033 -0.000  0.014    0.050 -0.011 -0.064    0.076  0.087 -0.024

 Mode:                43                     44                     45
 Frequency:      1588.21                2075.52                3057.18
 Force Cnst:     15.3566                 2.6284                 5.8396
 Red. Mass:      10.3331                 1.0356                 1.0604
 IR Active:          YES                    YES                    YES
 IR Intens:     1283.514                190.990                  8.123
 Raman Active:       YES                    YES                    YES
               X      Y      Z        X      Y      Z        X      Y      Z
 C          0.000 -0.001  0.001   -0.002  0.003 -0.001   -0.002  0.001 -0.002
 H          0.000 -0.001 -0.001   -0.002  0.002 -0.005    0.004 -0.022 -0.014
 H         -0.002 -0.000  0.000   -0.002  0.005 -0.001   -0.013 -0.010  0.035
 H         -0.001  0.003 -0.003    0.001 -0.005  0.003    0.028  0.018  0.003
 C         -0.002  0.005 -0.002    0.005 -0.039  0.008   -0.001 -0.002  0.000
 C         -0.003  0.029 -0.014   -0.001 -0.000 -0.000   -0.003 -0.036  0.013
 H         -0.025 -0.020  0.079   -0.003 -0.002  0.001   -0.103  0.347  0.206
 H          0.024 -0.074 -0.040   -0.001 -0.001 -0.000    0.102  0.080 -0.373
 C         -0.056 -0.044 -0.003   -0.000  0.000 -0.000    0.000  0.050 -0.029
 H          0.201 -0.084  0.245    0.001 -0.000  0.000    0.143 -0.443 -0.247
 H          0.251 -0.171  0.032    0.000 -0.000  0.001   -0.144 -0.135  0.588
 C          0.307  0.693 -0.166   -0.000  0.000 -0.000    0.002 -0.000  0.001
 O          0.000 -0.000  0.000    0.003 -0.011 -0.004   -0.000  0.000 -0.000
 O          0.001 -0.001 -0.000    0.000 -0.019  0.006   -0.000  0.000 -0.000
 H         -0.003  0.002  0.001   -0.129  0.990 -0.003    0.002 -0.001  0.001
 O          0.002 -0.006  0.003    0.001  0.003  0.000    0.002 -0.000  0.001
 O         -0.207 -0.193  0.002    0.000  0.000  0.000   -0.000 -0.000 -0.000
 O         -0.009 -0.288  0.113    0.000 -0.000  0.000    0.000  0.000 -0.000
 O         -0.000 -0.000  0.000    0.003 -0.008 -0.007   -0.000  0.000 -0.000
 TransDip   0.487  1.014 -0.227    0.029  0.329 -0.294    0.085  0.033 -0.007

 Mode:                46                     47                     48
 Frequency:      3059.54                3063.60                3090.12
 Force Cnst:      5.8154                 5.7385                 6.2025
 Red. Mass:       1.0544                 1.0377                 1.1025
 IR Active:          YES                    YES                    YES
 IR Intens:       62.741                 47.665                  0.221
 Raman Active:       YES                    YES                    YES
               X      Y      Z        X      Y      Z        X      Y      Z
 C          0.010 -0.011  0.007   -0.029  0.030 -0.021    0.000 -0.000  0.000
 H         -0.032  0.165  0.111    0.089 -0.470 -0.314   -0.001  0.006  0.004
 H          0.066  0.051 -0.181   -0.184 -0.143  0.506    0.001  0.001 -0.004
 H         -0.147 -0.092 -0.014    0.421  0.264  0.038   -0.003 -0.002 -0.000
 C          0.000  0.002 -0.001    0.003 -0.001  0.001   -0.000  0.000  0.000
 C          0.001  0.047 -0.018    0.001  0.017 -0.009   -0.017  0.021  0.048
 H          0.139 -0.461 -0.272    0.050 -0.166 -0.097    0.100 -0.357 -0.194
 H         -0.133 -0.105  0.491   -0.058 -0.046  0.212    0.106  0.098 -0.388
 C         -0.002  0.034 -0.017    0.000  0.008 -0.007    0.023 -0.032 -0.063
 H          0.103 -0.324 -0.180    0.021 -0.067 -0.037   -0.164  0.518  0.265
 H         -0.094 -0.088  0.380   -0.029 -0.028  0.117   -0.115 -0.132  0.500
 C          0.001  0.001 -0.000    0.000  0.000 -0.000    0.000 -0.000 -0.001
 O          0.000 -0.000  0.000   -0.000  0.000  0.000   -0.000 -0.000 -0.000
 O          0.000 -0.001  0.000    0.000  0.000 -0.000    0.000 -0.000  0.000
 H         -0.002  0.000 -0.001    0.000 -0.002  0.001   -0.001 -0.000  0.001
 O         -0.002  0.000 -0.001   -0.001  0.000 -0.000   -0.000  0.000  0.000
 O         -0.000 -0.000  0.000   -0.000 -0.000  0.000   -0.000  0.000  0.000
 O         -0.000 -0.001  0.000   -0.000 -0.000  0.000    0.000 -0.000 -0.000
 O          0.000 -0.000  0.000    0.000  0.000 -0.000   -0.000  0.000 -0.000
 TransDip  -0.029  0.229 -0.105   -0.097  0.164 -0.112    0.004 -0.015 -0.002

 Mode:                49                     50                     51
 Frequency:      3112.29                3142.47                3153.37
 Force Cnst:      6.3160                 6.4188                 6.4686
 Red. Mass:       1.1067                 1.1032                 1.1041
 IR Active:          YES                    YES                    YES
 IR Intens:       87.145                 35.387                 36.381
 Raman Active:       YES                    YES                    YES
               X      Y      Z        X      Y      Z        X      Y      Z
 C          0.001 -0.001  0.001    0.022 -0.037 -0.082   -0.066 -0.065  0.012
 H         -0.003  0.018  0.012   -0.115  0.604  0.387   -0.061  0.250  0.173
 H          0.010  0.008 -0.027   -0.218 -0.188  0.612    0.130  0.104 -0.395
 H         -0.016 -0.010 -0.001    0.070  0.034 -0.008    0.719  0.435  0.072
 C         -0.000 -0.000 -0.000    0.000 -0.001 -0.002   -0.001 -0.002  0.000
 C          0.024 -0.028 -0.068    0.000  0.000 -0.001    0.000  0.000  0.000
 H         -0.126  0.465  0.255   -0.000 -0.001 -0.001   -0.000 -0.002 -0.001
 H         -0.155 -0.137  0.550   -0.002 -0.002  0.009   -0.000  0.001 -0.002
 C          0.017 -0.024 -0.047    0.000 -0.000  0.000   -0.000 -0.000  0.000
 H         -0.117  0.382  0.197   -0.002  0.005  0.003   -0.000  0.000  0.000
 H         -0.088 -0.096  0.363    0.001  0.001 -0.004    0.001  0.001 -0.005
 C         -0.000 -0.000 -0.000   -0.000  0.000 -0.000   -0.000  0.000 -0.000
 O          0.000 -0.000  0.000    0.000  0.000  0.000    0.000  0.000 -0.000
 O         -0.000  0.000  0.000   -0.000  0.000  0.000    0.000  0.000  0.000
 H          0.001  0.000 -0.002    0.001  0.002 -0.004   -0.000  0.001 -0.001
 O         -0.000  0.000  0.000   -0.000  0.000  0.000    0.000  0.000 -0.000
 O          0.000  0.000  0.000    0.000  0.000  0.000    0.000  0.000 -0.000
 O          0.000  0.000  0.000    0.000 -0.000  0.000   -0.000 -0.000  0.000
 O          0.000 -0.000  0.000   -0.000 -0.000  0.000   -0.000  0.000 -0.000
 TransDip   0.094 -0.128 -0.253    0.044 -0.076 -0.169   -0.131 -0.139  0.027

 STANDARD THERMODYNAMIC QUANTITIES AT   298.15 K  AND     1.00 ATM

   This Molecule has  1 Imaginary Frequencies
   Zero point vibrational energy:       84.739 kcal/mol

   Atom    1 Element C  Has Mass   12.00000
   Atom    2 Element H  Has Mass    1.00783
   Atom    3 Element H  Has Mass    1.00783
   Atom    4 Element H  Has Mass    1.00783
   Atom    5 Element C  Has Mass   12.00000
   Atom    6 Element C  Has Mass   12.00000
   Atom    7 Element H  Has Mass    1.00783
   Atom    8 Element H  Has Mass    1.00783
   Atom    9 Element C  Has Mass   12.00000
   Atom   10 Element H  Has Mass    1.00783
   Atom   11 Element H  Has Mass    1.00783
   Atom   12 Element C  Has Mass   12.00000
   Atom   13 Element O  Has Mass   15.99491
   Atom   14 Element O  Has Mass   15.99491
   Atom   15 Element H  Has Mass    1.00783
   Atom   16 Element O  Has Mass   15.99491
   Atom   17 Element O  Has Mass   15.99491
   Atom   18 Element O  Has Mass   15.99491
   Atom   19 Element O  Has Mass   15.99491
   Molecular Mass:   164.032100 amu
   Principal axes and moments of inertia in amu*Bohr^2:
                             1           2           3
    Eigenvalues --      768.50633  3614.47425  4023.12250
          X               0.95813    -0.04341    -0.28302
          Y               0.19931     0.81077     0.55038
          Z               0.20557    -0.58375     0.78548
   Rotational Symmetry Number is   1
   The Molecule is an Asymmetric Top
   Translational Enthalpy:        0.889 kcal/mol
   Rotational Enthalpy:           0.889 kcal/mol
   Vibrational Enthalpy:         89.960 kcal/mol
   gas constant (RT):             0.592 kcal/mol
   Translational Entropy:        41.193  cal/mol.K
   Rotational Entropy:           30.792  cal/mol.K
   Vibrational Entropy:          35.194  cal/mol.K

   Total Enthalpy:               92.330 kcal/mol
   Total Entropy:               107.178  cal/mol.K
Archival summary:
1\1\c5-80\FREQ\ProcedureUnspecified\BasisUnspecified\658(2-,1)\lmgong\SunMar800:33:182020SunMar800:33:182020\0\\#,FREQ,ProcedureUnspecified,BasisUnspecified,\\-2,1\O\C,1,1.42281\O,2,1.35653,1,113.191\H,3,1.13193,2,94.2067,1,109.802,0\O,4,1.29689,3,142.919,2,4.27694,0\C,1,1.42675,2,115.214,3,-56.18,0\H,6,1.09485,1,110.015,2,59.2338,0\H,6,1.0951,1,109.617,2,-59.3153,0\O,5,1.44422,4,87.0882,3,3.91334,0\C,6,1.51568,1,107.822,2,-179.995,0\H,10,1.096,6,109.925,1,57.9101,0\H,10,1.0964,6,109.891,1,-58.7685,0\C,2,1.51754,1,105.668,3,-126.218,0\H,13,1.0918,2,109.157,1,179.277,0\H,13,1.09308,2,109.815,1,59.5142,0\H,13,1.09338,2,110.345,1,-60.5681,0\C,10,1.53651,6,114.821,1,179.683,0\O,17,1.25761,10,118.403,6,2.02615,0\O,17,1.25984,10,115.979,6,-178.098,0\\\@

 Total job time:  47779.13s(wall), 672079.40s(cpu) 
 Sun Mar  8 00:33:18 2020

        *************************************************************
        *                                                           *
        *  Thank you very much for using Q-Chem.  Have a nice day.  *
        *                                                           *
        *************************************************************


