
Running Job 1 of 1 qc-freq2.in
qchem qc-freq2.in_4255.0 /scratch/leeping/1862943/qc-freq2.d/ 1
/home/leeping/opt/qchem/5.0.2-openmp/exe/qcprog.exe_s qc-freq2.in_4255.0 /scratch/leeping/1862943/qc-freq2.d/
Check license passed

                  Welcome to Q-Chem
     A Quantum Leap Into The Future Of Chemistry


 Q-Chem 5.0, Q-Chem, Inc., Pleasanton, CA (2017)

 Yihan Shao,  Zhengting Gan,  E. Epifanovsky,  A. T. B. Gilbert,  M. Wormit,  
 J. Kussmann,  A. W. Lange,  A. Behn,  Jia Deng,  Xintian Feng,  D. Ghosh,  
 M. Goldey,  P. R. Horn,  L. D. Jacobson,  I. Kaliman,  T. Kus,  A. Landau,  
 Jie Liu,  E. I. Proynov,  R. M. Richard,  R. P. Steele,  E. J. Sundstrom,  
 H. L. Woodcock III,  P. M. Zimmerman,  D. Zuev,  B. Albrecht,  E. Alguire,  
 S. A. Baeppler,  D. Barton,  Z. Benda,  Y. A. Bernard,  E. J. Berquist,  
 K. B. Bravaya,  H. Burton,  D. Casanova,  Chun-Min Chang,  Yunqing Chen,  
 A. Chien,  K. D. Closser,  M. P. Coons,  S. Dasgupta,  A. L. Dempwolff,  
 M. Diedenhofen,  Hainam Do,  R. G. Edgar,  Po-Tung Fang,  S. Fatehi,  
 Qingguo Feng,  J. Fosso-Tande,  Qinghui Ge,  A. Ghysels,  G. Gidofalvi,  
 J. Gomes,  J. Gonthier,  A. Gunina,  M. W. D. Hanson-Heine,  
 P. H. P. Harbach,  A. W. Hauser,  J. E. Herr,  E. G. Hohenstein,  
 Z. C. Holden,  Kerwin Hui,  T.-C. Jagau,  Hyunjun Ji,  B. Kaduk,  
 K. Khistyaev,  Jaehoon Kim,  P. Klunzinger,  K. Koh,  D. Kosenkov,  
 L. Koulias,  T. Kowalczyk,  C. M. Krauter,  A. Kunitsa,  Ka Un Lao,  
 A. Laurent,  K. V. Lawler,  Joonho Lee,  D. Lefrancois,  S. Lehtola,  
 D. S. Levine,  Yi-Pei Li,  You-Sheng Lin,  Fenglai Liu,  E. Livshits,  
 A. Luenser,  P. Manohar,  E. Mansoor,  S. F. Manzer,  Shan-Ping Mao,  
 Yuezhi Mao,  N. Mardirossian,  A. V. Marenich,  T. Markovich,  
 L. A. Martinez-Martinez,  S. A. Maurer,  N. J. Mayhall,  S. C. McKenzie,  
 J.-M. Mewes,  A. F. Morrison,  J. W. Mullinax,  K. Nanda,  
 T. S. Nguyen-Beck,  R. Olivares-Amaya,  J. A. Parkhill,  T. M. Perrine,  
 F. Plasser,  S. Prager,  A. Prociuk,  E. Ramos,  D. R. Rehn,  F. Rob,  
 M. Schneider,  N. Sergueev,  S. M. Sharada,  S. Sharma,  D. W. Small,  
 T. Stauch,  T. Stein,  Yu-Chuan Su,  A. J. W. Thom,  A. Tkatchenko,  
 T. Tsuchimochi,  L. Vogt,  O. Vydrov,  M. A. Watson,  J. Wenzel,  
 M. de Wergifosse,  T. A. Wesolowski,  A. White,  J. Witte,  A. Yamada,  
 Jun Yang,  K. Yao,  S. Yeganeh,  S. R. Yost,  Zhi-Qiang You,  A. Zech,  
 Igor Ying Zhang,  Xing Zhang,  Yan Zhao,  Ying Zhu,  B. R. Brooks,  
 G. K. L. Chan,  C. J. Cramer,  M. S. Gordon,  W. J. Hehre,  A. Klamt,  
 M. W. Schmidt,  C. D. Sherrill,  D. G. Truhlar,  A. Aspuru-Guzik,  R. Baer,  
 A. T. Bell,  N. A. Besley,  Jeng-Da Chai,  R. A. DiStasio Jr.,  A. Dreuw,  
 B. D. Dunietz,  T. R. Furlani,  Chao-Ping Hsu,  Yousung Jung,  Jing Kong,  
 D. S. Lambrecht,  WanZhen Liang,  C. Ochsenfeld,  V. A. Rassolov,  
 L. V. Slipchenko,  J. E. Subotnik,  T. Van Voorhis,  J. M. Herbert,  
 A. I. Krylov,  P. M. W. Gill,  M. Head-Gordon

 Contributors to earlier versions of Q-Chem not listed above: 
 R. D. Adamson,  B. Austin,  J. Baker,  G. J. O. Beran,  K. Brandhorst,  
 S. T. Brown,  E. F. C. Byrd,  A. K. Chakraborty,  C.-L. Cheng,  
 Siu Hung Chien,  D. M. Chipman,  D. L. Crittenden,  H. Dachsel,  
 R. J. Doerksen,  A. D. Dutoi,  L. Fusti-Molnar,  W. A. Goddard III,  
 A. Golubeva-Zadorozhnaya,  S. R. Gwaltney,  G. Hawkins,  A. Heyden,  
 S. Hirata,  G. Kedziora,  F. J. Keil,  C. Kelley,  Jihan Kim,  R. A. King,  
 R. Z. Khaliullin,  P. P. Korambath,  W. Kurlancheek,  A. M. Lee,  M. S. Lee,  
 S. V. Levchenko,  Ching Yeh Lin,  D. Liotard,  R. C. Lochan,  I. Lotan,  
 P. E. Maslen,  N. Nair,  D. P. O'Neill,  D. Neuhauser,  E. Neuscamman,  
 C. M. Oana,  R. Olson,  B. Peters,  R. Peverati,  P. A. Pieniazek,  
 Y. M. Rhee,  J. Ritchie,  M. A. Rohrdanz,  E. Rosta,  N. J. Russ,  
 H. F. Schaefer III,  N. E. Schultz,  N. Shenvi,  A. C. Simmonett,  A. Sodt,  
 D. Stuck,  K. S. Thanthiriwatte,  V. Vanovschi,  Tao Wang,  A. Warshel,  
 C. F. Williams,  Q. Wu,  X. Xu,  W. Zhang

 Please cite Q-Chem as follows:
 Y. Shao et al., Mol. Phys. 113, 184-215 (2015)
 DOI: 10.1080/00268976.2014.952696

 Q-Chem 5.0.2 for Intel X86 EM64T Linux

 Parts of Q-Chem use Armadillo 5.200.1 (Boston Tea Smuggler).
 http://arma.sourceforge.net/

 Q-Chem begins on Sat Mar 21 02:43:12 2020  

Host: 
0

     Scratch files written to /scratch/leeping/1862943/qc-freq2.d//
 Dec517 15110_ 26548  26544 5633   
Processing $rem in /home/leeping/opt/qchem/5.0.2-openmp/config/preferences.
 MEM_STATIC 2000
 MEM_TOTAL  8000
 SYMMETRY   OFF
 SYM_IGNORE TRUE 
Symmetry turned off for PCM/SM12/SMD calculation

Checking the input file for inconsistencies... 	...done.

--------------------------------------------------------------
User input:
--------------------------------------------------------------
$molecule
-2 1
C       -2.4969400900    0.6916302414   -1.1181481305
H       -2.6809200399    1.5449913314   -0.4603702744
H       -2.1174457264    1.0572767904   -2.0755443337
H       -3.4318804402    0.1524525555   -1.2818162152
C       -1.4852051477   -0.2440540859   -0.4855285227
C        0.7873991051   -0.1488199785    0.3092537118
H        1.0500667530   -1.0671161440   -0.2268171969
H        0.4819538620   -0.4272912544    1.3225333815
C        1.9632896160    0.8069449108    0.3420973993
H        1.6749875569    1.7347264436    0.8494997924
H        2.2446366637    1.0887865698   -0.6793302810
C        3.2182080858    0.2600927633    1.0396191339
O       -1.9772959547   -0.6245814037    0.8044944612
O       -1.2876800778   -1.3958884729   -1.2106069046
H       -1.3601116958   -2.0614525151   -0.4147688838
O       -0.2909486750    0.5123024199   -0.3526121249
O        4.2001168001    1.0467683745    1.1054672795
O        3.1880135203   -0.9136488893    1.4898414867
O       -1.6737896154   -2.0240306769    1.0375159477
$end

$rem
jobtype               freq
method                wb97x-v
basis                 def2-tzvpd
symmetry              off
sym_ignore            true
unrestricted          false
incdft                false
incfock               0
!scf_algorithm        diis_gdm
scf_convergence       8
thresh                14
!purecart             112
max_scf_cycles        1000
geom_opt_max_cycles   900
geom_opt_dmax         100
geom_opt_tol_gradient 10
solvent_method        pcm
ideriv                1
rpath_tol_displacement 1000
rpath_max_cycles      100
rpath_direction       1
!scf_guess            read
scf_guess             read
$end

$pcm
theory              cosmo
method              iswig
Radii               bondi
vdwScale            1.20
hpoints             110
heavypoints         110
$end

$solvent
dielectric 78.400000
$end

--------------------------------------------------------------
 ----------------------------------------------------------------
             Standard Nuclear Orientation (Angstroms)
    I     Atom           X                Y                Z
 ----------------------------------------------------------------
    1      C      -2.4969400900     0.6916302414    -1.1181481305
    2      H      -2.6809200399     1.5449913314    -0.4603702744
    3      H      -2.1174457264     1.0572767904    -2.0755443337
    4      H      -3.4318804402     0.1524525555    -1.2818162152
    5      C      -1.4852051477    -0.2440540859    -0.4855285227
    6      C       0.7873991051    -0.1488199785     0.3092537118
    7      H       1.0500667530    -1.0671161440    -0.2268171969
    8      H       0.4819538620    -0.4272912544     1.3225333815
    9      C       1.9632896160     0.8069449108     0.3420973993
   10      H       1.6749875569     1.7347264436     0.8494997924
   11      H       2.2446366637     1.0887865698    -0.6793302810
   12      C       3.2182080858     0.2600927633     1.0396191339
   13      O      -1.9772959547    -0.6245814037     0.8044944612
   14      O      -1.2876800778    -1.3958884729    -1.2106069046
   15      H      -1.3601116958    -2.0614525151    -0.4147688838
   16      O      -0.2909486750     0.5123024199    -0.3526121249
   17      O       4.2001168001     1.0467683745     1.1054672795
   18      O       3.1880135203    -0.9136488893     1.4898414867
   19      O      -1.6737896154    -2.0240306769     1.0375159477
 ----------------------------------------------------------------
 Nuclear Repulsion Energy =   646.4022407278 hartrees
 There are       44 alpha and       44 beta electrons
 Requested basis set is def2-TZVPD
 There are 189 shells and 497 basis functions

 Total QAlloc Memory Limit   8000 MB
 Mega-Array Size      1956 MB
 MEM_STATIC part      2000 MB
 Discretize the solute cavity surface with Lebedev spheres
	Using 110 Lebedev grid points for each H atom
	Using 110 Lebedev grid points for other atoms
	Atomic van der Waals radii will be scaled by 1.20
 Remove points where switching function is < 1.0e-08
 Keep 1112 surface tesserae and discard 978 interior tesserae
 Molecular Surface Area = 199.076 Angst**2
 A cutoff of  1.0D-14 yielded  16015 shell pairs
 There are    110587 function pairs (    140836 Cartesian)
 
 -------------------------------------------------------
 OpenMP Integral Computing Module                       
 Release: version 1.0, May 2013, Q-Chem Inc. Pittsburgh 
 -------------------------------------------------------
 Integral Job Info:
 Integral job number is                      11
 Integral operator is                         1
 short-range coefficients              16700000
 long-range coefficients              100000000
 Omega coefficients                         300
 if combine SR and LR in K                    1
 Integral screening is                        0
 Integral computing path is                   2
 max size of driver memory is            800000
 size of driver memory is                776718
 size of scratch memory is              4473992
 max col of scratch BK array              10000
 max len of scratch array in speh3          662
 max len of scratch index in speh4           32
 max int batch size is                      520
 min int batch size is                       52
 fixed nKL is                                52
 max L of basis functions is                  3
 order of int derivative is                   0
 number of shells is                        189
 number of basis is                         563
 number of cartesian basis is               563
 number of contracted shell pairs         16015
 number of primitive shell pairs          32290
 maxK2 (contraction) of shell pair           36
 max number of K2 of shell pair               1
 max number of CS2 of shell pair           2639
 max number of PS2 of shell pair           3744
 mem total for path MDJ                  820668
 -------------------------------------------------------
 Smallest overlap matrix eigenvalue = 3.22E-06
 Guess MOs from SCF MO coefficient file
 Reading MOs from coefficient file
 Reading MOs from coefficient file
 Long-range K will be added via erf
 Coulomb attenuation parameter = 0.3 bohr**(-1)
 A restricted hybrid HF-DFT SCF calculation will be
 performed using Pulay DIIS extrapolation
 Polarizable Continuum solvation model will be applied
 Exchange:     0.1670 Hartree-Fock + 1.0000 wB97X-V + LR-HF
 Correlation:  1.0000 wB97X-V
 Using SG-2 standard quadrature grid
 Nonlocal Correlation:  VV10 with C = 0.0100 and b = 6.00
 Grid used for NLC:  SG-1 standard quadrature
 SCF converges when DIIS error is below 1.0E-08
Using Q-Chem read-in guess as SCF_GUESS READ specified.

 using 16 threads for integral computing
 -------------------------------------------------------
 OpenMP Integral computing Module                
 Release: version 1.0, May 2013, Q-Chem Inc. Pittsburgh 
 -------------------------------------------------------
 using 16 threads for integral computing
 -------------------------------------------------------
 OpenMP Integral computing Module                
 Release: version 1.0, May 2013, Q-Chem Inc. Pittsburgh 
 -------------------------------------------------------
 -------------------------------------------------------
 OpenMP BLAS3 based DFT computing Module                
 Release: version 1.0, May 2013, Q-Chem Inc. Pittsburgh 
 -------------------------------------------------------
 -------------------------------------------------------
 OpenMP BLAS3 based DFT computing Module                
 Release: version 1.0, May 2013, Q-Chem Inc. Pittsburgh 
 -------------------------------------------------------
 -------------------------------------------------------
 OpenMP BLAS3 based DFT computing Module                
 Release: version 1.0, May 2013, Q-Chem Inc. Pittsburgh 
 -------------------------------------------------------
 ---------------------------------------
  Cycle       Energy         DIIS Error
 ---------------------------------------
    1    -646.6615846414      3.13E-04
    2    -646.9555267320      3.21E-04
    3    -646.9601229635      1.53E-04
    4    -646.9608895933      1.13E-04
    5    -646.9613806974      8.64E-05
    6    -646.9616204513      7.04E-05
    7    -646.9618004037      5.57E-05
    8    -646.9619238081      4.28E-05
    9    -646.9620069552      3.13E-05
   10    -646.9620435050      2.46E-05
   11    -646.9620706193      1.80E-05
   12    -646.9620836370      1.38E-05
   13    -646.9620919983      1.02E-05
   14    -646.9620958734      8.04E-06
   15    -646.9620980735      6.48E-06
   16    -646.9620993983      5.32E-06
   17    -646.9621021322      4.87E-09 Convergence criterion met
 ---------------------------------------

************** Final PCM Free Energy Summary **************
 G_electrostatic  =      -0.30051956 hartree =    -188.57887204 kcal/mol
 G_cavitation     =       0.00000000 hartree =       0.00000000 kcal/mol
 G_dispersion     =       0.00000000 hartree =       0.00000000 kcal/mol
 G_repulsion      =       0.00000000 hartree =       0.00000000 kcal/mol
 --------------------------------------------------
 Non-electrostatic Free Energy =       0.00000000 hartree =       0.00000000 kcal/mol
 Total                         =      -0.30051956 hartree =    -188.57887204 kcal/mol
 --------------------------------------------------
 SCF Energy (H0 + V/2)                       =    -646.96210213 
 Solute Internal Energy (H0)                 =    -646.66158257 
 Total Free Energy (H0 + V/2 + non-elec)     =    -646.96210213 hartree
                                             = -405974.84646604 kcal/mol
***********************************************************

 SCF time:  CPU 5364.16 s  wall 377.51 s
 SCF   energy in the final basis set = -646.96210213
 Total energy in the final basis set = -646.96210213
 
 --------------------------------------------------------------
 
                    Orbital Energies (a.u.)
 --------------------------------------------------------------
 
 Alpha MOs
 -- Occupied --
-19.221 -19.201 -19.181 -19.162 -19.141 -19.138 -10.390 -10.342
-10.291 -10.248 -10.246  -1.223  -1.144  -1.138  -1.100  -1.050
 -0.940  -0.878  -0.837  -0.744  -0.674  -0.632  -0.616  -0.591
 -0.578  -0.564  -0.528  -0.526  -0.510  -0.506  -0.488  -0.482
 -0.460  -0.450  -0.435  -0.426  -0.418  -0.389  -0.369  -0.347
 -0.336  -0.332  -0.331  -0.290
 -- Virtual --
  0.060   0.072   0.076   0.086   0.098   0.099   0.107   0.111
  0.125   0.128   0.133   0.141   0.143   0.155   0.159   0.162
  0.170   0.173   0.180   0.182   0.189   0.191   0.208   0.213
  0.218   0.229   0.236   0.241   0.243   0.250   0.253   0.267
  0.271   0.277   0.279   0.284   0.290   0.292   0.303   0.305
  0.308   0.319   0.328   0.332   0.337   0.340   0.343   0.352
  0.358   0.366   0.369   0.373   0.375   0.381   0.385   0.392
  0.399   0.402   0.407   0.412   0.414   0.419   0.422   0.430
  0.433   0.437   0.444   0.448   0.450   0.455   0.463   0.470
  0.475   0.478   0.485   0.492   0.495   0.506   0.508   0.514
  0.517   0.525   0.528   0.540   0.543   0.551   0.551   0.553
  0.562   0.565   0.569   0.585   0.587   0.591   0.596   0.601
  0.612   0.614   0.621   0.624   0.632   0.644   0.648   0.657
  0.665   0.670   0.675   0.682   0.692   0.700   0.715   0.723
  0.729   0.734   0.739   0.746   0.753   0.757   0.764   0.777
  0.780   0.782   0.789   0.797   0.805   0.807   0.808   0.822
  0.828   0.833   0.837   0.841   0.848   0.856   0.860   0.868
  0.871   0.875   0.884   0.891   0.897   0.911   0.915   0.926
  0.933   0.941   0.952   0.959   0.972   0.974   0.988   1.007
  1.014   1.019   1.033   1.042   1.057   1.070   1.076   1.093
  1.098   1.118   1.131   1.141   1.142   1.161   1.168   1.193
  1.197   1.204   1.214   1.226   1.239   1.253   1.264   1.277
  1.281   1.295   1.309   1.319   1.327   1.332   1.354   1.367
  1.383   1.397   1.406   1.423   1.436   1.449   1.463   1.469
  1.485   1.498   1.508   1.537   1.551   1.567   1.607   1.622
  1.634   1.661   1.707   1.744   1.763   1.775   1.814   1.833
  1.854   1.884   1.895   1.923   1.938   1.938   1.952   1.957
  1.962   1.973   1.978   1.994   2.001   2.008   2.023   2.033
  2.048   2.055   2.076   2.092   2.115   2.159   2.176   2.195
  2.202   2.221   2.226   2.238   2.244   2.271   2.282   2.287
  2.328   2.333   2.343   2.358   2.369   2.386   2.408   2.438
  2.459   2.471   2.486   2.487   2.498   2.503   2.530   2.532
  2.574   2.611   2.613   2.635   2.646   2.655   2.680   2.700
  2.707   2.719   2.728   2.760   2.772   2.785   2.813   2.840
  2.874   2.895   2.907   2.928   2.946   2.954   2.959   2.980
  2.989   3.025   3.039   3.068   3.080   3.091   3.102   3.122
  3.157   3.192   3.219   3.234   3.242   3.252   3.263   3.284
  3.306   3.321   3.328   3.360   3.367   3.375   3.400   3.413
  3.421   3.455   3.458   3.473   3.495   3.502   3.523   3.537
  3.542   3.561   3.567   3.574   3.592   3.618   3.634   3.655
  3.659   3.676   3.680   3.695   3.705   3.717   3.732   3.745
  3.755   3.769   3.777   3.788   3.820   3.845   3.869   3.893
  3.932   3.951   3.965   3.986   4.035   4.081   4.100   4.161
  4.177   4.204   4.216   4.226   4.263   4.272   4.338   4.384
  4.447   4.540   4.616   4.630   4.638   4.648   4.696   4.717
  4.789   4.818   4.827   4.887   4.957   4.963   5.005   5.037
  5.082   5.134   5.141   5.244   5.267   5.295   5.320   5.328
  5.344   5.362   5.374   5.384   5.473   5.503   5.507   5.556
  5.571   5.598   5.648   5.671   5.711   5.726   5.740   5.747
  5.778   5.874   5.942   5.992   6.017   6.098   6.139   6.156
  6.248   6.276   6.314   6.330   6.343   6.372   6.419   6.459
  6.554   6.623   6.633   6.638   6.665   6.694   6.703   6.748
  6.774   6.808   6.834   6.843   6.877   6.961   6.969   7.016
  7.043   7.048   7.073   7.133   7.179   7.228   7.245   7.258
  7.329   7.362   7.399   7.412   7.417   7.518   7.625   7.684
  7.742   8.316  22.691  22.861  22.947  23.134  23.740  44.218
 44.264  44.439  44.522  44.667  44.760
 --------------------------------------------------------------
 
          Ground-State Mulliken Net Atomic Charges

     Atom                 Charge (a.u.)
  ----------------------------------------
      1 C                    -1.170359
      2 H                     0.236111
      3 H                     0.249855
      4 H                     0.254169
      5 C                     0.713591
      6 C                    -0.236858
      7 H                     0.183414
      8 H                     0.188376
      9 C                    -0.084522
     10 H                     0.237185
     11 H                     0.243397
     12 C                     0.040824
     13 O                    -0.231909
     14 O                    -0.590660
     15 H                     0.393743
     16 O                    -0.266421
     17 O                    -0.708089
     18 O                    -0.689457
     19 O                    -0.762391
  ----------------------------------------
  Sum of atomic charges =    -2.000000

 -----------------------------------------------------------------
                    Cartesian Multipole Moments
 -----------------------------------------------------------------
    Charge (ESU x 10^10)
                -9.6064
    Dipole Moment (Debye)
         X     -11.1777      Y       6.8420      Z      -9.0713
       Tot      15.9387
    Quadrupole Moments (Debye-Ang)
        XX    -160.0483     XY     -17.0438     YY     -91.1256
        XZ     -20.0999     YZ       6.6798     ZZ     -88.6810
    Octopole Moments (Debye-Ang^2)
       XXX    -371.0746    XXY       9.3694    XYY     -29.1419
       YYY      59.7780    XXZ    -140.8175    XYZ      -7.9648
       YYZ     -37.7747    XZZ     -46.4684    YZZ      34.5957
       ZZZ     -68.9489
    Hexadecapole Moments (Debye-Ang^3)
      XXXX   -3790.2092   XXXY    -376.1046   XXYY    -642.4840
      XYYY    -221.7750   YYYY    -560.1794   XXXZ    -696.1533
      XXYZ      17.8320   XYYZ    -115.1254   YYYZ      66.4252
      XXZZ    -645.4421   XYZZ     -70.4893   YYZZ    -204.2263
      XZZZ    -350.8895   YZZZ      44.7937   ZZZZ    -505.0859
 -----------------------------------------------------------------
 Calculating analytic gradient of the SCF energy
 Gradient of SCF Energy
            1           2           3           4           5           6
    1  -0.1113887   0.0102718  -0.0266849   0.0655212   0.1275330   0.0189513
    2   0.0355750  -0.0554168  -0.0230161   0.0371452  -0.0079741  -0.1015318
    3  -0.0427844  -0.0459603   0.0617470   0.0124896   0.0839337   0.0516279
            7           8           9          10          11          12
    1  -0.0101793   0.0302512  -0.0292621   0.0187161  -0.0178493   0.0362278
    2   0.0649758   0.0220987   0.0619763  -0.0471605  -0.0051436  -0.0150980
    3   0.0296405  -0.0657877  -0.0387959  -0.0373636   0.0575496   0.0195625
           13          14          15          16          17          18
    1  -0.0279722  -0.0200659  -0.0032236  -0.0119088  -0.0480769  -0.0051216
    2   0.0562764  -0.0114790   0.0410164  -0.0130301  -0.0286651   0.0516861
    3  -0.0182364  -0.0030144  -0.0420133  -0.0004052  -0.0068171  -0.0215374
           19
    1   0.0042605
    2  -0.0622347
    3   0.0061648
 Max gradient component =       1.275E-01
 RMS gradient           =       4.471E-02
 Computing fast CPCM-ISWIG gradient
 Updating gradient with PCM contributions...
 -- total gradient after adding PCM contribution --
---------------------------------------------------
  Atom         X              Y              Z     
---------------------------------------------------
   1      -0.000001      -0.000003       0.000006
   2      -0.000001      -0.000003       0.000004
   3      -0.000000       0.000006       0.000002
   4       0.000002      -0.000001      -0.000003
   5       0.000007       0.000021       0.000024
   6      -0.000001      -0.000000       0.000007
   7       0.000002      -0.000000       0.000001
   8       0.000000       0.000002      -0.000002
   9      -0.000002       0.000002      -0.000005
  10       0.000002      -0.000001       0.000002
  11      -0.000003       0.000002      -0.000001
  12       0.000006      -0.000001       0.000003
  13      -0.000003       0.000000      -0.000003
  14       0.000003      -0.000012      -0.000012
  15      -0.000003      -0.000001       0.000002
  16      -0.000004      -0.000012      -0.000020
  17      -0.000005      -0.000001      -0.000003
  18      -0.000001      -0.000002      -0.000002
  19       0.000001       0.000003      -0.000001
---------------------------------------------------
 Number of fixed atoms: 0
 Gradient time:  CPU 1098.20 s  wall 78.74 s
 ######################################################
 ######################################################
 # Starting finite difference calculation for IDERIV  #
 Finite diff step size:  1.88973e-03 a.u.
 ----------------------------------------------------------------
             Standard Nuclear Orientation (Angstroms)
    I     Atom           X                Y                Z
 ----------------------------------------------------------------
    1      C      -2.4959400900     0.6916302414    -1.1181481305
    2      H      -2.6809200399     1.5449913314    -0.4603702744
    3      H      -2.1174457264     1.0572767904    -2.0755443337
    4      H      -3.4318804402     0.1524525555    -1.2818162152
    5      C      -1.4852051477    -0.2440540859    -0.4855285227
    6      C       0.7873991051    -0.1488199785     0.3092537118
    7      H       1.0500667530    -1.0671161440    -0.2268171969
    8      H       0.4819538620    -0.4272912544     1.3225333815
    9      C       1.9632896160     0.8069449108     0.3420973993
   10      H       1.6749875569     1.7347264436     0.8494997924
   11      H       2.2446366637     1.0887865698    -0.6793302810
   12      C       3.2182080858     0.2600927633     1.0396191339
   13      O      -1.9772959547    -0.6245814037     0.8044944612
   14      O      -1.2876800778    -1.3958884729    -1.2106069046
   15      H      -1.3601116958    -2.0614525151    -0.4147688838
   16      O      -0.2909486750     0.5123024199    -0.3526121249
   17      O       4.2001168001     1.0467683745     1.1054672795
   18      O       3.1880135203    -0.9136488893     1.4898414867
   19      O      -1.6737896154    -2.0240306769     1.0375159477
 ----------------------------------------------------------------
 Nuclear Repulsion Energy =   646.4182167305 hartrees
 There are       44 alpha and       44 beta electrons
 Discretize the solute cavity surface with Lebedev spheres
	Using 110 Lebedev grid points for each H atom
	Using 110 Lebedev grid points for other atoms
	Atomic van der Waals radii will be scaled by 1.20
 Remove points where switching function is < 1.0e-08
 Keep 1112 surface tesserae and discard 978 interior tesserae
 Molecular Surface Area = 199.068 Angst**2
 Requested basis set is def2-TZVPD
 There are 189 shells and 497 basis functions
 A cutoff of  1.0D-14 yielded  16015 shell pairs
 There are    110587 function pairs (    140836 Cartesian)
 Smallest overlap matrix eigenvalue = 3.22E-06
 Guess MOs from SCF MO coefficient file
 Reading MOs from coefficient file
 Reading MOs from coefficient file
 Long-range K will be added via erf
 Coulomb attenuation parameter = 0.3 bohr**(-1)
 A restricted hybrid HF-DFT SCF calculation will be
 performed using Pulay DIIS extrapolation
 Polarizable Continuum solvation model will be applied
 Exchange:     0.1670 Hartree-Fock + 1.0000 wB97X-V + LR-HF
 Correlation:  1.0000 wB97X-V
 Using SG-2 standard quadrature grid
 Nonlocal Correlation:  VV10 with C = 0.0100 and b = 6.00
 Grid used for NLC:  SG-1 standard quadrature
 SCF converges when DIIS error is below 1.0E-08
Using Q-Chem read-in guess as SCF_GUESS READ specified.

 using 16 threads for integral computing
 -------------------------------------------------------
 OpenMP Integral computing Module                
 Release: version 1.0, May 2013, Q-Chem Inc. Pittsburgh 
 -------------------------------------------------------
 using 16 threads for integral computing
 -------------------------------------------------------
 OpenMP Integral computing Module                
 Release: version 1.0, May 2013, Q-Chem Inc. Pittsburgh 
 -------------------------------------------------------
 -------------------------------------------------------
 OpenMP BLAS3 based DFT computing Module                
 Release: version 1.0, May 2013, Q-Chem Inc. Pittsburgh 
 -------------------------------------------------------
 -------------------------------------------------------
 OpenMP BLAS3 based DFT computing Module                
 Release: version 1.0, May 2013, Q-Chem Inc. Pittsburgh 
 -------------------------------------------------------
 -------------------------------------------------------
 OpenMP BLAS3 based DFT computing Module                
 Release: version 1.0, May 2013, Q-Chem Inc. Pittsburgh 
 -------------------------------------------------------
 ---------------------------------------
  Cycle       Energy         DIIS Error
 ---------------------------------------
    1    -646.6612313665      3.13E-04
    2    -646.9555215719      3.22E-04
    3    -646.9601220455      1.53E-04
    4    -646.9608897840      1.13E-04
    5    -646.9613858875      8.60E-05
    6    -646.9616339545      6.94E-05
    7    -646.9618386860      5.20E-05
    8    -646.9619893297      3.39E-05
    9    -646.9620770038      1.58E-05
   10    -646.9620970988      6.47E-06
   11    -646.9621009336      1.46E-06
   12    -646.9621011219      3.78E-07
   13    -646.9621011354      3.54E-08
   14    -646.9621011354      1.63E-08
   15    -646.9621011355      1.02E-08
   16    -646.9621011355      3.32E-09 Convergence criterion met
 ---------------------------------------

************** Final PCM Free Energy Summary **************
 G_electrostatic  =      -0.30052333 hartree =    -188.58123744 kcal/mol
 G_cavitation     =       0.00000000 hartree =       0.00000000 kcal/mol
 G_dispersion     =       0.00000000 hartree =       0.00000000 kcal/mol
 G_repulsion      =       0.00000000 hartree =       0.00000000 kcal/mol
 --------------------------------------------------
 Non-electrostatic Free Energy =       0.00000000 hartree =       0.00000000 kcal/mol
 Total                         =      -0.30052333 hartree =    -188.58123744 kcal/mol
 --------------------------------------------------
 SCF Energy (H0 + V/2)                       =    -646.96210114 
 Solute Internal Energy (H0)                 =    -646.66157780 
 Total Free Energy (H0 + V/2 + non-elec)     =    -646.96210114 hartree
                                             = -405974.84584057 kcal/mol
***********************************************************

 SCF time:  CPU 5047.18 s  wall 354.30 s
 SCF   energy in the final basis set = -646.96210114
 Total energy in the final basis set = -646.96210114
 
 --------------------------------------------------------------
 
                    Orbital Energies (a.u.)
 --------------------------------------------------------------
 
 Alpha MOs
 -- Occupied --
-19.221 -19.201 -19.181 -19.162 -19.141 -19.138 -10.390 -10.342
-10.291 -10.248 -10.246  -1.223  -1.144  -1.138  -1.100  -1.050
 -0.940  -0.878  -0.837  -0.744  -0.674  -0.632  -0.616  -0.591
 -0.578  -0.564  -0.528  -0.526  -0.510  -0.506  -0.488  -0.482
 -0.460  -0.450  -0.435  -0.426  -0.418  -0.389  -0.369  -0.347
 -0.336  -0.332  -0.331  -0.290
 -- Virtual --
  0.060   0.072   0.076   0.086   0.098   0.099   0.107   0.111
  0.125   0.128   0.133   0.141   0.143   0.155   0.159   0.162
  0.170   0.173   0.180   0.182   0.189   0.191   0.208   0.213
  0.218   0.229   0.236   0.241   0.243   0.250   0.253   0.267
  0.271   0.277   0.279   0.284   0.290   0.292   0.303   0.305
  0.308   0.319   0.328   0.332   0.337   0.340   0.343   0.352
  0.358   0.366   0.369   0.373   0.375   0.381   0.385   0.392
  0.399   0.402   0.407   0.412   0.414   0.420   0.422   0.430
  0.433   0.437   0.444   0.448   0.450   0.455   0.463   0.470
  0.475   0.478   0.485   0.492   0.495   0.506   0.508   0.514
  0.517   0.525   0.528   0.540   0.543   0.550   0.551   0.553
  0.562   0.565   0.569   0.585   0.587   0.591   0.596   0.601
  0.612   0.614   0.621   0.624   0.632   0.644   0.648   0.657
  0.665   0.670   0.675   0.682   0.692   0.700   0.715   0.723
  0.729   0.734   0.739   0.746   0.753   0.757   0.764   0.777
  0.780   0.782   0.789   0.797   0.805   0.807   0.808   0.822
  0.828   0.833   0.837   0.841   0.848   0.856   0.860   0.868
  0.871   0.875   0.884   0.891   0.897   0.911   0.915   0.926
  0.933   0.941   0.952   0.959   0.972   0.974   0.988   1.007
  1.014   1.019   1.033   1.042   1.057   1.070   1.076   1.093
  1.098   1.118   1.132   1.141   1.142   1.161   1.168   1.193
  1.197   1.204   1.214   1.226   1.239   1.253   1.264   1.277
  1.281   1.295   1.309   1.319   1.327   1.332   1.354   1.367
  1.383   1.397   1.406   1.423   1.436   1.449   1.463   1.469
  1.486   1.498   1.508   1.537   1.551   1.567   1.607   1.622
  1.634   1.661   1.707   1.744   1.763   1.775   1.814   1.833
  1.854   1.884   1.895   1.923   1.938   1.938   1.952   1.957
  1.962   1.973   1.978   1.994   2.001   2.008   2.023   2.033
  2.048   2.055   2.076   2.092   2.115   2.159   2.176   2.195
  2.202   2.221   2.226   2.238   2.244   2.271   2.282   2.287
  2.328   2.333   2.343   2.358   2.369   2.386   2.408   2.438
  2.459   2.471   2.486   2.487   2.498   2.503   2.530   2.532
  2.574   2.611   2.613   2.635   2.646   2.655   2.679   2.700
  2.707   2.720   2.728   2.760   2.772   2.785   2.813   2.840
  2.874   2.895   2.907   2.928   2.946   2.955   2.959   2.980
  2.989   3.025   3.039   3.068   3.080   3.091   3.102   3.122
  3.157   3.192   3.219   3.234   3.242   3.252   3.263   3.284
  3.306   3.321   3.328   3.360   3.367   3.375   3.399   3.413
  3.421   3.455   3.458   3.473   3.495   3.502   3.523   3.537
  3.542   3.561   3.567   3.574   3.592   3.618   3.634   3.655
  3.659   3.677   3.680   3.695   3.706   3.717   3.732   3.745
  3.755   3.769   3.777   3.788   3.820   3.845   3.869   3.893
  3.932   3.951   3.965   3.987   4.035   4.081   4.100   4.161
  4.177   4.204   4.216   4.226   4.263   4.272   4.338   4.384
  4.447   4.540   4.616   4.631   4.638   4.648   4.695   4.717
  4.788   4.818   4.827   4.887   4.957   4.963   5.005   5.037
  5.082   5.134   5.141   5.244   5.267   5.295   5.320   5.328
  5.344   5.362   5.374   5.384   5.473   5.503   5.507   5.556
  5.571   5.598   5.648   5.671   5.711   5.726   5.740   5.747
  5.778   5.874   5.942   5.992   6.017   6.098   6.139   6.156
  6.248   6.276   6.314   6.330   6.343   6.372   6.419   6.459
  6.554   6.623   6.633   6.638   6.665   6.694   6.703   6.748
  6.774   6.808   6.834   6.843   6.877   6.961   6.969   7.016
  7.043   7.048   7.073   7.133   7.180   7.228   7.245   7.258
  7.329   7.362   7.399   7.412   7.417   7.518   7.625   7.684
  7.742   8.316  22.691  22.861  22.947  23.134  23.740  44.218
 44.264  44.439  44.522  44.667  44.760
 --------------------------------------------------------------
 
          Ground-State Mulliken Net Atomic Charges

     Atom                 Charge (a.u.)
  ----------------------------------------
      1 C                    -1.170847
      2 H                     0.236105
      3 H                     0.250061
      4 H                     0.253896
      5 C                     0.714241
      6 C                    -0.237079
      7 H                     0.183397
      8 H                     0.188379
      9 C                    -0.084442
     10 H                     0.237185
     11 H                     0.243396
     12 C                     0.040804
     13 O                    -0.231920
     14 O                    -0.590666
     15 H                     0.393741
     16 O                    -0.266328
     17 O                    -0.708090
     18 O                    -0.689458
     19 O                    -0.762374
  ----------------------------------------
  Sum of atomic charges =    -2.000000

 -----------------------------------------------------------------
                    Cartesian Multipole Moments
 -----------------------------------------------------------------
    Charge (ESU x 10^10)
                -9.6064
    Dipole Moment (Debye)
         X     -11.1782      Y       6.8426      Z      -9.0718
       Tot      15.9396
    Quadrupole Moments (Debye-Ang)
        XX    -160.0500     XY     -17.0470     YY     -91.1244
        XZ     -20.0995     YZ       6.6771     ZZ     -88.6788
    Octopole Moments (Debye-Ang^2)
       XXX    -371.0830    XXY       9.3811    XYY     -29.1516
       YYY      59.7773    XXZ    -140.8175    XYZ      -7.9572
       YYZ     -37.7763    XZZ     -46.4784    YZZ      34.6002
       ZZZ     -68.9552
    Hexadecapole Moments (Debye-Ang^3)
      XXXX   -3790.1340   XXXY    -376.1592   XXYY    -642.4468
      XYYY    -221.7909   YYYY    -560.1712   XXXZ    -696.1529
      XXYZ      17.8090   XYYZ    -115.1144   YYYZ      66.4151
      XXZZ    -645.4129   XYZZ     -70.5074   YYZZ    -204.2173
      XZZZ    -350.8611   YZZZ      44.7776   ZZZZ    -505.0620
 -----------------------------------------------------------------
 Calculating analytic gradient of the SCF energy
 Gradient of SCF Energy
            1           2           3           4           5           6
    1  -0.1106857   0.0102390  -0.0267689   0.0650251   0.1275337   0.0189308
    2   0.0356394  -0.0553442  -0.0231063   0.0368904  -0.0078047  -0.1015380
    3  -0.0428597  -0.0458959   0.0619592   0.0124078   0.0838452   0.0516045
            7           8           9          10          11          12
    1  -0.0101823   0.0302554  -0.0292503   0.0187166  -0.0178511   0.0362281
    2   0.0649754   0.0220985   0.0619798  -0.0471617  -0.0051449  -0.0150968
    3   0.0296476  -0.0657875  -0.0387785  -0.0373624   0.0575521   0.0195575
           13          14          15          16          17          18
    1  -0.0279650  -0.0200794  -0.0032349  -0.0119776  -0.0480779  -0.0051215
    2   0.0562706  -0.0114588   0.0410319  -0.0130196  -0.0286654   0.0516872
    3  -0.0182495  -0.0030027  -0.0420168  -0.0004271  -0.0068171  -0.0215379
           19
    1   0.0042659
    2  -0.0622329
    3   0.0061613
 Max gradient component =       1.275E-01
 RMS gradient           =       4.466E-02
 Computing fast CPCM-ISWIG gradient
 Updating gradient with PCM contributions...
 -- total gradient after adding PCM contribution --
---------------------------------------------------
  Atom         X              Y              Z     
---------------------------------------------------
   1       0.001056       0.000079      -0.000038
   2      -0.000106       0.000067       0.000055
   3      -0.000154      -0.000051       0.000157
   4      -0.000464      -0.000228      -0.000066
   5      -0.000246       0.000133      -0.000049
   6      -0.000002      -0.000008       0.000009
   7       0.000002       0.000000       0.000001
   8      -0.000000       0.000002      -0.000002
   9      -0.000003       0.000005      -0.000006
  10       0.000003      -0.000001       0.000002
  11      -0.000003       0.000002      -0.000001
  12       0.000007      -0.000002       0.000004
  13       0.000009      -0.000013       0.000006
  14       0.000001       0.000008      -0.000016
  15      -0.000005      -0.000002       0.000007
  16      -0.000092       0.000015      -0.000063
  17      -0.000006      -0.000001      -0.000003
  18      -0.000001      -0.000002      -0.000002
  19       0.000005      -0.000003       0.000004
---------------------------------------------------
 Number of fixed atoms: 0
 Gradient time:  CPU 1102.81 s  wall 78.87 s
 ----------------------------------------------------------------
             Standard Nuclear Orientation (Angstroms)
    I     Atom           X                Y                Z
 ----------------------------------------------------------------
    1      C      -2.4979400900     0.6916302414    -1.1181481305
    2      H      -2.6809200399     1.5449913314    -0.4603702744
    3      H      -2.1174457264     1.0572767904    -2.0755443337
    4      H      -3.4318804402     0.1524525555    -1.2818162152
    5      C      -1.4852051477    -0.2440540859    -0.4855285227
    6      C       0.7873991051    -0.1488199785     0.3092537118
    7      H       1.0500667530    -1.0671161440    -0.2268171969
    8      H       0.4819538620    -0.4272912544     1.3225333815
    9      C       1.9632896160     0.8069449108     0.3420973993
   10      H       1.6749875569     1.7347264436     0.8494997924
   11      H       2.2446366637     1.0887865698    -0.6793302810
   12      C       3.2182080858     0.2600927633     1.0396191339
   13      O      -1.9772959547    -0.6245814037     0.8044944612
   14      O      -1.2876800778    -1.3958884729    -1.2106069046
   15      H      -1.3601116958    -2.0614525151    -0.4147688838
   16      O      -0.2909486750     0.5123024199    -0.3526121249
   17      O       4.2001168001     1.0467683745     1.1054672795
   18      O       3.1880135203    -0.9136488893     1.4898414867
   19      O      -1.6737896154    -2.0240306769     1.0375159477
 ----------------------------------------------------------------
 Nuclear Repulsion Energy =   646.3862678323 hartrees
 There are       44 alpha and       44 beta electrons
 Discretize the solute cavity surface with Lebedev spheres
	Using 110 Lebedev grid points for each H atom
	Using 110 Lebedev grid points for other atoms
	Atomic van der Waals radii will be scaled by 1.20
 Remove points where switching function is < 1.0e-08
 Keep 1112 surface tesserae and discard 978 interior tesserae
 Molecular Surface Area = 199.085 Angst**2
 Requested basis set is def2-TZVPD
 There are 189 shells and 497 basis functions
 A cutoff of  1.0D-14 yielded  16015 shell pairs
 There are    110587 function pairs (    140836 Cartesian)
 Smallest overlap matrix eigenvalue = 3.22E-06
 Guess MOs from SCF MO coefficient file
 Reading MOs from coefficient file
 Reading MOs from coefficient file
 Long-range K will be added via erf
 Coulomb attenuation parameter = 0.3 bohr**(-1)
 A restricted hybrid HF-DFT SCF calculation will be
 performed using Pulay DIIS extrapolation
 Polarizable Continuum solvation model will be applied
 Exchange:     0.1670 Hartree-Fock + 1.0000 wB97X-V + LR-HF
 Correlation:  1.0000 wB97X-V
 Using SG-2 standard quadrature grid
 Nonlocal Correlation:  VV10 with C = 0.0100 and b = 6.00
 Grid used for NLC:  SG-1 standard quadrature
 SCF converges when DIIS error is below 1.0E-08
Using Q-Chem read-in guess as SCF_GUESS READ specified.

 using 16 threads for integral computing
 -------------------------------------------------------
 OpenMP Integral computing Module                
 Release: version 1.0, May 2013, Q-Chem Inc. Pittsburgh 
 -------------------------------------------------------
 using 16 threads for integral computing
 -------------------------------------------------------
 OpenMP Integral computing Module                
 Release: version 1.0, May 2013, Q-Chem Inc. Pittsburgh 
 -------------------------------------------------------
 -------------------------------------------------------
 OpenMP BLAS3 based DFT computing Module                
 Release: version 1.0, May 2013, Q-Chem Inc. Pittsburgh 
 -------------------------------------------------------
 -------------------------------------------------------
 OpenMP BLAS3 based DFT computing Module                
 Release: version 1.0, May 2013, Q-Chem Inc. Pittsburgh 
 -------------------------------------------------------
 -------------------------------------------------------
 OpenMP BLAS3 based DFT computing Module                
 Release: version 1.0, May 2013, Q-Chem Inc. Pittsburgh 
 -------------------------------------------------------
 ---------------------------------------
  Cycle       Energy         DIIS Error
 ---------------------------------------
    1    -646.6622819045      3.13E-04
    2    -646.9555328125      3.21E-04
    3    -646.9601266618      1.52E-04
    4    -646.9608940493      1.12E-04
    5    -646.9613959163      8.53E-05
    6    -646.9616648624      6.70E-05
    7    -646.9619174453      4.35E-05
    8    -646.9620602212      2.05E-05
    9    -646.9620982039      5.49E-06
   10    -646.9621009223      1.48E-06
   11    -646.9621011250      2.26E-07
   12    -646.9621011291      5.53E-08
   13    -646.9621011293      1.88E-08
   14    -646.9621011294      1.03E-08
   15    -646.9621011294      3.18E-09 Convergence criterion met
 ---------------------------------------

************** Final PCM Free Energy Summary **************
 G_electrostatic  =      -0.30051574 hartree =    -188.57647265 kcal/mol
 G_cavitation     =       0.00000000 hartree =       0.00000000 kcal/mol
 G_dispersion     =       0.00000000 hartree =       0.00000000 kcal/mol
 G_repulsion      =       0.00000000 hartree =       0.00000000 kcal/mol
 --------------------------------------------------
 Non-electrostatic Free Energy =       0.00000000 hartree =       0.00000000 kcal/mol
 Total                         =      -0.30051574 hartree =    -188.57647265 kcal/mol
 --------------------------------------------------
 SCF Energy (H0 + V/2)                       =    -646.96210113 
 Solute Internal Energy (H0)                 =    -646.66158539 
 Total Free Energy (H0 + V/2 + non-elec)     =    -646.96210113 hartree
                                             = -405974.84583675 kcal/mol
***********************************************************

 SCF time:  CPU 4736.54 s  wall 332.84 s
 SCF   energy in the final basis set = -646.96210113
 Total energy in the final basis set = -646.96210113
 
 --------------------------------------------------------------
 
                    Orbital Energies (a.u.)
 --------------------------------------------------------------
 
 Alpha MOs
 -- Occupied --
-19.221 -19.201 -19.181 -19.162 -19.141 -19.138 -10.391 -10.342
-10.291 -10.248 -10.246  -1.223  -1.144  -1.138  -1.100  -1.050
 -0.940  -0.878  -0.837  -0.744  -0.674  -0.632  -0.616  -0.591
 -0.578  -0.564  -0.528  -0.526  -0.510  -0.506  -0.489  -0.482
 -0.460  -0.450  -0.435  -0.426  -0.418  -0.389  -0.369  -0.347
 -0.336  -0.332  -0.331  -0.290
 -- Virtual --
  0.060   0.072   0.076   0.086   0.098   0.099   0.107   0.111
  0.125   0.128   0.133   0.141   0.143   0.155   0.159   0.162
  0.170   0.173   0.180   0.182   0.189   0.191   0.208   0.213
  0.218   0.229   0.236   0.241   0.243   0.250   0.253   0.267
  0.271   0.277   0.279   0.284   0.290   0.292   0.303   0.305
  0.308   0.319   0.328   0.332   0.337   0.340   0.343   0.352
  0.358   0.366   0.369   0.373   0.375   0.381   0.385   0.392
  0.399   0.402   0.407   0.412   0.414   0.419   0.422   0.430
  0.433   0.437   0.444   0.448   0.450   0.455   0.463   0.470
  0.475   0.478   0.485   0.492   0.495   0.506   0.508   0.514
  0.517   0.525   0.528   0.540   0.543   0.551   0.551   0.553
  0.562   0.565   0.569   0.585   0.587   0.591   0.596   0.601
  0.612   0.614   0.621   0.624   0.632   0.644   0.648   0.657
  0.665   0.670   0.675   0.682   0.692   0.700   0.715   0.723
  0.728   0.734   0.739   0.746   0.753   0.757   0.764   0.777
  0.780   0.782   0.789   0.797   0.805   0.807   0.808   0.822
  0.828   0.833   0.837   0.841   0.848   0.856   0.860   0.868
  0.871   0.875   0.884   0.891   0.897   0.911   0.915   0.926
  0.933   0.941   0.953   0.959   0.972   0.974   0.988   1.007
  1.014   1.019   1.033   1.042   1.057   1.070   1.076   1.093
  1.098   1.118   1.131   1.141   1.142   1.161   1.168   1.193
  1.197   1.204   1.214   1.225   1.239   1.253   1.264   1.277
  1.281   1.295   1.309   1.319   1.327   1.332   1.353   1.367
  1.383   1.397   1.406   1.423   1.436   1.449   1.463   1.469
  1.485   1.498   1.508   1.537   1.551   1.567   1.607   1.622
  1.634   1.661   1.707   1.744   1.763   1.775   1.814   1.833
  1.854   1.884   1.895   1.923   1.938   1.938   1.952   1.957
  1.962   1.973   1.978   1.994   2.001   2.008   2.023   2.033
  2.048   2.055   2.076   2.092   2.115   2.159   2.176   2.195
  2.202   2.221   2.226   2.238   2.244   2.271   2.282   2.287
  2.328   2.333   2.343   2.358   2.369   2.386   2.408   2.438
  2.459   2.471   2.486   2.487   2.498   2.503   2.530   2.532
  2.574   2.611   2.613   2.635   2.646   2.655   2.680   2.700
  2.706   2.719   2.728   2.760   2.772   2.785   2.813   2.840
  2.874   2.895   2.907   2.928   2.946   2.954   2.959   2.980
  2.989   3.025   3.039   3.068   3.080   3.091   3.102   3.122
  3.157   3.191   3.219   3.234   3.242   3.252   3.263   3.284
  3.306   3.321   3.328   3.360   3.367   3.375   3.400   3.413
  3.421   3.455   3.458   3.473   3.496   3.502   3.523   3.537
  3.542   3.561   3.567   3.574   3.592   3.618   3.634   3.655
  3.659   3.676   3.680   3.695   3.705   3.717   3.732   3.745
  3.755   3.769   3.777   3.788   3.820   3.845   3.869   3.893
  3.932   3.951   3.964   3.986   4.035   4.081   4.100   4.161
  4.177   4.203   4.216   4.226   4.263   4.271   4.338   4.384
  4.447   4.540   4.616   4.630   4.639   4.648   4.697   4.717
  4.789   4.818   4.827   4.887   4.957   4.963   5.004   5.037
  5.082   5.134   5.141   5.244   5.267   5.295   5.320   5.328
  5.344   5.362   5.374   5.384   5.473   5.503   5.507   5.556
  5.571   5.598   5.648   5.671   5.711   5.726   5.740   5.747
  5.778   5.874   5.942   5.992   6.017   6.098   6.139   6.156
  6.248   6.276   6.314   6.330   6.342   6.372   6.419   6.459
  6.554   6.623   6.633   6.638   6.665   6.694   6.703   6.748
  6.774   6.808   6.834   6.843   6.877   6.961   6.969   7.016
  7.043   7.048   7.073   7.133   7.179   7.228   7.245   7.258
  7.329   7.362   7.399   7.412   7.417   7.518   7.625   7.684
  7.742   8.316  22.691  22.861  22.947  23.133  23.740  44.218
 44.264  44.439  44.522  44.667  44.760
 --------------------------------------------------------------
 
          Ground-State Mulliken Net Atomic Charges

     Atom                 Charge (a.u.)
  ----------------------------------------
      1 C                    -1.169877
      2 H                     0.236117
      3 H                     0.249650
      4 H                     0.254445
      5 C                     0.712942
      6 C                    -0.236637
      7 H                     0.183431
      8 H                     0.188373
      9 C                    -0.084601
     10 H                     0.237185
     11 H                     0.243397
     12 C                     0.040844
     13 O                    -0.231898
     14 O                    -0.590654
     15 H                     0.393746
     16 O                    -0.266514
     17 O                    -0.708086
     18 O                    -0.689455
     19 O                    -0.762407
  ----------------------------------------
  Sum of atomic charges =    -2.000000

 -----------------------------------------------------------------
                    Cartesian Multipole Moments
 -----------------------------------------------------------------
    Charge (ESU x 10^10)
                -9.6064
    Dipole Moment (Debye)
         X     -11.1772      Y       6.8415      Z      -9.0709
       Tot      15.9379
    Quadrupole Moments (Debye-Ang)
        XX    -160.0467     XY     -17.0407     YY     -91.1268
        XZ     -20.1003     YZ       6.6825     ZZ     -88.6833
    Octopole Moments (Debye-Ang^2)
       XXX    -371.0660    XXY       9.3578    XYY     -29.1320
       YYY      59.7787    XXZ    -140.8175    XYZ      -7.9725
       YYZ     -37.7731    XZZ     -46.4584    YZZ      34.5912
       ZZZ     -68.9426
    Hexadecapole Moments (Debye-Ang^3)
      XXXX   -3790.2852   XXXY    -376.0496   XXYY    -642.5212
      XYYY    -221.7590   YYYY    -560.1877   XXXZ    -696.1542
      XXYZ      17.8552   XYYZ    -115.1363   YYYZ      66.4355
      XXZZ    -645.4716   XYZZ     -70.4712   YYZZ    -204.2354
      XZZZ    -350.9181   YZZZ      44.8098   ZZZZ    -505.1099
 -----------------------------------------------------------------
 Calculating analytic gradient of the SCF energy
 Gradient of SCF Energy
            1           2           3           4           5           6
    1  -0.1120928   0.0103044  -0.0266005   0.0660191   0.1275315   0.0189717
    2   0.0355080  -0.0554890  -0.0229259   0.0374014  -0.0081428  -0.1015253
    3  -0.0427094  -0.0460243   0.0615347   0.0125719   0.0840217   0.0516513
            7           8           9          10          11          12
    1  -0.0101763   0.0302470  -0.0292737   0.0187156  -0.0178474   0.0362275
    2   0.0649761   0.0220989   0.0619728  -0.0471592  -0.0051423  -0.0150994
    3   0.0296333  -0.0657877  -0.0388133  -0.0373647   0.0575470   0.0195677
           13          14          15          16          17          18
    1  -0.0279794  -0.0200522  -0.0032122  -0.0118399  -0.0480759  -0.0051216
    2   0.0562821  -0.0114994   0.0410008  -0.0130405  -0.0286646   0.0516849
    3  -0.0182233  -0.0030261  -0.0420097  -0.0003833  -0.0068171  -0.0215370
           19
    1   0.0042552
    2  -0.0622364
    3   0.0061684
 Max gradient component =       1.275E-01
 RMS gradient           =       4.475E-02
 Computing fast CPCM-ISWIG gradient
 Updating gradient with PCM contributions...
 -- total gradient after adding PCM contribution --
---------------------------------------------------
  Atom         X              Y              Z     
---------------------------------------------------
   1      -0.001060      -0.000087       0.000049
   2       0.000103      -0.000072      -0.000048
   3       0.000154       0.000063      -0.000152
   4       0.000471       0.000227       0.000061
   5       0.000259      -0.000090       0.000095
   6       0.000001       0.000008       0.000004
   7       0.000002      -0.000001       0.000001
   8       0.000001       0.000002      -0.000001
   9       0.000000      -0.000000      -0.000003
  10       0.000002      -0.000001       0.000002
  11      -0.000003       0.000002      -0.000001
  12       0.000005      -0.000000       0.000002
  13      -0.000015       0.000014      -0.000011
  14       0.000004      -0.000032      -0.000008
  15      -0.000000      -0.000001      -0.000002
  16       0.000083      -0.000038       0.000023
  17      -0.000004      -0.000001      -0.000002
  18      -0.000000      -0.000002      -0.000001
  19      -0.000003       0.000009      -0.000005
---------------------------------------------------
 Number of fixed atoms: 0
 Gradient time:  CPU 1101.73 s  wall 79.03 s
 ----------------------------------------------------------------
             Standard Nuclear Orientation (Angstroms)
    I     Atom           X                Y                Z
 ----------------------------------------------------------------
    1      C      -2.4969400900     0.6926302414    -1.1181481305
    2      H      -2.6809200399     1.5449913314    -0.4603702744
    3      H      -2.1174457264     1.0572767904    -2.0755443337
    4      H      -3.4318804402     0.1524525555    -1.2818162152
    5      C      -1.4852051477    -0.2440540859    -0.4855285227
    6      C       0.7873991051    -0.1488199785     0.3092537118
    7      H       1.0500667530    -1.0671161440    -0.2268171969
    8      H       0.4819538620    -0.4272912544     1.3225333815
    9      C       1.9632896160     0.8069449108     0.3420973993
   10      H       1.6749875569     1.7347264436     0.8494997924
   11      H       2.2446366637     1.0887865698    -0.6793302810
   12      C       3.2182080858     0.2600927633     1.0396191339
   13      O      -1.9772959547    -0.6245814037     0.8044944612
   14      O      -1.2876800778    -1.3958884729    -1.2106069046
   15      H      -1.3601116958    -2.0614525151    -0.4147688838
   16      O      -0.2909486750     0.5123024199    -0.3526121249
   17      O       4.2001168001     1.0467683745     1.1054672795
   18      O       3.1880135203    -0.9136488893     1.4898414867
   19      O      -1.6737896154    -2.0240306769     1.0375159477
 ----------------------------------------------------------------
 Nuclear Repulsion Energy =   646.3898094250 hartrees
 There are       44 alpha and       44 beta electrons
 Discretize the solute cavity surface with Lebedev spheres
	Using 110 Lebedev grid points for each H atom
	Using 110 Lebedev grid points for other atoms
	Atomic van der Waals radii will be scaled by 1.20
 Remove points where switching function is < 1.0e-08
 Keep 1112 surface tesserae and discard 978 interior tesserae
 Molecular Surface Area = 199.081 Angst**2
 Requested basis set is def2-TZVPD
 There are 189 shells and 497 basis functions
 A cutoff of  1.0D-14 yielded  16015 shell pairs
 There are    110587 function pairs (    140836 Cartesian)
 Smallest overlap matrix eigenvalue = 3.22E-06
 Guess MOs from SCF MO coefficient file
 Reading MOs from coefficient file
 Reading MOs from coefficient file
 Long-range K will be added via erf
 Coulomb attenuation parameter = 0.3 bohr**(-1)
 A restricted hybrid HF-DFT SCF calculation will be
 performed using Pulay DIIS extrapolation
 Polarizable Continuum solvation model will be applied
 Exchange:     0.1670 Hartree-Fock + 1.0000 wB97X-V + LR-HF
 Correlation:  1.0000 wB97X-V
 Using SG-2 standard quadrature grid
 Nonlocal Correlation:  VV10 with C = 0.0100 and b = 6.00
 Grid used for NLC:  SG-1 standard quadrature
 SCF converges when DIIS error is below 1.0E-08
Using Q-Chem read-in guess as SCF_GUESS READ specified.

 using 16 threads for integral computing
 -------------------------------------------------------
 OpenMP Integral computing Module                
 Release: version 1.0, May 2013, Q-Chem Inc. Pittsburgh 
 -------------------------------------------------------
 using 16 threads for integral computing
 -------------------------------------------------------
 OpenMP Integral computing Module                
 Release: version 1.0, May 2013, Q-Chem Inc. Pittsburgh 
 -------------------------------------------------------
 -------------------------------------------------------
 OpenMP BLAS3 based DFT computing Module                
 Release: version 1.0, May 2013, Q-Chem Inc. Pittsburgh 
 -------------------------------------------------------
 -------------------------------------------------------
 OpenMP BLAS3 based DFT computing Module                
 Release: version 1.0, May 2013, Q-Chem Inc. Pittsburgh 
 -------------------------------------------------------
 -------------------------------------------------------
 OpenMP BLAS3 based DFT computing Module                
 Release: version 1.0, May 2013, Q-Chem Inc. Pittsburgh 
 -------------------------------------------------------
 ---------------------------------------
  Cycle       Energy         DIIS Error
 ---------------------------------------
    1    -646.6614346739      3.13E-04
    2    -646.9555300389      3.21E-04
    3    -646.9601242209      1.53E-04
    4    -646.9608910983      1.13E-04
    5    -646.9613878406      8.59E-05
    6    -646.9616408353      6.88E-05
    7    -646.9618600409      4.98E-05
    8    -646.9620154102      2.97E-05
    9    -646.9620883107      1.15E-05
   10    -646.9620996275      3.96E-06
   11    -646.9621010854      7.31E-07
   12    -646.9621011330      1.67E-07
   13    -646.9621011355      1.81E-08
   14    -646.9621011355      1.70E-08
   15    -646.9621011356      6.99E-09 Convergence criterion met
 ---------------------------------------

************** Final PCM Free Energy Summary **************
 G_electrostatic  =      -0.30051518 hartree =    -188.57612051 kcal/mol
 G_cavitation     =       0.00000000 hartree =       0.00000000 kcal/mol
 G_dispersion     =       0.00000000 hartree =       0.00000000 kcal/mol
 G_repulsion      =       0.00000000 hartree =       0.00000000 kcal/mol
 --------------------------------------------------
 Non-electrostatic Free Energy =       0.00000000 hartree =       0.00000000 kcal/mol
 Total                         =      -0.30051518 hartree =    -188.57612051 kcal/mol
 --------------------------------------------------
 SCF Energy (H0 + V/2)                       =    -646.96210114 
 Solute Internal Energy (H0)                 =    -646.66158596 
 Total Free Energy (H0 + V/2 + non-elec)     =    -646.96210114 hartree
                                             = -405974.84584063 kcal/mol
***********************************************************

 SCF time:  CPU 4738.73 s  wall 333.08 s
 SCF   energy in the final basis set = -646.96210114
 Total energy in the final basis set = -646.96210114
 
 --------------------------------------------------------------
 
                    Orbital Energies (a.u.)
 --------------------------------------------------------------
 
 Alpha MOs
 -- Occupied --
-19.221 -19.201 -19.181 -19.162 -19.141 -19.138 -10.391 -10.342
-10.291 -10.248 -10.246  -1.223  -1.144  -1.138  -1.100  -1.050
 -0.940  -0.878  -0.837  -0.744  -0.674  -0.632  -0.616  -0.591
 -0.578  -0.564  -0.528  -0.526  -0.510  -0.506  -0.489  -0.482
 -0.460  -0.450  -0.435  -0.426  -0.418  -0.389  -0.369  -0.347
 -0.336  -0.332  -0.331  -0.290
 -- Virtual --
  0.060   0.072   0.076   0.086   0.098   0.099   0.107   0.111
  0.125   0.128   0.133   0.141   0.143   0.155   0.159   0.162
  0.170   0.173   0.180   0.182   0.189   0.191   0.208   0.213
  0.218   0.229   0.236   0.241   0.243   0.250   0.253   0.267
  0.271   0.277   0.279   0.284   0.290   0.292   0.303   0.305
  0.308   0.319   0.328   0.332   0.337   0.340   0.343   0.352
  0.358   0.366   0.369   0.373   0.375   0.381   0.385   0.392
  0.399   0.402   0.407   0.412   0.414   0.419   0.422   0.430
  0.433   0.437   0.444   0.448   0.450   0.455   0.463   0.470
  0.475   0.478   0.485   0.492   0.495   0.506   0.508   0.514
  0.517   0.525   0.528   0.540   0.543   0.550   0.551   0.553
  0.562   0.565   0.569   0.585   0.587   0.591   0.596   0.601
  0.612   0.614   0.621   0.624   0.632   0.644   0.648   0.657
  0.665   0.670   0.675   0.682   0.692   0.700   0.715   0.723
  0.728   0.734   0.739   0.746   0.753   0.757   0.764   0.777
  0.780   0.782   0.789   0.797   0.805   0.807   0.808   0.822
  0.828   0.833   0.837   0.841   0.848   0.856   0.860   0.868
  0.871   0.875   0.884   0.891   0.897   0.911   0.915   0.926
  0.933   0.941   0.952   0.959   0.972   0.974   0.988   1.007
  1.014   1.019   1.033   1.042   1.057   1.070   1.076   1.093
  1.098   1.118   1.132   1.141   1.142   1.161   1.168   1.193
  1.197   1.204   1.214   1.226   1.239   1.253   1.264   1.277
  1.281   1.295   1.309   1.319   1.327   1.332   1.354   1.367
  1.383   1.397   1.406   1.423   1.436   1.449   1.463   1.469
  1.485   1.498   1.508   1.537   1.551   1.567   1.607   1.622
  1.634   1.661   1.707   1.744   1.763   1.775   1.814   1.833
  1.854   1.884   1.895   1.923   1.938   1.938   1.952   1.957
  1.962   1.973   1.978   1.994   2.001   2.008   2.023   2.033
  2.048   2.055   2.076   2.092   2.115   2.159   2.176   2.195
  2.202   2.221   2.226   2.238   2.244   2.271   2.282   2.287
  2.328   2.333   2.343   2.358   2.369   2.386   2.408   2.438
  2.459   2.471   2.486   2.487   2.498   2.503   2.530   2.532
  2.574   2.611   2.613   2.635   2.646   2.655   2.679   2.700
  2.707   2.719   2.728   2.760   2.772   2.785   2.813   2.840
  2.874   2.895   2.908   2.928   2.946   2.955   2.959   2.980
  2.989   3.025   3.039   3.068   3.080   3.091   3.102   3.122
  3.157   3.192   3.219   3.234   3.242   3.252   3.263   3.284
  3.306   3.321   3.328   3.360   3.367   3.375   3.400   3.414
  3.421   3.455   3.458   3.473   3.495   3.502   3.523   3.537
  3.542   3.561   3.567   3.574   3.592   3.618   3.634   3.655
  3.659   3.677   3.680   3.695   3.705   3.717   3.732   3.745
  3.755   3.769   3.777   3.788   3.820   3.845   3.869   3.893
  3.932   3.951   3.964   3.986   4.035   4.081   4.100   4.161
  4.177   4.203   4.216   4.226   4.263   4.272   4.338   4.384
  4.447   4.540   4.616   4.631   4.638   4.648   4.696   4.717
  4.788   4.818   4.827   4.887   4.957   4.963   5.004   5.037
  5.082   5.134   5.141   5.244   5.267   5.295   5.320   5.328
  5.344   5.362   5.374   5.384   5.473   5.503   5.507   5.556
  5.571   5.598   5.648   5.671   5.711   5.726   5.739   5.747
  5.778   5.874   5.942   5.992   6.016   6.098   6.139   6.156
  6.248   6.276   6.314   6.330   6.343   6.372   6.419   6.459
  6.554   6.623   6.633   6.638   6.665   6.694   6.703   6.748
  6.774   6.808   6.834   6.843   6.877   6.961   6.969   7.016
  7.043   7.048   7.073   7.133   7.179   7.228   7.245   7.258
  7.329   7.362   7.399   7.412   7.417   7.518   7.625   7.684
  7.742   8.316  22.691  22.861  22.947  23.133  23.740  44.218
 44.264  44.439  44.522  44.667  44.760
 --------------------------------------------------------------
 
          Ground-State Mulliken Net Atomic Charges

     Atom                 Charge (a.u.)
  ----------------------------------------
      1 C                    -1.169316
      2 H                     0.236413
      3 H                     0.249961
      4 H                     0.253869
      5 C                     0.712368
      6 C                    -0.236867
      7 H                     0.183386
      8 H                     0.188361
      9 C                    -0.084535
     10 H                     0.237156
     11 H                     0.243382
     12 C                     0.040843
     13 O                    -0.231876
     14 O                    -0.590615
     15 H                     0.393771
     16 O                    -0.266361
     17 O                    -0.708091
     18 O                    -0.689457
     19 O                    -0.762392
  ----------------------------------------
  Sum of atomic charges =    -2.000000

 -----------------------------------------------------------------
                    Cartesian Multipole Moments
 -----------------------------------------------------------------
    Charge (ESU x 10^10)
                -9.6064
    Dipole Moment (Debye)
         X     -11.1772      Y       6.8418      Z      -9.0710
       Tot      15.9381
    Quadrupole Moments (Debye-Ang)
        XX    -160.0545     XY     -17.0438     YY     -91.1241
        XZ     -20.1033     YZ       6.6814     ZZ     -88.6804
    Octopole Moments (Debye-Ang^2)
       XXX    -371.0489    XXY       9.3641    XYY     -29.1447
       YYY      59.7632    XXZ    -140.8034    XYZ      -7.9689
       YYZ     -37.7734    XZZ     -46.4668    YZZ      34.5890
       ZZZ     -68.9521
    Hexadecapole Moments (Debye-Ang^3)
      XXXX   -3790.3566   XXXY    -376.0661   XXYY    -642.4870
      XYYY    -221.7430   YYYY    -560.2084   XXXZ    -696.2203
      XXYZ      17.8510   XYYZ    -115.1314   YYYZ      66.4462
      XXZZ    -645.4614   XYZZ     -70.4720   YYZZ    -204.2339
      XZZZ    -350.8931   YZZZ      44.8129   ZZZZ    -505.0717
 -----------------------------------------------------------------
 Calculating analytic gradient of the SCF energy
 Gradient of SCF Energy
            1           2           3           4           5           6
    1  -0.1111655   0.0103497  -0.0267571   0.0652323   0.1275593   0.0189551
    2   0.0364242  -0.0558245  -0.0231014   0.0369772  -0.0081265  -0.1015287
    3  -0.0427251  -0.0462540   0.0619283   0.0124283   0.0840494   0.0516196
            7           8           9          10          11          12
    1  -0.0101815   0.0302525  -0.0292655   0.0187172  -0.0178480   0.0362311
    2   0.0649743   0.0220964   0.0619901  -0.0471632  -0.0051437  -0.0150996
    3   0.0296402  -0.0657878  -0.0388101  -0.0373659   0.0575530   0.0195667
           13          14          15          16          17          18
    1  -0.0279820  -0.0200505  -0.0032259  -0.0118855  -0.0480779  -0.0051216
    2   0.0562549  -0.0115236   0.0410173  -0.0130099  -0.0286654   0.0516863
    3  -0.0182178  -0.0030081  -0.0420237  -0.0004094  -0.0068174  -0.0215375
           19
    1   0.0042639
    2  -0.0622342
    3   0.0061713
 Max gradient component =       1.276E-01
 RMS gradient           =       4.473E-02
 Computing fast CPCM-ISWIG gradient
 Updating gradient with PCM contributions...
 -- total gradient after adding PCM contribution --
---------------------------------------------------
  Atom         X              Y              Z     
---------------------------------------------------
   1       0.000081       0.001058       0.000051
   2       0.000064      -0.000403      -0.000243
   3      -0.000062      -0.000138       0.000153
   4      -0.000213      -0.000221      -0.000038
   5       0.000121      -0.000206       0.000084
   6      -0.000005      -0.000004       0.000008
   7       0.000001       0.000000       0.000001
   8       0.000000       0.000002      -0.000002
   9      -0.000003       0.000005      -0.000006
  10       0.000003      -0.000001       0.000002
  11      -0.000003       0.000002      -0.000001
  12       0.000006      -0.000002       0.000004
  13       0.000003      -0.000018       0.000028
  14       0.000043      -0.000079      -0.000003
  15       0.000004      -0.000004      -0.000004
  16      -0.000036       0.000006      -0.000034
  17      -0.000006      -0.000001      -0.000003
  18      -0.000001      -0.000002      -0.000002
  19       0.000002       0.000007       0.000004
---------------------------------------------------
 Number of fixed atoms: 0
 Gradient time:  CPU 1095.11 s  wall 78.30 s
 ----------------------------------------------------------------
             Standard Nuclear Orientation (Angstroms)
    I     Atom           X                Y                Z
 ----------------------------------------------------------------
    1      C      -2.4969400900     0.6906302414    -1.1181481305
    2      H      -2.6809200399     1.5449913314    -0.4603702744
    3      H      -2.1174457264     1.0572767904    -2.0755443337
    4      H      -3.4318804402     0.1524525555    -1.2818162152
    5      C      -1.4852051477    -0.2440540859    -0.4855285227
    6      C       0.7873991051    -0.1488199785     0.3092537118
    7      H       1.0500667530    -1.0671161440    -0.2268171969
    8      H       0.4819538620    -0.4272912544     1.3225333815
    9      C       1.9632896160     0.8069449108     0.3420973993
   10      H       1.6749875569     1.7347264436     0.8494997924
   11      H       2.2446366637     1.0887865698    -0.6793302810
   12      C       3.2182080858     0.2600927633     1.0396191339
   13      O      -1.9772959547    -0.6245814037     0.8044944612
   14      O      -1.2876800778    -1.3958884729    -1.2106069046
   15      H      -1.3601116958    -2.0614525151    -0.4147688838
   16      O      -0.2909486750     0.5123024199    -0.3526121249
   17      O       4.2001168001     1.0467683745     1.1054672795
   18      O       3.1880135203    -0.9136488893     1.4898414867
   19      O      -1.6737896154    -2.0240306769     1.0375159477
 ----------------------------------------------------------------
 Nuclear Repulsion Energy =   646.4146724145 hartrees
 There are       44 alpha and       44 beta electrons
 Discretize the solute cavity surface with Lebedev spheres
	Using 110 Lebedev grid points for each H atom
	Using 110 Lebedev grid points for other atoms
	Atomic van der Waals radii will be scaled by 1.20
 Remove points where switching function is < 1.0e-08
 Keep 1112 surface tesserae and discard 978 interior tesserae
 Molecular Surface Area = 199.072 Angst**2
 Requested basis set is def2-TZVPD
 There are 189 shells and 497 basis functions
 A cutoff of  1.0D-14 yielded  16015 shell pairs
 There are    110587 function pairs (    140836 Cartesian)
 Smallest overlap matrix eigenvalue = 3.22E-06
 Guess MOs from SCF MO coefficient file
 Reading MOs from coefficient file
 Reading MOs from coefficient file
 Long-range K will be added via erf
 Coulomb attenuation parameter = 0.3 bohr**(-1)
 A restricted hybrid HF-DFT SCF calculation will be
 performed using Pulay DIIS extrapolation
 Polarizable Continuum solvation model will be applied
 Exchange:     0.1670 Hartree-Fock + 1.0000 wB97X-V + LR-HF
 Correlation:  1.0000 wB97X-V
 Using SG-2 standard quadrature grid
 Nonlocal Correlation:  VV10 with C = 0.0100 and b = 6.00
 Grid used for NLC:  SG-1 standard quadrature
 SCF converges when DIIS error is below 1.0E-08
Using Q-Chem read-in guess as SCF_GUESS READ specified.

 using 16 threads for integral computing
 -------------------------------------------------------
 OpenMP Integral computing Module                
 Release: version 1.0, May 2013, Q-Chem Inc. Pittsburgh 
 -------------------------------------------------------
 using 16 threads for integral computing
 -------------------------------------------------------
 OpenMP Integral computing Module                
 Release: version 1.0, May 2013, Q-Chem Inc. Pittsburgh 
 -------------------------------------------------------
 -------------------------------------------------------
 OpenMP BLAS3 based DFT computing Module                
 Release: version 1.0, May 2013, Q-Chem Inc. Pittsburgh 
 -------------------------------------------------------
 -------------------------------------------------------
 OpenMP BLAS3 based DFT computing Module                
 Release: version 1.0, May 2013, Q-Chem Inc. Pittsburgh 
 -------------------------------------------------------
 -------------------------------------------------------
 OpenMP BLAS3 based DFT computing Module                
 Release: version 1.0, May 2013, Q-Chem Inc. Pittsburgh 
 -------------------------------------------------------
 ---------------------------------------
  Cycle       Energy         DIIS Error
 ---------------------------------------
    1    -646.6611909370      3.14E-04
    2    -646.9555103502      3.22E-04
    3    -646.9601221473      1.53E-04
    4    -646.9608926791      1.13E-04
    5    -646.9613993553      8.52E-05
    6    -646.9616656152      6.70E-05
    7    -646.9619102514      4.43E-05
    8    -646.9620558639      2.15E-05
    9    -646.9620976060      6.03E-06
   10    -646.9621008515      1.70E-06
   11    -646.9621011187      2.89E-07
   12    -646.9621011258      6.70E-08
   13    -646.9621011262      2.22E-08
   14    -646.9621011262      1.18E-08
   15    -646.9621011262      3.31E-09 Convergence criterion met
 ---------------------------------------

************** Final PCM Free Energy Summary **************
 G_electrostatic  =      -0.30052395 hartree =    -188.58162528 kcal/mol
 G_cavitation     =       0.00000000 hartree =       0.00000000 kcal/mol
 G_dispersion     =       0.00000000 hartree =       0.00000000 kcal/mol
 G_repulsion      =       0.00000000 hartree =       0.00000000 kcal/mol
 --------------------------------------------------
 Non-electrostatic Free Energy =       0.00000000 hartree =       0.00000000 kcal/mol
 Total                         =      -0.30052395 hartree =    -188.58162528 kcal/mol
 --------------------------------------------------
 SCF Energy (H0 + V/2)                       =    -646.96210113 
 Solute Internal Energy (H0)                 =    -646.66157718 
 Total Free Energy (H0 + V/2 + non-elec)     =    -646.96210113 hartree
                                             = -405974.84583476 kcal/mol
***********************************************************

 SCF time:  CPU 4798.86 s  wall 336.03 s
 SCF   energy in the final basis set = -646.96210113
 Total energy in the final basis set = -646.96210113
 
 --------------------------------------------------------------
 
                    Orbital Energies (a.u.)
 --------------------------------------------------------------
 
 Alpha MOs
 -- Occupied --
-19.221 -19.201 -19.181 -19.162 -19.141 -19.138 -10.390 -10.342
-10.291 -10.248 -10.246  -1.223  -1.144  -1.138  -1.100  -1.050
 -0.940  -0.878  -0.837  -0.744  -0.674  -0.632  -0.616  -0.591
 -0.578  -0.564  -0.528  -0.526  -0.510  -0.506  -0.488  -0.482
 -0.460  -0.450  -0.435  -0.426  -0.418  -0.389  -0.369  -0.347
 -0.336  -0.332  -0.331  -0.290
 -- Virtual --
  0.060   0.072   0.076   0.086   0.098   0.099   0.107   0.111
  0.125   0.128   0.133   0.141   0.143   0.155   0.159   0.162
  0.170   0.173   0.180   0.182   0.189   0.191   0.208   0.213
  0.218   0.229   0.236   0.241   0.243   0.250   0.253   0.267
  0.271   0.277   0.279   0.284   0.290   0.292   0.303   0.305
  0.308   0.319   0.328   0.332   0.337   0.340   0.343   0.352
  0.358   0.366   0.369   0.373   0.375   0.381   0.385   0.392
  0.399   0.402   0.407   0.412   0.414   0.419   0.422   0.430
  0.433   0.437   0.444   0.448   0.450   0.455   0.463   0.470
  0.475   0.478   0.485   0.492   0.495   0.506   0.508   0.514
  0.517   0.525   0.528   0.540   0.543   0.551   0.551   0.553
  0.562   0.565   0.569   0.585   0.587   0.591   0.596   0.601
  0.612   0.614   0.621   0.624   0.632   0.644   0.648   0.657
  0.665   0.670   0.675   0.682   0.692   0.700   0.715   0.723
  0.729   0.734   0.739   0.746   0.753   0.757   0.764   0.777
  0.780   0.782   0.789   0.797   0.805   0.807   0.808   0.822
  0.828   0.833   0.837   0.841   0.848   0.856   0.860   0.868
  0.871   0.875   0.884   0.891   0.897   0.911   0.915   0.926
  0.933   0.941   0.953   0.959   0.972   0.974   0.988   1.007
  1.014   1.019   1.033   1.042   1.057   1.070   1.076   1.093
  1.098   1.118   1.131   1.141   1.142   1.161   1.168   1.193
  1.197   1.204   1.214   1.226   1.239   1.253   1.264   1.277
  1.281   1.295   1.309   1.319   1.327   1.332   1.354   1.367
  1.383   1.397   1.406   1.423   1.436   1.449   1.463   1.469
  1.486   1.498   1.508   1.537   1.551   1.567   1.607   1.622
  1.634   1.661   1.707   1.744   1.763   1.775   1.814   1.833
  1.854   1.884   1.895   1.923   1.938   1.938   1.952   1.957
  1.962   1.973   1.978   1.994   2.001   2.008   2.023   2.033
  2.048   2.055   2.076   2.092   2.115   2.159   2.176   2.195
  2.202   2.221   2.226   2.238   2.244   2.271   2.282   2.287
  2.328   2.333   2.343   2.358   2.369   2.386   2.408   2.438
  2.459   2.471   2.485   2.487   2.498   2.503   2.530   2.531
  2.574   2.611   2.613   2.635   2.646   2.655   2.680   2.700
  2.707   2.720   2.728   2.760   2.772   2.785   2.813   2.840
  2.874   2.895   2.907   2.928   2.946   2.954   2.959   2.980
  2.989   3.025   3.039   3.068   3.080   3.091   3.102   3.122
  3.157   3.192   3.219   3.234   3.242   3.252   3.263   3.284
  3.306   3.321   3.328   3.360   3.367   3.375   3.399   3.413
  3.421   3.455   3.458   3.473   3.495   3.502   3.523   3.537
  3.542   3.561   3.567   3.574   3.592   3.618   3.634   3.655
  3.659   3.676   3.680   3.695   3.705   3.717   3.732   3.745
  3.755   3.769   3.777   3.788   3.820   3.845   3.869   3.893
  3.932   3.951   3.965   3.987   4.035   4.081   4.100   4.161
  4.177   4.204   4.216   4.226   4.263   4.272   4.338   4.384
  4.447   4.540   4.616   4.630   4.638   4.648   4.695   4.717
  4.789   4.818   4.827   4.887   4.957   4.963   5.005   5.037
  5.082   5.134   5.141   5.244   5.267   5.295   5.320   5.328
  5.344   5.362   5.374   5.384   5.473   5.503   5.507   5.556
  5.571   5.598   5.648   5.671   5.711   5.726   5.740   5.747
  5.778   5.874   5.942   5.992   6.017   6.098   6.139   6.156
  6.248   6.276   6.314   6.330   6.343   6.372   6.419   6.459
  6.554   6.623   6.633   6.638   6.665   6.694   6.703   6.748
  6.774   6.808   6.834   6.843   6.877   6.961   6.969   7.016
  7.043   7.048   7.073   7.133   7.180   7.228   7.245   7.258
  7.329   7.362   7.399   7.412   7.417   7.518   7.625   7.684
  7.742   8.316  22.691  22.861  22.947  23.134  23.740  44.218
 44.264  44.439  44.522  44.667  44.760
 --------------------------------------------------------------
 
          Ground-State Mulliken Net Atomic Charges

     Atom                 Charge (a.u.)
  ----------------------------------------
      1 C                    -1.171409
      2 H                     0.235811
      3 H                     0.249751
      4 H                     0.254471
      5 C                     0.714815
      6 C                    -0.236849
      7 H                     0.183442
      8 H                     0.188391
      9 C                    -0.084509
     10 H                     0.237214
     11 H                     0.243411
     12 C                     0.040804
     13 O                    -0.231942
     14 O                    -0.590706
     15 H                     0.393715
     16 O                    -0.266480
     17 O                    -0.708086
     18 O                    -0.689456
     19 O                    -0.762390
  ----------------------------------------
  Sum of atomic charges =    -2.000000

[...]
 Red. Mass:       3.4681                 2.5977                 2.7951
 IR Active:          YES                    YES                    YES
 IR Intens:      153.501                 25.030                383.926
 Raman Active:       YES                    YES                    YES
               X      Y      Z        X      Y      Z        X      Y      Z
 C         -0.095 -0.020  0.108   -0.015 -0.018 -0.029   -0.139 -0.089 -0.050
 H         -0.054  0.243 -0.238    0.077 -0.054  0.052    0.352  0.005 -0.003
 H          0.410 -0.363  0.164   -0.032  0.090  0.006    0.179  0.208  0.175
 H         -0.093  0.117 -0.327   -0.083  0.091  0.004   -0.447  0.529 -0.255
 C          0.024 -0.055 -0.180    0.008  0.026  0.053    0.278  0.143  0.119
 C         -0.178  0.135 -0.119   -0.180 -0.181  0.006    0.013  0.051 -0.017
 H         -0.095  0.106 -0.064   -0.402 -0.236 -0.029   -0.059  0.069 -0.062
 H         -0.053  0.092 -0.075   -0.366 -0.222 -0.051   -0.056  0.077 -0.039
 C         -0.033 -0.034  0.006    0.126  0.212 -0.034   -0.022 -0.041  0.008
 H          0.112  0.010  0.015    0.346  0.260  0.009   -0.016 -0.047  0.021
 H          0.103  0.011  0.051    0.391  0.250  0.045   -0.006 -0.044  0.012
 C         -0.002 -0.004 -0.003   -0.012 -0.003 -0.011    0.008 -0.002  0.003
 O         -0.024  0.043  0.021   -0.001 -0.015  0.001   -0.016 -0.017 -0.015
 O          0.006  0.041 -0.037   -0.005 -0.027  0.000   -0.038 -0.039  0.003
 H         -0.092  0.184  0.345    0.039 -0.057 -0.091    0.168 -0.031 -0.098
 O          0.195 -0.099  0.124    0.078  0.014  0.020   -0.052 -0.063  0.003
 O          0.022  0.015  0.004   -0.024 -0.002 -0.007    0.002 -0.003  0.002
 O         -0.005  0.003 -0.002    0.009 -0.017  0.011   -0.000  0.013 -0.005
 O          0.003 -0.044  0.040   -0.001  0.013 -0.011   -0.006  0.013 -0.020
 TransDip  -0.376 -0.033 -0.124   -0.136  0.059 -0.061    0.533  0.326  0.059

 Mode:                31                     32                     33
 Frequency:      1225.83                1283.49                1301.03
 Force Cnst:      1.0688                 1.7224                 1.2633
 Red. Mass:       1.2072                 1.7746                 1.2667
 IR Active:          YES                    YES                    YES
 IR Intens:        1.634                 57.292                 46.533
 Raman Active:       YES                    YES                    YES
               X      Y      Z        X      Y      Z        X      Y      Z
 C          0.000  0.001  0.002   -0.005  0.024  0.013    0.000  0.010  0.009
 H          0.002  0.003 -0.002   -0.150  0.098 -0.121   -0.096  0.064 -0.085
 H         -0.000 -0.006 -0.001   -0.135  0.021 -0.048   -0.097  0.029 -0.028
 H          0.006 -0.007 -0.000   -0.030  0.084 -0.101   -0.028  0.071 -0.068
 C         -0.001  0.000 -0.004    0.074 -0.147 -0.007    0.052 -0.083  0.002
 C         -0.030  0.039  0.095    0.029  0.024  0.004   -0.017 -0.001  0.051
 H         -0.410  0.193 -0.340   -0.307 -0.021 -0.089    0.531  0.095  0.144
 H          0.469 -0.256  0.169   -0.397 -0.034 -0.140   -0.382 -0.126 -0.098
 C          0.000  0.000  0.002    0.151  0.031  0.038   -0.029 -0.025 -0.067
 H         -0.408 -0.063 -0.110   -0.519 -0.032 -0.219   -0.245 -0.139  0.017
 H          0.380  0.068  0.128   -0.472  0.021 -0.140    0.561  0.174  0.151
 C          0.020 -0.019 -0.046    0.042  0.004  0.013   -0.007 -0.009 -0.030
 O         -0.002 -0.003  0.002   -0.010  0.028  0.001   -0.008  0.015  0.001
 O          0.002  0.004  0.002   -0.012  0.053  0.018   -0.009  0.025  0.011
 H          0.008  0.001 -0.001    0.039 -0.045 -0.035    0.018 -0.044 -0.047
 O          0.012 -0.019 -0.046   -0.019 -0.013  0.007   -0.017  0.028  0.007
 O         -0.004  0.002  0.007   -0.058 -0.036 -0.008    0.018  0.013  0.006
 O         -0.002  0.003  0.007    0.002  0.016 -0.005   -0.001 -0.007  0.006
 O         -0.001  0.001 -0.000    0.003 -0.004 -0.001    0.002 -0.001 -0.003
 TransDip   0.005  0.011  0.039    0.204 -0.113 -0.065    0.031 -0.207 -0.063

 Mode:                34                     35                     36
 Frequency:      1303.62                1402.01                1413.86
 Force Cnst:      1.9627                 1.6991                 1.8954
 Red. Mass:       1.9603                 1.4672                 1.6093
 IR Active:          YES                    YES                    YES
 IR Intens:      139.654                 84.254                114.541
 Raman Active:       YES                    YES                    YES
               X      Y      Z        X      Y      Z        X      Y      Z
 C         -0.002 -0.024 -0.022    0.093 -0.093  0.041   -0.075  0.065 -0.025
 H          0.228 -0.153  0.205   -0.284  0.121 -0.326    0.239 -0.036  0.185
 H          0.239 -0.069  0.070   -0.341  0.292  0.013    0.214 -0.162  0.001
 H          0.064 -0.169  0.163   -0.169  0.391 -0.073    0.124 -0.282  0.005
 C         -0.124  0.200 -0.003   -0.035  0.049  0.022    0.069 -0.042 -0.009
 C         -0.017  0.056  0.009   -0.088 -0.021 -0.022   -0.121 -0.040 -0.029
 H          0.227  0.104  0.038    0.331  0.011  0.120    0.455 -0.008  0.187
 H         -0.436 -0.058 -0.151    0.328 -0.003  0.113    0.470 -0.016  0.161
 C          0.092 -0.014 -0.008    0.045 -0.005  0.018    0.047 -0.010  0.022
 H         -0.566 -0.131 -0.163   -0.088  0.044 -0.134   -0.061  0.097 -0.213
 H         -0.024  0.116 -0.006   -0.126  0.101 -0.006   -0.150  0.191  0.013
 C          0.035 -0.007 -0.004    0.046 -0.008  0.021    0.076 -0.014  0.035
 O          0.019 -0.033 -0.005    0.006 -0.007 -0.010   -0.011  0.004  0.013
 O          0.021 -0.066 -0.022    0.008 -0.014 -0.033   -0.011  0.007  0.030
 H         -0.069  0.083  0.073   -0.066  0.144  0.213    0.059 -0.157 -0.229
 O          0.028 -0.041  0.036    0.003  0.011 -0.008   -0.007  0.032 -0.011
 O         -0.034 -0.021 -0.002   -0.032 -0.020 -0.005   -0.050 -0.031 -0.007
 O         -0.001  0.016 -0.004   -0.003  0.023 -0.010   -0.005  0.036 -0.016
 O         -0.003  0.003  0.004   -0.002 -0.005  0.010    0.002  0.006 -0.010
 TransDip  -0.095  0.360  0.067   -0.113  0.159  0.220    0.284 -0.080 -0.174

 Mode:                37                     38                     39
 Frequency:      1433.57                1448.54                1460.12
 Force Cnst:      5.1560                 1.6989                 1.5880
 Red. Mass:       4.2582                 1.3742                 1.2642
 IR Active:          YES                    YES                    YES
 IR Intens:      325.523                602.987                 23.445
 Raman Active:       YES                    YES                    YES
               X      Y      Z        X      Y      Z        X      Y      Z
 C          0.013 -0.002  0.009   -0.019  0.036 -0.080    0.009 -0.004  0.008
 H         -0.032 -0.011  0.006   -0.253 -0.202  0.182   -0.009 -0.006  0.002
 H         -0.052 -0.033 -0.028    0.341 -0.068  0.037   -0.046 -0.020 -0.020
 H         -0.000  0.030 -0.040   -0.138  0.068  0.462    0.000  0.027 -0.044
 C         -0.024 -0.004 -0.012    0.040 -0.071  0.089   -0.015  0.009 -0.007
 C          0.044  0.002  0.014   -0.005 -0.010  0.005    0.067  0.022  0.015
 H         -0.169 -0.010 -0.074    0.018 -0.004  0.005   -0.187 -0.050  0.015
 H         -0.185  0.009 -0.051    0.012 -0.013  0.011   -0.154 -0.086 -0.081
 C         -0.149  0.076 -0.088   -0.005 -0.001 -0.003   -0.074 -0.079  0.006
 H          0.104 -0.192  0.530    0.021  0.024 -0.031    0.276  0.330 -0.514
 H          0.327 -0.454 -0.095    0.013  0.048  0.014    0.006  0.635  0.209
 C          0.319 -0.138  0.177    0.016 -0.003  0.007    0.056 -0.011  0.026
 O          0.002  0.001  0.001    0.004  0.005 -0.022    0.002 -0.001 -0.000
 O          0.001  0.001  0.007    0.005  0.020 -0.074    0.001 -0.001  0.003
 H          0.004 -0.023 -0.039   -0.117  0.348  0.576    0.005 -0.005 -0.015
 O          0.023 -0.000  0.009   -0.010  0.009 -0.013    0.001 -0.006  0.003
 O         -0.155 -0.097 -0.021   -0.008 -0.005 -0.001   -0.024 -0.017 -0.002
 O         -0.023  0.186 -0.083   -0.001  0.007 -0.003   -0.004  0.021 -0.010
 O          0.001  0.001 -0.001   -0.004 -0.010  0.020   -0.000  0.000 -0.000
 TransDip   0.461 -0.246  0.247   -0.021 -0.167  0.768    0.130  0.084  0.000

 Mode:                40                     41                     42
 Frequency:      1468.89                1479.23                1512.51
 Force Cnst:      1.3413                 1.5031                 1.4795
 Red. Mass:       1.0551                 1.1660                 1.0976
 IR Active:          YES                    YES                    YES
 IR Intens:        6.249                250.838                 15.692
 Raman Active:       YES                    YES                    YES
               X      Y      Z        X      Y      Z        X      Y      Z
 C         -0.036 -0.033 -0.015    0.029 -0.017 -0.017    0.001 -0.000  0.000
 H          0.244  0.337 -0.402   -0.492 -0.081 -0.069   -0.000  0.008 -0.012
 H          0.199  0.572  0.306    0.354 -0.003  0.128    0.005  0.013  0.008
 H          0.093 -0.322  0.289   -0.212  0.244  0.494    0.005 -0.010  0.013
 C         -0.013 -0.034 -0.001    0.003  0.025 -0.085   -0.006 -0.006 -0.003
 C          0.010  0.002  0.003   -0.000  0.005 -0.002   -0.010 -0.081  0.030
 H         -0.033 -0.015  0.009   -0.004 -0.003  0.009    0.148  0.350 -0.585
 H         -0.025 -0.024 -0.014    0.013 -0.004 -0.002   -0.138  0.664  0.173
 C         -0.008 -0.001 -0.003    0.000 -0.002  0.002    0.002 -0.007  0.003
 H          0.017  0.009 -0.006   -0.001  0.003 -0.007    0.034  0.041 -0.063
 H          0.012  0.015  0.007   -0.009  0.003  0.000    0.002  0.081  0.026
 C          0.006 -0.003  0.003   -0.001 -0.000 -0.001    0.011  0.010  0.001
 O          0.001  0.003  0.001   -0.006  0.000  0.018    0.001  0.001 -0.000
 O          0.002  0.007 -0.004   -0.007 -0.006  0.054    0.000  0.002  0.002
 H         -0.008  0.011  0.033    0.092 -0.261 -0.409   -0.002 -0.007 -0.012
 O          0.000  0.004 -0.001    0.003 -0.003  0.009    0.006 -0.004  0.004
 O         -0.002 -0.001 -0.000    0.001  0.000  0.000   -0.008 -0.005 -0.001
 O         -0.000  0.003 -0.001    0.000 -0.000  0.000   -0.001 -0.002  0.001
 O          0.000 -0.000  0.001    0.003  0.007 -0.013    0.001  0.001 -0.000
 TransDip   0.038 -0.008  0.070    0.043  0.100 -0.495    0.085  0.091 -0.026

 Mode:                43                     44                     45
 Frequency:      1588.13                2593.95                3057.78
 Force Cnst:     15.3595                 4.2038                 5.8407
 Red. Mass:      10.3361                 1.0604                 1.0602
 IR Active:          YES                    YES                    YES
 IR Intens:     1285.069               1023.899                  7.340
 Raman Active:       YES                    YES                    YES
               X      Y      Z        X      Y      Z        X      Y      Z
 C          0.000 -0.001  0.001   -0.001  0.002  0.002   -0.004  0.004 -0.004
 H         -0.000 -0.000 -0.001   -0.005 -0.002 -0.010    0.010 -0.050 -0.039
 H         -0.001 -0.000  0.001    0.003 -0.000  0.002   -0.029 -0.027  0.070
 H         -0.001  0.002 -0.003    0.000 -0.000  0.002    0.063  0.038  0.011
 C         -0.002  0.005 -0.002    0.004 -0.024 -0.008   -0.001 -0.002  0.000
 C         -0.002  0.030 -0.013   -0.001 -0.000 -0.000   -0.001 -0.045  0.005
 H         -0.027 -0.022  0.079   -0.002 -0.001  0.001   -0.132  0.454  0.282
 H          0.023 -0.076 -0.043    0.003  0.001 -0.004    0.108  0.084 -0.354
 C         -0.056 -0.042 -0.005    0.000  0.000  0.000    0.001  0.047 -0.022
 H          0.188 -0.095  0.247    0.001 -0.001  0.000    0.134 -0.421 -0.242
 H          0.248 -0.178  0.034   -0.001 -0.001  0.002   -0.139 -0.124  0.494
 C          0.327  0.689 -0.147   -0.000  0.000 -0.000    0.002 -0.000  0.001
 O          0.000 -0.000  0.000   -0.000 -0.004  0.004    0.000  0.000 -0.000
 O          0.000 -0.001  0.001   -0.003 -0.038  0.038   -0.000  0.001 -0.000
 H          0.001 -0.003 -0.005   -0.020  0.887 -0.458    0.001 -0.004  0.002
 O          0.002 -0.007  0.003    0.001  0.002  0.002    0.002 -0.000  0.001
 O         -0.210 -0.187 -0.007    0.000  0.000  0.000   -0.000 -0.000 -0.000
 O         -0.019 -0.291  0.108    0.000 -0.000  0.000    0.000  0.000 -0.000
 O         -0.000 -0.000 -0.000    0.002 -0.000 -0.009   -0.000  0.000 -0.000
 TransDip   0.518  1.005 -0.198    0.151  0.516 -0.872    0.086 -0.007 -0.007

 Mode:                46                     47                     48
 Frequency:      3059.98                3066.37                3091.86
 Force Cnst:      5.8260                 5.7501                 6.2040
 Red. Mass:       1.0560                 1.0380                 1.1015
 IR Active:          YES                    YES                    YES
 IR Intens:       64.749                 44.131                  2.974
 Raman Active:       YES                    YES                    YES
               X      Y      Z        X      Y      Z        X      Y      Z
 C          0.010 -0.011  0.007   -0.029  0.031 -0.020    0.001 -0.001  0.000
 H         -0.031  0.151  0.119    0.089 -0.432 -0.340   -0.002  0.010  0.008
 H          0.071  0.064 -0.172   -0.201 -0.182  0.489    0.003  0.003 -0.008
 H         -0.149 -0.089 -0.025    0.428  0.257  0.072   -0.007 -0.004 -0.001
 C          0.000  0.002 -0.000    0.003 -0.001  0.001   -0.000 -0.000  0.000
 C         -0.001  0.045 -0.005    0.000  0.021 -0.004   -0.016  0.009  0.044
 H          0.133 -0.456 -0.281    0.061 -0.209 -0.128    0.061 -0.227 -0.127
 H         -0.106 -0.083  0.350   -0.055 -0.043  0.180    0.126  0.114 -0.409
 C          0.001  0.040 -0.021    0.001  0.007 -0.007    0.026 -0.032 -0.068
 H          0.115 -0.366 -0.213    0.016 -0.052 -0.030   -0.167  0.537  0.286
 H         -0.131 -0.119  0.467   -0.032 -0.030  0.114   -0.142 -0.153  0.532
 C          0.001  0.001 -0.000    0.000  0.001 -0.000    0.000 -0.001 -0.001
 O         -0.000 -0.000  0.000   -0.000  0.000  0.000   -0.000 -0.000 -0.000
 O          0.000 -0.001  0.000    0.000  0.000 -0.000    0.000  0.000 -0.000
 H         -0.001  0.002 -0.002   -0.001 -0.004  0.002   -0.001 -0.002  0.002
 O         -0.002  0.000 -0.001   -0.001  0.000 -0.000    0.000 -0.000  0.000
 O         -0.000 -0.000  0.000   -0.000 -0.000  0.000   -0.000  0.000  0.000
 O         -0.000 -0.000 -0.000   -0.000 -0.000  0.000    0.000 -0.000 -0.000
 O          0.000 -0.000  0.000    0.000  0.000 -0.000   -0.000  0.000 -0.000
 TransDip  -0.012  0.244 -0.081   -0.095  0.167 -0.091    0.027 -0.046 -0.014

 Mode:                49                     50                     51
 Frequency:      3115.48                3146.68                3156.21
 Force Cnst:      6.3254                 6.4368                 6.4811
 Red. Mass:       1.1061                 1.1034                 1.1043
 IR Active:          YES                    YES                    YES
 IR Intens:       83.151                 32.706                 33.808
 Raman Active:       YES                    YES                    YES
               X      Y      Z        X      Y      Z        X      Y      Z
 C          0.001 -0.001  0.001    0.027 -0.029 -0.085   -0.066 -0.067  0.002
 H         -0.002  0.009  0.007   -0.117  0.568  0.430   -0.068  0.264  0.214
 H          0.009  0.008 -0.022   -0.240 -0.237  0.596    0.136  0.127 -0.363
 H         -0.013 -0.008 -0.002    0.035  0.013 -0.009    0.719  0.415  0.126
 C         -0.000  0.000 -0.000    0.001 -0.001 -0.002   -0.001 -0.002  0.000
 C          0.027 -0.020 -0.074    0.000  0.000 -0.001    0.000  0.000  0.000
 H         -0.109  0.415  0.239    0.000 -0.001 -0.001    0.000 -0.003 -0.002
 H         -0.202 -0.178  0.640   -0.003 -0.003  0.012   -0.001 -0.000  0.002
 C          0.016 -0.020 -0.041    0.000 -0.001  0.000   -0.000 -0.000  0.000
 H         -0.097  0.325  0.175   -0.002  0.006  0.004   -0.001  0.002  0.002
 H         -0.091 -0.094  0.322    0.001  0.001 -0.004    0.001  0.001 -0.005
 C          0.000  0.000 -0.000   -0.000  0.000 -0.000   -0.000  0.000 -0.000
 O          0.000 -0.000  0.000    0.000  0.000  0.000    0.000  0.000 -0.000
 O         -0.000 -0.000  0.000   -0.000 -0.000  0.001    0.000  0.000  0.000
 H          0.001  0.002 -0.003    0.001  0.005 -0.005   -0.000  0.002 -0.001
 O         -0.000  0.000 -0.000   -0.000  0.000  0.000    0.000  0.000 -0.000
 O          0.000  0.000  0.000    0.000  0.000  0.000    0.000  0.000 -0.000
 O         -0.000 -0.000  0.000    0.000 -0.000  0.000   -0.000 -0.000  0.000
 O          0.000  0.000  0.000   -0.000 -0.000  0.000    0.000  0.000 -0.000
 TransDip   0.083 -0.097 -0.263    0.051 -0.051 -0.168   -0.128 -0.135  0.006

 STANDARD THERMODYNAMIC QUANTITIES AT   298.15 K  AND     1.00 ATM

   This Molecule has  0 Imaginary Frequencies
   Zero point vibrational energy:       86.462 kcal/mol

   Atom    1 Element C  Has Mass   12.00000
   Atom    2 Element H  Has Mass    1.00783
   Atom    3 Element H  Has Mass    1.00783
   Atom    4 Element H  Has Mass    1.00783
   Atom    5 Element C  Has Mass   12.00000
   Atom    6 Element C  Has Mass   12.00000
   Atom    7 Element H  Has Mass    1.00783
   Atom    8 Element H  Has Mass    1.00783
   Atom    9 Element C  Has Mass   12.00000
   Atom   10 Element H  Has Mass    1.00783
   Atom   11 Element H  Has Mass    1.00783
   Atom   12 Element C  Has Mass   12.00000
   Atom   13 Element O  Has Mass   15.99491
   Atom   14 Element O  Has Mass   15.99491
   Atom   15 Element H  Has Mass    1.00783
   Atom   16 Element O  Has Mass   15.99491
   Atom   17 Element O  Has Mass   15.99491
   Atom   18 Element O  Has Mass   15.99491
   Atom   19 Element O  Has Mass   15.99491
   Molecular Mass:   164.032100 amu
   Principal axes and moments of inertia in amu*Bohr^2:
                             1           2           3
    Eigenvalues --      773.30724  3597.78754  4013.12693
          X               0.95413    -0.01139    -0.29918
          Y               0.17124     0.84046     0.51411
          Z               0.24559    -0.54176     0.80385
   Rotational Symmetry Number is   1
   The Molecule is an Asymmetric Top
   Translational Enthalpy:        0.889 kcal/mol
   Rotational Enthalpy:           0.889 kcal/mol
   Vibrational Enthalpy:         91.860 kcal/mol
   gas constant (RT):             0.592 kcal/mol
   Translational Entropy:        41.193  cal/mol.K
   Rotational Entropy:           30.791  cal/mol.K
   Vibrational Entropy:          35.942  cal/mol.K

   Total Enthalpy:               94.230 kcal/mol
   Total Entropy:               107.926  cal/mol.K
Archival summary:
1\1\c6-83\FREQ\ProcedureUnspecified\BasisUnspecified\658(2-,1)\leeping\SatMar2118:25:442020SatMar2118:25:442020\0\\#,FREQ,ProcedureUnspecified,BasisUnspecified,\\-2,1\O\C,1,1.41986\O,2,1.37531,1,112.005\H,3,1.03999,2,97.0386,1,107.843,0\C,1,1.42758,2,115.598,3,-60.3375,0\H,5,1.09434,1,109.651,2,-59.6662,0\H,5,1.09528,1,110.03,2,58.817,0\O,2,1.43217,1,110.256,3,119.736,0\O,8,1.45082,2,109.213,1,-103.64,0\C,5,1.51568,1,107.701,2,179.549,0\H,10,1.09606,5,109.861,1,57.6559,0\H,10,1.09631,5,109.939,1,-59.0293,0\C,2,1.51635,1,105.756,3,-123.648,0\H,13,1.09161,2,109.222,1,177.871,0\H,13,1.09285,2,109.892,1,57.9165,0\H,13,1.09304,2,110.059,1,-62.0454,0\C,10,1.53636,5,114.777,1,179.326,0\O,17,1.25749,10,118.371,5,1.57148,0\O,17,1.2599,10,115.981,5,-178.519,0\\\@

 Total job time:  56552.00s(wall), 686439.53s(cpu) 
 Sat Mar 21 18:25:44 2020

        *************************************************************
        *                                                           *
        *  Thank you very much for using Q-Chem.  Have a nice day.  *
        *                                                           *
        *************************************************************


