
Running Job 1 of 1 freqs.in
qchem freqs.in_771.0 ./freqs.d/ 1
/home/leeping/opt/qchem/5.0.2-openmp/exe/qcprog.exe_s freqs.in_771.0 ./freqs.d/
Check license passed

                  Welcome to Q-Chem
     A Quantum Leap Into The Future Of Chemistry


 Q-Chem 5.0, Q-Chem, Inc., Pleasanton, CA (2017)

 Yihan Shao,  Zhengting Gan,  E. Epifanovsky,  A. T. B. Gilbert,  M. Wormit,  
 J. Kussmann,  A. W. Lange,  A. Behn,  Jia Deng,  Xintian Feng,  D. Ghosh,  
 M. Goldey,  P. R. Horn,  L. D. Jacobson,  I. Kaliman,  T. Kus,  A. Landau,  
 Jie Liu,  E. I. Proynov,  R. M. Richard,  R. P. Steele,  E. J. Sundstrom,  
 H. L. Woodcock III,  P. M. Zimmerman,  D. Zuev,  B. Albrecht,  E. Alguire,  
 S. A. Baeppler,  D. Barton,  Z. Benda,  Y. A. Bernard,  E. J. Berquist,  
 K. B. Bravaya,  H. Burton,  D. Casanova,  Chun-Min Chang,  Yunqing Chen,  
 A. Chien,  K. D. Closser,  M. P. Coons,  S. Dasgupta,  A. L. Dempwolff,  
 M. Diedenhofen,  Hainam Do,  R. G. Edgar,  Po-Tung Fang,  S. Fatehi,  
 Qingguo Feng,  J. Fosso-Tande,  Qinghui Ge,  A. Ghysels,  G. Gidofalvi,  
 J. Gomes,  J. Gonthier,  A. Gunina,  M. W. D. Hanson-Heine,  
 P. H. P. Harbach,  A. W. Hauser,  J. E. Herr,  E. G. Hohenstein,  
 Z. C. Holden,  Kerwin Hui,  T.-C. Jagau,  Hyunjun Ji,  B. Kaduk,  
 K. Khistyaev,  Jaehoon Kim,  P. Klunzinger,  K. Koh,  D. Kosenkov,  
 L. Koulias,  T. Kowalczyk,  C. M. Krauter,  A. Kunitsa,  Ka Un Lao,  
 A. Laurent,  K. V. Lawler,  Joonho Lee,  D. Lefrancois,  S. Lehtola,  
 D. S. Levine,  Yi-Pei Li,  You-Sheng Lin,  Fenglai Liu,  E. Livshits,  
 A. Luenser,  P. Manohar,  E. Mansoor,  S. F. Manzer,  Shan-Ping Mao,  
 Yuezhi Mao,  N. Mardirossian,  A. V. Marenich,  T. Markovich,  
 L. A. Martinez-Martinez,  S. A. Maurer,  N. J. Mayhall,  S. C. McKenzie,  
 J.-M. Mewes,  A. F. Morrison,  J. W. Mullinax,  K. Nanda,  
 T. S. Nguyen-Beck,  R. Olivares-Amaya,  J. A. Parkhill,  T. M. Perrine,  
 F. Plasser,  S. Prager,  A. Prociuk,  E. Ramos,  D. R. Rehn,  F. Rob,  
 M. Schneider,  N. Sergueev,  S. M. Sharada,  S. Sharma,  D. W. Small,  
 T. Stauch,  T. Stein,  Yu-Chuan Su,  A. J. W. Thom,  A. Tkatchenko,  
 T. Tsuchimochi,  L. Vogt,  O. Vydrov,  M. A. Watson,  J. Wenzel,  
 M. de Wergifosse,  T. A. Wesolowski,  A. White,  J. Witte,  A. Yamada,  
 Jun Yang,  K. Yao,  S. Yeganeh,  S. R. Yost,  Zhi-Qiang You,  A. Zech,  
 Igor Ying Zhang,  Xing Zhang,  Yan Zhao,  Ying Zhu,  B. R. Brooks,  
 G. K. L. Chan,  C. J. Cramer,  M. S. Gordon,  W. J. Hehre,  A. Klamt,  
 M. W. Schmidt,  C. D. Sherrill,  D. G. Truhlar,  A. Aspuru-Guzik,  R. Baer,  
 A. T. Bell,  N. A. Besley,  Jeng-Da Chai,  R. A. DiStasio Jr.,  A. Dreuw,  
 B. D. Dunietz,  T. R. Furlani,  Chao-Ping Hsu,  Yousung Jung,  Jing Kong,  
 D. S. Lambrecht,  WanZhen Liang,  C. Ochsenfeld,  V. A. Rassolov,  
 L. V. Slipchenko,  J. E. Subotnik,  T. Van Voorhis,  J. M. Herbert,  
 A. I. Krylov,  P. M. W. Gill,  M. Head-Gordon

 Contributors to earlier versions of Q-Chem not listed above: 
 R. D. Adamson,  B. Austin,  J. Baker,  G. J. O. Beran,  K. Brandhorst,  
 S. T. Brown,  E. F. C. Byrd,  A. K. Chakraborty,  C.-L. Cheng,  
 Siu Hung Chien,  D. M. Chipman,  D. L. Crittenden,  H. Dachsel,  
 R. J. Doerksen,  A. D. Dutoi,  L. Fusti-Molnar,  W. A. Goddard III,  
 A. Golubeva-Zadorozhnaya,  S. R. Gwaltney,  G. Hawkins,  A. Heyden,  
 S. Hirata,  G. Kedziora,  F. J. Keil,  C. Kelley,  Jihan Kim,  R. A. King,  
 R. Z. Khaliullin,  P. P. Korambath,  W. Kurlancheek,  A. M. Lee,  M. S. Lee,  
 S. V. Levchenko,  Ching Yeh Lin,  D. Liotard,  R. C. Lochan,  I. Lotan,  
 P. E. Maslen,  N. Nair,  D. P. O'Neill,  D. Neuhauser,  E. Neuscamman,  
 C. M. Oana,  R. Olson,  B. Peters,  R. Peverati,  P. A. Pieniazek,  
 Y. M. Rhee,  J. Ritchie,  M. A. Rohrdanz,  E. Rosta,  N. J. Russ,  
 H. F. Schaefer III,  N. E. Schultz,  N. Shenvi,  A. C. Simmonett,  A. Sodt,  
 D. Stuck,  K. S. Thanthiriwatte,  V. Vanovschi,  Tao Wang,  A. Warshel,  
 C. F. Williams,  Q. Wu,  X. Xu,  W. Zhang

 Please cite Q-Chem as follows:
 Y. Shao et al., Mol. Phys. 113, 184-215 (2015)
 DOI: 10.1080/00268976.2014.952696

 Q-Chem 5.0.2 for Intel X86 EM64T Linux

 Parts of Q-Chem use Armadillo 5.200.1 (Boston Tea Smuggler).
 http://arma.sourceforge.net/

 Q-Chem begins on Fri Mar 20 12:22:13 2020  

Host: 
0

     Scratch files written to ./freqs.d//
 Dec517 15110_ 26548  26544 5633   
Processing $rem in /home/leeping/opt/qchem/5.0.2-openmp/config/preferences.
 MEM_STATIC 2000
 MEM_TOTAL  8000
 SYMMETRY   OFF
 SYM_IGNORE TRUE 
Symmetry turned off for PCM/SM12/SMD calculation

Checking the input file for inconsistencies... 	...done.

--------------------------------------------------------------
User input:
--------------------------------------------------------------
$molecule
-3 1
C        0.1415324700    0.7816846136   -1.6865120263
C        0.4898078303    0.9955592315   -3.1693852003
O        0.2726716143    2.1526937122   -3.6254330378
O        0.9473776637    0.0304573499   -3.8329443863
C        0.5448558620   -0.5693422914   -1.1053302314
H       -0.9409415034    0.9339613606   -1.6014222488
H        0.6039505764    1.5992773770   -1.1235525966
C        0.2301744986   -0.7988496839    0.3777139377
H        1.6230763654   -0.7202299353   -1.2257527093
H        0.0475978157   -1.3722009797   -1.6615896203
C       -1.2634181188   -0.6699236547    0.7012913302
H       -1.6740633433    0.2984587150    0.4003083751
H       -1.4053923735   -0.7903110144    1.7791425288
H       -1.8176742892   -1.4617046186    0.1858198184
O        0.7682984315   -1.9284370036    0.8656253454
O        0.9142892660    0.3741130715    1.0699556270
O        1.2476118799   -0.1157124467    2.3736098489
H        1.2236713191   -1.1052083421    2.1012789825
O       -0.8513002830    0.5245318498    4.2627800277
H       -0.1742334300    0.2862405062    3.6066697127
O       -1.1420788326    1.9243554631    3.9122038621
$end

$rem
jobtype               freq
method                wb97x-v
basis                 def2-tzvpd
symmetry              off
sym_ignore            true
incdft                false
incfock               0
!scf_algorithm        diis_gdm
scf_convergence       8
thresh                14
unrestricted          true
!purecart             112
max_scf_cycles        1000
geom_opt_max_cycles   500
geom_opt_dmax         100
geom_opt_tol_gradient 10
solvent_method        pcm
ideriv                1
rpath_tol_displacement 1000
rpath_max_cycles      100
rpath_direction       1
scf_guess             read
$end

$pcm
theory              cosmo
method              iswig
Radii               bondi
vdwScale            1.20
hpoints             110
heavypoints         110
$end

$solvent
dielectric 78.400000
$end

--------------------------------------------------------------
 ----------------------------------------------------------------
             Standard Nuclear Orientation (Angstroms)
    I     Atom           X                Y                Z
 ----------------------------------------------------------------
    1      C       0.1415324700     0.7816846136    -1.6865120263
    2      C       0.4898078303     0.9955592315    -3.1693852003
    3      O       0.2726716143     2.1526937122    -3.6254330378
    4      O       0.9473776637     0.0304573499    -3.8329443863
    5      C       0.5448558620    -0.5693422914    -1.1053302314
    6      H      -0.9409415034     0.9339613606    -1.6014222488
    7      H       0.6039505764     1.5992773770    -1.1235525966
    8      C       0.2301744986    -0.7988496839     0.3777139377
    9      H       1.6230763654    -0.7202299353    -1.2257527093
   10      H       0.0475978157    -1.3722009797    -1.6615896203
   11      C      -1.2634181188    -0.6699236547     0.7012913302
   12      H      -1.6740633433     0.2984587150     0.4003083751
   13      H      -1.4053923735    -0.7903110144     1.7791425288
   14      H      -1.8176742892    -1.4617046186     0.1858198184
   15      O       0.7682984315    -1.9284370036     0.8656253454
   16      O       0.9142892660     0.3741130715     1.0699556270
   17      O       1.2476118799    -0.1157124467     2.3736098489
   18      H       1.2236713191    -1.1052083421     2.1012789825
   19      O      -0.8513002830     0.5245318498     4.2627800277
   20      H      -0.1742334300     0.2862405062     3.6066697127
   21      O      -1.1420788326     1.9243554631     3.9122038621
 ----------------------------------------------------------------
 Nuclear Repulsion Energy =   720.3896148731 hartrees
 There are       49 alpha and       49 beta electrons
 Requested basis set is def2-TZVPD
 There are 208 shells and 546 basis functions

 Total QAlloc Memory Limit   8000 MB
 Mega-Array Size      1956 MB
 MEM_STATIC part      2000 MB
 Discretize the solute cavity surface with Lebedev spheres
	Using 110 Lebedev grid points for each H atom
	Using 110 Lebedev grid points for other atoms
	Atomic van der Waals radii will be scaled by 1.20
 Remove points where switching function is < 1.0e-08
 Keep 1253 surface tesserae and discard 1057 interior tesserae
 Molecular Surface Area = 231.029 Angst**2
 A cutoff of  1.0D-14 yielded  18795 shell pairs
 There are    128111 function pairs (    162281 Cartesian)
 
 -------------------------------------------------------
 OpenMP Integral Computing Module                       
 Release: version 1.0, May 2013, Q-Chem Inc. Pittsburgh 
 -------------------------------------------------------
 Integral Job Info:
 Integral job number is                      11
 Integral operator is                         1
 short-range coefficients              16700000
 long-range coefficients              100000000
 Omega coefficients                         300
 if combine SR and LR in K                    1
 Integral screening is                        0
 Integral computing path is                   2
 max size of driver memory is            800000
 size of driver memory is                776718
 size of scratch memory is              4473992
 max col of scratch BK array              10000
 max len of scratch array in speh3          662
 max len of scratch index in speh4           32
 max int batch size is                      520
 min int batch size is                       52
 fixed nKL is                                52
 max L of basis functions is                  3
 order of int derivative is                   0
 number of shells is                        208
 number of basis is                         618
 number of cartesian basis is               618
 number of contracted shell pairs         18795
 number of primitive shell pairs          37158
 maxK2 (contraction) of shell pair           36
 max number of K2 of shell pair               1
 max number of CS2 of shell pair           3202
 max number of PS2 of shell pair           4176
 mem total for path MDJ                  851884
 -------------------------------------------------------
 Smallest overlap matrix eigenvalue = 2.42E-06
 Guess MOs from SCF MO coefficient file
 Reading MOs from coefficient file
 Reading MOs from coefficient file
 Long-range K will be added via erf
 Coulomb attenuation parameter = 0.3 bohr**(-1)
 An unrestricted hybrid HF-DFT SCF calculation will be
 performed using Pulay DIIS extrapolation
 Polarizable Continuum solvation model will be applied
 Exchange:     0.1670 Hartree-Fock + 1.0000 wB97X-V + LR-HF
 Correlation:  1.0000 wB97X-V
 Using SG-2 standard quadrature grid
 Nonlocal Correlation:  VV10 with C = 0.0100 and b = 6.00
 Grid used for NLC:  SG-1 standard quadrature
 SCF converges when DIIS error is below 1.0E-08
Using Q-Chem read-in guess as SCF_GUESS READ specified.

 using 16 threads for integral computing
 -------------------------------------------------------
 OpenMP Integral computing Module                
 Release: version 1.0, May 2013, Q-Chem Inc. Pittsburgh 
 -------------------------------------------------------
 using 16 threads for integral computing
 -------------------------------------------------------
 OpenMP Integral computing Module                
 Release: version 1.0, May 2013, Q-Chem Inc. Pittsburgh 
 -------------------------------------------------------
 -------------------------------------------------------
 OpenMP BLAS3 based DFT computing Module                
 Release: version 1.0, May 2013, Q-Chem Inc. Pittsburgh 
 -------------------------------------------------------
 -------------------------------------------------------
 OpenMP BLAS3 based DFT computing Module                
 Release: version 1.0, May 2013, Q-Chem Inc. Pittsburgh 
 -------------------------------------------------------
 -------------------------------------------------------
 OpenMP BLAS3 based DFT computing Module                
 Release: version 1.0, May 2013, Q-Chem Inc. Pittsburgh 
 -------------------------------------------------------
 ---------------------------------------
  Cycle       Energy         DIIS Error
 ---------------------------------------
    1    -722.2099355805      3.12E-04
    2    -722.7975216563      3.66E-04
    3    -722.8044896809      1.65E-04
    4    -722.8056211075      1.19E-04
    5    -722.8062656568      9.20E-05
    6    -722.8066551100      7.18E-05
    7    -722.8069491383      5.17E-05
    8    -722.8070767517      3.99E-05
    9    -722.8071527811      3.08E-05
   10    -722.8071963591      2.40E-05
   11    -722.8072297769      1.71E-05
   12    -722.8072431783      1.34E-05
   13    -722.8072515690      1.03E-05
   14    -722.8072557289      8.46E-06
   15    -722.8072583544      7.00E-06
   16    -722.8072603875      5.63E-06
   17    -722.8072640856      6.98E-09 Convergence criterion met
 ---------------------------------------

************** Final PCM Free Energy Summary **************
 G_electrostatic  =      -0.59732959 hartree =    -374.82997694 kcal/mol
 G_cavitation     =       0.00000000 hartree =       0.00000000 kcal/mol
 G_dispersion     =       0.00000000 hartree =       0.00000000 kcal/mol
 G_repulsion      =       0.00000000 hartree =       0.00000000 kcal/mol
 --------------------------------------------------
 Non-electrostatic Free Energy =       0.00000000 hartree =       0.00000000 kcal/mol
 Total                         =      -0.59732959 hartree =    -374.82997694 kcal/mol
 --------------------------------------------------
 SCF Energy (H0 + V/2)                       =    -722.80726409 
 Solute Internal Energy (H0)                 =    -722.20993449 
 Total Free Energy (H0 + V/2 + non-elec)     =    -722.80726409 hartree
                                             = -453568.40392132 kcal/mol
***********************************************************

 <S^2> = 0.0000
 SCF time:  CPU 7521.93 s  wall 559.96 s
 SCF   energy in the final basis set = -722.80726409
 Total energy in the final basis set = -722.80726409
 
 --------------------------------------------------------------
 
                    Orbital Energies (a.u.)
 --------------------------------------------------------------
 
 Alpha MOs
 -- Occupied --
-19.226 -19.223 -19.187 -19.138 -19.135 -19.129 -19.116 -10.338
-10.329 -10.243 -10.237 -10.231  -1.219  -1.140  -1.121  -1.061
 -1.045  -0.968  -0.881  -0.868  -0.823  -0.756  -0.656  -0.601
 -0.598  -0.562  -0.555  -0.548  -0.527  -0.515  -0.507  -0.501
 -0.493  -0.463  -0.457  -0.448  -0.445  -0.435  -0.426  -0.416
 -0.401  -0.345  -0.344  -0.336  -0.330  -0.325  -0.300  -0.291
 -0.265
 -- Virtual --
  0.062   0.070   0.078   0.087   0.088   0.098   0.104   0.107
  0.120   0.125   0.126   0.136   0.140   0.147   0.149   0.157
  0.162   0.166   0.169   0.178   0.181   0.186   0.190   0.190
  0.197   0.206   0.213   0.222   0.225   0.230   0.235   0.246
  0.248   0.251   0.254   0.266   0.267   0.280   0.282   0.288
  0.294   0.296   0.299   0.309   0.317   0.320   0.323   0.327
  0.331   0.338   0.347   0.351   0.355   0.366   0.369   0.372
  0.375   0.381   0.385   0.394   0.396   0.400   0.406   0.408
  0.419   0.423   0.425   0.431   0.432   0.438   0.444   0.452
  0.455   0.460   0.465   0.469   0.481   0.482   0.490   0.492
  0.502   0.504   0.511   0.516   0.520   0.523   0.529   0.535
  0.538   0.541   0.546   0.553   0.554   0.563   0.567   0.571
  0.577   0.581   0.584   0.593   0.600   0.602   0.605   0.613
  0.614   0.621   0.623   0.633   0.638   0.638   0.644   0.650
  0.657   0.666   0.671   0.673   0.682   0.684   0.696   0.707
  0.714   0.722   0.723   0.728   0.737   0.748   0.754   0.759
  0.764   0.767   0.777   0.779   0.785   0.789   0.804   0.811
  0.813   0.816   0.819   0.827   0.829   0.835   0.845   0.846
  0.850   0.857   0.861   0.861   0.871   0.873   0.886   0.893
  0.900   0.909   0.910   0.919   0.937   0.944   0.947   0.953
  0.962   0.979   0.983   0.988   0.997   1.011   1.022   1.023
  1.024   1.043   1.057   1.060   1.071   1.073   1.085   1.097
  1.100   1.118   1.128   1.134   1.156   1.170   1.178   1.180
  1.190   1.204   1.207   1.215   1.229   1.235   1.241   1.259
  1.261   1.289   1.297   1.303   1.327   1.344   1.346   1.360
  1.380   1.402   1.416   1.427   1.446   1.457   1.458   1.472
  1.486   1.500   1.511   1.533   1.554   1.561   1.586   1.606
  1.620   1.644   1.676   1.678   1.690   1.715   1.725   1.765
  1.779   1.801   1.849   1.858   1.865   1.876   1.903   1.931
  1.936   1.941   1.960   1.966   1.973   1.977   1.993   1.998
  2.002   2.019   2.028   2.040   2.046   2.057   2.058   2.064
  2.073   2.110   2.120   2.130   2.147   2.179   2.198   2.216
  2.223   2.237   2.266   2.270   2.274   2.281   2.293   2.314
  2.320   2.325   2.340   2.367   2.381   2.385   2.400   2.418
  2.432   2.455   2.471   2.492   2.500   2.518   2.533   2.557
  2.561   2.575   2.585   2.615   2.636   2.656   2.678   2.689
  2.701   2.724   2.739   2.754   2.767   2.793   2.804   2.843
  2.865   2.885   2.902   2.916   2.918   2.941   2.966   2.979
  2.986   3.014   3.019   3.030   3.031   3.045   3.054   3.057
  3.071   3.100   3.115   3.125   3.150   3.159   3.168   3.205
  3.225   3.228   3.258   3.271   3.294   3.312   3.325   3.333
  3.372   3.389   3.397   3.408   3.417   3.453   3.480   3.484
  3.497   3.523   3.530   3.547   3.558   3.566   3.571   3.578
  3.595   3.622   3.628   3.633   3.656   3.670   3.680   3.688
  3.693   3.723   3.729   3.745   3.753   3.780   3.791   3.799
  3.810   3.828   3.842   3.847   3.871   3.908   3.941   3.955
  3.991   4.044   4.077   4.087   4.124   4.147   4.156   4.195
  4.255   4.274   4.296   4.310   4.335   4.365   4.445   4.473
  4.510   4.604   4.664   4.683   4.706   4.727   4.799   4.828
  4.833   4.851   4.859   4.922   4.950   4.952   4.990   5.036
  5.061   5.095   5.121   5.133   5.187   5.201   5.241   5.261
  5.303   5.327   5.339   5.364   5.367   5.374   5.381   5.389
  5.413   5.426   5.504   5.533   5.540   5.572   5.623   5.629
  5.638   5.654   5.719   5.720   5.734   5.780   5.787   5.831
  5.993   6.000   6.018   6.033   6.053   6.117   6.207   6.241
  6.246   6.316   6.336   6.342   6.367   6.417   6.555   6.600
  6.613   6.621   6.630   6.638   6.643   6.668   6.698   6.706
  6.715   6.732   6.758   6.775   6.810   6.855   6.922   6.962
  6.975   6.998   7.034   7.055   7.077   7.094   7.192   7.206
  7.215   7.254   7.261   7.310   7.367   7.400   7.413   7.423
  7.429   7.541   7.631   8.158   8.351  22.769  22.915  22.976
 23.145  23.741  43.899  44.257  44.287  44.379  44.431  44.616
 44.745
 
 Beta MOs
 -- Occupied --
-19.226 -19.223 -19.187 -19.138 -19.135 -19.129 -19.116 -10.338
-10.329 -10.243 -10.237 -10.231  -1.219  -1.140  -1.121  -1.061
 -1.045  -0.968  -0.881  -0.868  -0.823  -0.756  -0.656  -0.601
 -0.598  -0.562  -0.555  -0.548  -0.527  -0.515  -0.507  -0.501
 -0.493  -0.463  -0.457  -0.448  -0.445  -0.435  -0.426  -0.416
 -0.401  -0.345  -0.344  -0.336  -0.330  -0.325  -0.300  -0.291
 -0.265
 -- Virtual --
  0.062   0.070   0.078   0.087   0.088   0.098   0.104   0.107
  0.120   0.125   0.126   0.136   0.140   0.147   0.149   0.157
  0.162   0.166   0.169   0.178   0.181   0.186   0.190   0.190
  0.197   0.206   0.213   0.222   0.225   0.230   0.235   0.246
  0.248   0.251   0.254   0.266   0.267   0.280   0.282   0.288
  0.294   0.296   0.299   0.309   0.317   0.320   0.323   0.327
  0.331   0.338   0.347   0.351   0.355   0.366   0.369   0.372
  0.375   0.381   0.385   0.394   0.396   0.400   0.406   0.408
  0.419   0.423   0.425   0.431   0.432   0.438   0.444   0.452
  0.455   0.460   0.465   0.469   0.481   0.482   0.490   0.492
  0.502   0.504   0.511   0.516   0.520   0.523   0.529   0.535
  0.538   0.541   0.546   0.553   0.554   0.563   0.567   0.571
  0.577   0.581   0.584   0.593   0.600   0.602   0.605   0.613
  0.614   0.621   0.623   0.633   0.638   0.638   0.644   0.650
  0.657   0.666   0.671   0.673   0.682   0.684   0.696   0.707
  0.714   0.722   0.723   0.728   0.737   0.748   0.754   0.759
  0.764   0.767   0.777   0.779   0.785   0.789   0.804   0.811
  0.813   0.816   0.819   0.827   0.829   0.835   0.845   0.846
  0.850   0.857   0.861   0.861   0.871   0.873   0.886   0.893
  0.900   0.909   0.910   0.919   0.937   0.944   0.947   0.953
  0.962   0.979   0.983   0.988   0.997   1.011   1.022   1.023
  1.024   1.043   1.057   1.060   1.071   1.073   1.085   1.097
  1.100   1.118   1.128   1.134   1.156   1.170   1.178   1.180
  1.190   1.204   1.207   1.215   1.229   1.235   1.241   1.259
  1.261   1.289   1.297   1.303   1.327   1.344   1.346   1.360
  1.380   1.402   1.416   1.427   1.446   1.457   1.458   1.472
  1.486   1.500   1.511   1.533   1.554   1.561   1.586   1.606
  1.620   1.644   1.676   1.678   1.690   1.715   1.725   1.765
  1.779   1.801   1.849   1.858   1.865   1.876   1.903   1.931
  1.936   1.941   1.960   1.966   1.973   1.977   1.993   1.998
  2.002   2.019   2.028   2.040   2.046   2.057   2.058   2.064
  2.073   2.110   2.120   2.130   2.147   2.179   2.198   2.216
  2.223   2.237   2.266   2.270   2.274   2.281   2.293   2.314
  2.320   2.325   2.340   2.367   2.381   2.385   2.400   2.418
  2.432   2.455   2.471   2.492   2.500   2.518   2.533   2.557
  2.561   2.575   2.585   2.615   2.636   2.656   2.678   2.689
  2.701   2.724   2.739   2.754   2.767   2.793   2.804   2.843
  2.865   2.885   2.902   2.916   2.918   2.941   2.966   2.979
  2.986   3.014   3.019   3.030   3.031   3.045   3.054   3.057
  3.071   3.100   3.115   3.125   3.150   3.159   3.168   3.205
  3.225   3.228   3.258   3.271   3.294   3.312   3.325   3.333
  3.372   3.389   3.397   3.408   3.417   3.453   3.480   3.484
  3.497   3.523   3.530   3.547   3.558   3.566   3.571   3.578
  3.595   3.622   3.628   3.633   3.656   3.670   3.680   3.688
  3.693   3.723   3.729   3.745   3.753   3.780   3.791   3.799
  3.810   3.828   3.842   3.847   3.871   3.908   3.941   3.955
  3.991   4.044   4.077   4.087   4.124   4.147   4.156   4.195
  4.255   4.274   4.296   4.310   4.335   4.365   4.445   4.473
  4.510   4.604   4.664   4.683   4.706   4.727   4.799   4.828
  4.833   4.851   4.859   4.922   4.950   4.952   4.990   5.036
  5.061   5.095   5.121   5.133   5.187   5.201   5.241   5.261
  5.303   5.327   5.339   5.364   5.367   5.374   5.381   5.389
  5.413   5.426   5.504   5.533   5.540   5.572   5.623   5.629
  5.638   5.654   5.719   5.720   5.734   5.780   5.787   5.831
  5.993   6.000   6.018   6.033   6.053   6.117   6.207   6.241
  6.246   6.316   6.336   6.342   6.367   6.417   6.555   6.600
  6.613   6.621   6.630   6.638   6.643   6.668   6.698   6.706
  6.715   6.732   6.758   6.775   6.810   6.855   6.922   6.962
  6.975   6.998   7.034   7.055   7.077   7.094   7.192   7.206
  7.215   7.254   7.261   7.310   7.367   7.400   7.413   7.423
  7.429   7.541   7.631   8.158   8.351  22.769  22.915  22.976
 23.145  23.741  43.899  44.257  44.287  44.379  44.431  44.616
 44.745
 --------------------------------------------------------------
 
          Ground-State Mulliken Net Atomic Charges

     Atom                 Charge (a.u.)    Spin (a.u.)
  --------------------------------------------------------
      1 C                    -0.188059      -0.000000
      2 C                    -0.019058       0.000000
      3 O                    -0.716984       0.000000
      4 O                    -0.693122       0.000000
      5 C                    -0.232358      -0.000000
      6 H                     0.201120       0.000000
      7 H                     0.197117       0.000000
      8 C                     1.065626       0.000000
      9 H                     0.133041      -0.000000
     10 H                     0.218006       0.000000
     11 C                    -1.273058      -0.000000
     12 H                     0.243328       0.000000
     13 H                     0.200232      -0.000000
     14 H                     0.261461       0.000000
     15 O                    -0.973492      -0.000000
     16 O                    -0.255100      -0.000000
     17 O                    -0.558434       0.000000
     18 H                     0.385175       0.000000
     19 O                    -0.425776       0.000000
     20 H                     0.303831      -0.000000
     21 O                    -0.873494       0.000000
  --------------------------------------------------------
  Sum of atomic charges =    -3.000000
  Sum of spin   charges =     0.000000

 -----------------------------------------------------------------
                    Cartesian Multipole Moments
 -----------------------------------------------------------------
    Charge (ESU x 10^10)
               -14.4096
    Dipole Moment (Debye)
         X      -1.6725      Y     -10.0585      Z      -7.8397
       Tot      12.8620
    Quadrupole Moments (Debye-Ang)
        XX     -95.6003     XY      12.8141     YY    -125.9379
        XZ      34.2643     YZ     -10.3172     ZZ    -258.8062
    Octopole Moments (Debye-Ang^2)
       XXX     -30.0620    XXY     -27.1340    XYY      -6.1836
       YYY     -93.0897    XXZ     -38.9903    XYZ      43.0927
       YYZ     -27.3451    XZZ      30.4716    YZZ    -248.3635
       ZZZ    -108.7192
    Hexadecapole Moments (Debye-Ang^3)
      XXXX    -495.5357   XXXY      76.7969   XXYY    -236.4243
      XYYY     107.1398   YYYY    -983.8173   XXXZ     281.0536
      XXYZ     -33.3363   XYYZ     164.3988   YYYZ      87.3356
      XXZZ    -843.0846   XYZZ     151.6009   YYZZ   -1196.2451
      XZZZ     884.2499   YZZZ    -193.2656   ZZZZ   -6435.8267
 -----------------------------------------------------------------
 Calculating analytic gradient of the SCF energy
 Gradient of SCF Energy
            1           2           3           4           5           6
    1  -0.0520961   0.0000395   0.0082754  -0.0267058   0.1904138   0.0600293
    2   0.1016941  -0.0106411  -0.0553556   0.0530136  -0.1760279  -0.0066031
    3   0.0916019  -0.0569707   0.0362369   0.0444175  -0.0873258   0.0019750
            7           8           9          10          11          12
    1  -0.0437642  -0.0972340  -0.0834392   0.0375082  -0.1209922   0.0263155
    2  -0.0589689   0.1161195  -0.0020318   0.0579450   0.0351014  -0.1116991
    3  -0.0306017  -0.0233095  -0.0007630   0.0290970   0.0352673   0.0489850
           13          14          15          16          17          18
    1   0.0183463   0.0454305   0.0041967   0.0033350   0.0364409   0.0004899
    2   0.0094052   0.0787638  -0.0170300   0.0042176  -0.0665019   0.0553725
    3  -0.1274483   0.0516670  -0.0107336  -0.0632103   0.0427345   0.0160371
           19          20          21
    1   0.0882408  -0.0750956  -0.0197347
    2  -0.1135061   0.0300713   0.0766614
    3  -0.0511318   0.0781045  -0.0246291
 Max gradient component =       1.904E-01
 RMS gradient           =       6.596E-02
 Computing fast CPCM-ISWIG gradient
 Updating gradient with PCM contributions...
 -- total gradient after adding PCM contribution --
---------------------------------------------------
  Atom         X              Y              Z     
---------------------------------------------------
   1       0.000004       0.000005      -0.000005
   2      -0.000002       0.000003       0.000003
   3      -0.000000       0.000000       0.000002
   4      -0.000002      -0.000001      -0.000001
   5      -0.000003      -0.000010      -0.000004
   6      -0.000002      -0.000001       0.000001
   7      -0.000002       0.000001       0.000000
   8       0.000009       0.000026       0.000016
   9       0.000000       0.000001       0.000001
  10      -0.000001       0.000002      -0.000003
  11       0.000001       0.000003      -0.000001
  12       0.000001       0.000001       0.000003
  13      -0.000001      -0.000009       0.000001
  14      -0.000003       0.000001      -0.000005
  15      -0.000001      -0.000005       0.000002
  16      -0.000006      -0.000019      -0.000004
  17      -0.000003      -0.000017      -0.000025
  18      -0.000005       0.000015      -0.000006
  19       0.000023      -0.000031       0.000027
  20       0.000010       0.000006      -0.000000
  21      -0.000015       0.000027      -0.000002
---------------------------------------------------
 Number of fixed atoms: 0
 Gradient time:  CPU 1377.43 s  wall 102.08 s
 ######################################################
 ######################################################
 # Starting finite difference calculation for IDERIV  #
 Finite diff step size:  1.88973e-03 a.u.
 ----------------------------------------------------------------
             Standard Nuclear Orientation (Angstroms)
    I     Atom           X                Y                Z
 ----------------------------------------------------------------
    1      C       0.1425324700     0.7816846136    -1.6865120263
    2      C       0.4898078303     0.9955592315    -3.1693852003
    3      O       0.2726716143     2.1526937122    -3.6254330378
    4      O       0.9473776637     0.0304573499    -3.8329443863
    5      C       0.5448558620    -0.5693422914    -1.1053302314
    6      H      -0.9409415034     0.9339613606    -1.6014222488
    7      H       0.6039505764     1.5992773770    -1.1235525966
    8      C       0.2301744986    -0.7988496839     0.3777139377
    9      H       1.6230763654    -0.7202299353    -1.2257527093
   10      H       0.0475978157    -1.3722009797    -1.6615896203
   11      C      -1.2634181188    -0.6699236547     0.7012913302
   12      H      -1.6740633433     0.2984587150     0.4003083751
   13      H      -1.4053923735    -0.7903110144     1.7791425288
   14      H      -1.8176742892    -1.4617046186     0.1858198184
   15      O       0.7682984315    -1.9284370036     0.8656253454
   16      O       0.9142892660     0.3741130715     1.0699556270
   17      O       1.2476118799    -0.1157124467     2.3736098489
   18      H       1.2236713191    -1.1052083421     2.1012789825
   19      O      -0.8513002830     0.5245318498     4.2627800277
   20      H      -0.1742334300     0.2862405062     3.6066697127
   21      O      -1.1420788326     1.9243554631     3.9122038621
 ----------------------------------------------------------------
 Nuclear Repulsion Energy =   720.3942168486 hartrees
 There are       49 alpha and       49 beta electrons
 Discretize the solute cavity surface with Lebedev spheres
	Using 110 Lebedev grid points for each H atom
	Using 110 Lebedev grid points for other atoms
	Atomic van der Waals radii will be scaled by 1.20
 Remove points where switching function is < 1.0e-08
 Keep 1253 surface tesserae and discard 1057 interior tesserae
 Molecular Surface Area = 231.030 Angst**2
 Requested basis set is def2-TZVPD
 There are 208 shells and 546 basis functions
 A cutoff of  1.0D-14 yielded  18795 shell pairs
 There are    128111 function pairs (    162281 Cartesian)
 Smallest overlap matrix eigenvalue = 2.41E-06
 Guess MOs from SCF MO coefficient file
 Reading MOs from coefficient file
 Reading MOs from coefficient file
 Long-range K will be added via erf
 Coulomb attenuation parameter = 0.3 bohr**(-1)
 An unrestricted hybrid HF-DFT SCF calculation will be
 performed using Pulay DIIS extrapolation
 Polarizable Continuum solvation model will be applied
 Exchange:     0.1670 Hartree-Fock + 1.0000 wB97X-V + LR-HF
 Correlation:  1.0000 wB97X-V
 Using SG-2 standard quadrature grid
 Nonlocal Correlation:  VV10 with C = 0.0100 and b = 6.00
 Grid used for NLC:  SG-1 standard quadrature
 SCF converges when DIIS error is below 1.0E-08
Using Q-Chem read-in guess as SCF_GUESS READ specified.

 using 16 threads for integral computing
 -------------------------------------------------------
 OpenMP Integral computing Module                
 Release: version 1.0, May 2013, Q-Chem Inc. Pittsburgh 
 -------------------------------------------------------
 using 16 threads for integral computing
 -------------------------------------------------------
 OpenMP Integral computing Module                
 Release: version 1.0, May 2013, Q-Chem Inc. Pittsburgh 
 -------------------------------------------------------
 -------------------------------------------------------
 OpenMP BLAS3 based DFT computing Module                
 Release: version 1.0, May 2013, Q-Chem Inc. Pittsburgh 
 -------------------------------------------------------
 -------------------------------------------------------
 OpenMP BLAS3 based DFT computing Module                
 Release: version 1.0, May 2013, Q-Chem Inc. Pittsburgh 
 -------------------------------------------------------
 -------------------------------------------------------
 OpenMP BLAS3 based DFT computing Module                
 Release: version 1.0, May 2013, Q-Chem Inc. Pittsburgh 
 -------------------------------------------------------
 ---------------------------------------
  Cycle       Energy         DIIS Error
 ---------------------------------------
    1    -722.2097551682      3.12E-04
    2    -722.7975172671      3.66E-04
    3    -722.8044900892      1.65E-04
    4    -722.8056226089      1.19E-04
    5    -722.8062729628      9.16E-05
    6    -722.8066740580      7.06E-05
    7    -722.8069879446      4.83E-05
    8    -722.8071283650      3.38E-05
    9    -722.8072132991      2.06E-05
   10    -722.8072516284      9.93E-06
   11    -722.8072623163      2.62E-06
   12    -722.8072630321      7.75E-07
   13    -722.8072630967      1.67E-07
   14    -722.8072630997      3.38E-08
   15    -722.8072630998      1.48E-08
   16    -722.8072630998      7.24E-09 Convergence criterion met
 ---------------------------------------

************** Final PCM Free Energy Summary **************
 G_electrostatic  =      -0.59732560 hartree =    -374.82746998 kcal/mol
 G_cavitation     =       0.00000000 hartree =       0.00000000 kcal/mol
 G_dispersion     =       0.00000000 hartree =       0.00000000 kcal/mol
 G_repulsion      =       0.00000000 hartree =       0.00000000 kcal/mol
 --------------------------------------------------
 Non-electrostatic Free Energy =       0.00000000 hartree =       0.00000000 kcal/mol
 Total                         =      -0.59732560 hartree =    -374.82746998 kcal/mol
 --------------------------------------------------
 SCF Energy (H0 + V/2)                       =    -722.80726310 
 Solute Internal Energy (H0)                 =    -722.20993750 
 Total Free Energy (H0 + V/2 + non-elec)     =    -722.80726310 hartree
                                             = -453568.40330272 kcal/mol
***********************************************************

 <S^2> = 0.0000
 SCF time:  CPU 7102.98 s  wall 529.01 s
 SCF   energy in the final basis set = -722.80726310
 Total energy in the final basis set = -722.80726310
 
 --------------------------------------------------------------
 
                    Orbital Energies (a.u.)
 --------------------------------------------------------------
 
 Alpha MOs
 -- Occupied --
-19.226 -19.223 -19.187 -19.138 -19.135 -19.129 -19.116 -10.338
-10.329 -10.243 -10.237 -10.231  -1.219  -1.140  -1.121  -1.061
 -1.045  -0.968  -0.881  -0.868  -0.823  -0.756  -0.656  -0.601
 -0.598  -0.562  -0.555  -0.548  -0.527  -0.515  -0.507  -0.501
 -0.493  -0.463  -0.457  -0.448  -0.445  -0.435  -0.426  -0.416
 -0.401  -0.345  -0.344  -0.336  -0.330  -0.325  -0.300  -0.291
 -0.265
 -- Virtual --
  0.062   0.070   0.078   0.087   0.088   0.098   0.104   0.107
  0.120   0.125   0.126   0.136   0.140   0.147   0.149   0.157
  0.162   0.166   0.169   0.178   0.181   0.186   0.190   0.190
  0.197   0.206   0.213   0.222   0.225   0.230   0.235   0.246
  0.248   0.251   0.254   0.266   0.267   0.280   0.282   0.288
  0.294   0.296   0.299   0.309   0.317   0.320   0.323   0.327
  0.331   0.338   0.347   0.351   0.355   0.366   0.369   0.372
  0.375   0.381   0.385   0.394   0.396   0.400   0.406   0.408
  0.419   0.423   0.425   0.431   0.432   0.438   0.444   0.452
  0.455   0.460   0.465   0.469   0.481   0.482   0.490   0.492
  0.502   0.504   0.511   0.516   0.520   0.522   0.529   0.535
  0.538   0.541   0.546   0.553   0.554   0.563   0.567   0.571
  0.577   0.581   0.584   0.593   0.600   0.602   0.605   0.613
  0.614   0.621   0.623   0.633   0.638   0.638   0.644   0.650
  0.657   0.666   0.671   0.673   0.682   0.684   0.696   0.707
  0.714   0.722   0.723   0.728   0.737   0.748   0.754   0.759
  0.764   0.767   0.777   0.779   0.785   0.789   0.804   0.811
  0.813   0.816   0.819   0.827   0.829   0.835   0.845   0.846
  0.850   0.857   0.861   0.861   0.871   0.873   0.886   0.893
  0.900   0.909   0.910   0.919   0.937   0.944   0.947   0.953
  0.962   0.979   0.983   0.988   0.997   1.011   1.022   1.023
  1.024   1.043   1.057   1.060   1.071   1.073   1.085   1.097
  1.100   1.118   1.128   1.134   1.156   1.170   1.178   1.180
  1.191   1.204   1.207   1.215   1.229   1.235   1.241   1.259
  1.261   1.289   1.297   1.303   1.327   1.344   1.346   1.360
  1.380   1.402   1.416   1.427   1.446   1.457   1.458   1.472
  1.486   1.500   1.510   1.533   1.554   1.561   1.586   1.606
  1.620   1.644   1.676   1.678   1.690   1.715   1.725   1.765
  1.780   1.801   1.849   1.858   1.865   1.876   1.903   1.931
  1.936   1.941   1.960   1.966   1.973   1.977   1.993   1.998
  2.002   2.019   2.029   2.040   2.046   2.057   2.058   2.064
  2.073   2.110   2.120   2.130   2.147   2.179   2.198   2.216
  2.223   2.237   2.266   2.270   2.274   2.281   2.293   2.314
  2.320   2.325   2.340   2.367   2.381   2.385   2.400   2.418
  2.432   2.455   2.470   2.492   2.500   2.518   2.533   2.557
  2.561   2.575   2.585   2.615   2.636   2.656   2.678   2.689
  2.701   2.724   2.739   2.754   2.767   2.793   2.804   2.843
  2.865   2.885   2.902   2.916   2.918   2.941   2.966   2.979
  2.985   3.014   3.019   3.030   3.031   3.045   3.054   3.057
  3.071   3.100   3.115   3.125   3.150   3.159   3.168   3.205
  3.225   3.228   3.258   3.271   3.294   3.312   3.325   3.333
  3.372   3.389   3.397   3.408   3.417   3.453   3.480   3.484
  3.497   3.523   3.530   3.547   3.558   3.566   3.571   3.578
  3.595   3.622   3.628   3.633   3.656   3.670   3.680   3.688
  3.693   3.723   3.730   3.745   3.753   3.780   3.791   3.799
  3.810   3.828   3.842   3.847   3.871   3.908   3.941   3.955
  3.991   4.044   4.077   4.087   4.124   4.147   4.156   4.195
  4.255   4.274   4.296   4.310   4.335   4.365   4.445   4.473
  4.510   4.603   4.664   4.683   4.706   4.727   4.799   4.828
  4.833   4.851   4.859   4.922   4.950   4.952   4.991   5.036
  5.061   5.095   5.121   5.133   5.187   5.201   5.241   5.261
  5.303   5.327   5.339   5.364   5.367   5.374   5.381   5.389
  5.413   5.426   5.504   5.533   5.540   5.572   5.623   5.629
  5.638   5.654   5.719   5.720   5.734   5.780   5.787   5.831
  5.993   6.000   6.018   6.033   6.053   6.117   6.207   6.241
  6.246   6.316   6.336   6.342   6.367   6.417   6.555   6.600
  6.613   6.621   6.630   6.638   6.643   6.668   6.698   6.706
  6.715   6.732   6.758   6.775   6.810   6.855   6.922   6.963
  6.975   6.998   7.034   7.055   7.077   7.094   7.192   7.206
  7.215   7.254   7.261   7.310   7.367   7.400   7.413   7.423
  7.429   7.541   7.631   8.158   8.351  22.769  22.915  22.976
 23.145  23.741  43.899  44.257  44.287  44.379  44.431  44.616
 44.745
 
 Beta MOs
 -- Occupied --
-19.226 -19.223 -19.187 -19.138 -19.135 -19.129 -19.116 -10.338
-10.329 -10.243 -10.237 -10.231  -1.219  -1.140  -1.121  -1.061
 -1.045  -0.968  -0.881  -0.868  -0.823  -0.756  -0.656  -0.601
 -0.598  -0.562  -0.555  -0.548  -0.527  -0.515  -0.507  -0.501
 -0.493  -0.463  -0.457  -0.448  -0.445  -0.435  -0.426  -0.416
 -0.401  -0.345  -0.344  -0.336  -0.330  -0.325  -0.300  -0.291
 -0.265
 -- Virtual --
  0.062   0.070   0.078   0.087   0.088   0.098   0.104   0.107
  0.120   0.125   0.126   0.136   0.140   0.147   0.149   0.157
  0.162   0.166   0.169   0.178   0.181   0.186   0.190   0.190
  0.197   0.206   0.213   0.222   0.225   0.230   0.235   0.246
  0.248   0.251   0.254   0.266   0.267   0.280   0.282   0.288
  0.294   0.296   0.299   0.309   0.317   0.320   0.323   0.327
  0.331   0.338   0.347   0.351   0.355   0.366   0.369   0.372
  0.375   0.381   0.385   0.394   0.396   0.400   0.406   0.408
  0.419   0.423   0.425   0.431   0.432   0.438   0.444   0.452
  0.455   0.460   0.465   0.469   0.481   0.482   0.490   0.492
  0.502   0.504   0.511   0.516   0.520   0.522   0.529   0.535
  0.538   0.541   0.546   0.553   0.554   0.563   0.567   0.571
  0.577   0.581   0.584   0.593   0.600   0.602   0.605   0.613
  0.614   0.621   0.623   0.633   0.638   0.638   0.644   0.650
  0.657   0.666   0.671   0.673   0.682   0.684   0.696   0.707
  0.714   0.722   0.723   0.728   0.737   0.748   0.754   0.759
  0.764   0.767   0.777   0.779   0.785   0.789   0.804   0.811
  0.813   0.816   0.819   0.827   0.829   0.835   0.845   0.846
  0.850   0.857   0.861   0.861   0.871   0.873   0.886   0.893
  0.900   0.909   0.910   0.919   0.937   0.944   0.947   0.953
  0.962   0.979   0.983   0.988   0.997   1.011   1.022   1.023
  1.024   1.043   1.057   1.060   1.071   1.073   1.085   1.097
  1.100   1.118   1.128   1.134   1.156   1.170   1.178   1.180
  1.191   1.204   1.207   1.215   1.229   1.235   1.241   1.259
  1.261   1.289   1.297   1.303   1.327   1.344   1.346   1.360
  1.380   1.402   1.416   1.427   1.446   1.457   1.458   1.472
  1.486   1.500   1.510   1.533   1.554   1.561   1.586   1.606
  1.620   1.644   1.676   1.678   1.690   1.715   1.725   1.765
  1.780   1.801   1.849   1.858   1.865   1.876   1.903   1.931
  1.936   1.941   1.960   1.966   1.973   1.977   1.993   1.998
  2.002   2.019   2.029   2.040   2.046   2.057   2.058   2.064
  2.073   2.110   2.120   2.130   2.147   2.179   2.198   2.216
  2.223   2.237   2.266   2.270   2.274   2.281   2.293   2.314
  2.320   2.325   2.340   2.367   2.381   2.385   2.400   2.418
  2.432   2.455   2.470   2.492   2.500   2.518   2.533   2.557
  2.561   2.575   2.585   2.615   2.636   2.656   2.678   2.689
  2.701   2.724   2.739   2.754   2.767   2.793   2.804   2.843
  2.865   2.885   2.902   2.916   2.918   2.941   2.966   2.979
  2.985   3.014   3.019   3.030   3.031   3.045   3.054   3.057
  3.071   3.100   3.115   3.125   3.150   3.159   3.168   3.205
  3.225   3.228   3.258   3.271   3.294   3.312   3.325   3.333
  3.372   3.389   3.397   3.408   3.417   3.453   3.480   3.484
  3.497   3.523   3.530   3.547   3.558   3.566   3.571   3.578
  3.595   3.622   3.628   3.633   3.656   3.670   3.680   3.688
  3.693   3.723   3.730   3.745   3.753   3.780   3.791   3.799
  3.810   3.828   3.842   3.847   3.871   3.908   3.941   3.955
  3.991   4.044   4.077   4.087   4.124   4.147   4.156   4.195
  4.255   4.274   4.296   4.310   4.335   4.365   4.445   4.473
  4.510   4.603   4.664   4.683   4.706   4.727   4.799   4.828
  4.833   4.851   4.859   4.922   4.950   4.952   4.991   5.036
  5.061   5.095   5.121   5.133   5.187   5.201   5.241   5.261
  5.303   5.327   5.339   5.364   5.367   5.374   5.381   5.389
  5.413   5.426   5.504   5.533   5.540   5.572   5.623   5.629
  5.638   5.654   5.719   5.720   5.734   5.780   5.787   5.831
  5.993   6.000   6.018   6.033   6.053   6.117   6.207   6.241
  6.246   6.316   6.336   6.342   6.367   6.417   6.555   6.600
  6.613   6.621   6.630   6.638   6.643   6.668   6.698   6.706
  6.715   6.732   6.758   6.775   6.810   6.855   6.922   6.963
  6.975   6.998   7.034   7.055   7.077   7.094   7.192   7.206
  7.215   7.254   7.261   7.310   7.367   7.400   7.413   7.423
  7.429   7.541   7.631   8.158   8.351  22.769  22.915  22.976
 23.145  23.741  43.899  44.257  44.287  44.379  44.431  44.616
 44.745
 --------------------------------------------------------------
 
          Ground-State Mulliken Net Atomic Charges

     Atom                 Charge (a.u.)    Spin (a.u.)
  --------------------------------------------------------
      1 C                    -0.187699       0.000000
      2 C                    -0.019428       0.000000
      3 O                    -0.717022      -0.000000
      4 O                    -0.693164       0.000000
      5 C                    -0.231745      -0.000000
      6 H                     0.200273       0.000000
      7 H                     0.197601      -0.000000
      8 C                     1.065564       0.000000
      9 H                     0.133012       0.000000
     10 H                     0.217966       0.000000
     11 C                    -1.273173      -0.000000
     12 H                     0.243355       0.000000
     13 H                     0.200245       0.000000
     14 H                     0.261469       0.000000
     15 O                    -0.973485       0.000000
     16 O                    -0.255093      -0.000000
     17 O                    -0.558433      -0.000000
     18 H                     0.385196      -0.000000
     19 O                    -0.425777      -0.000000
     20 H                     0.303832      -0.000000
     21 O                    -0.873494      -0.000000
  --------------------------------------------------------
  Sum of atomic charges =    -3.000000
  Sum of spin   charges =    -0.000000

 -----------------------------------------------------------------
                    Cartesian Multipole Moments
 -----------------------------------------------------------------
    Charge (ESU x 10^10)
               -14.4096
    Dipole Moment (Debye)
         X      -1.6716      Y     -10.0584      Z      -7.8386
       Tot      12.8612
    Quadrupole Moments (Debye-Ang)
        XX     -95.6020     XY      12.8161     YY    -125.9362
        XZ      34.2624     YZ     -10.3172     ZZ    -258.8090
    Octopole Moments (Debye-Ang^2)
       XXX     -30.0738    XXY     -27.1340    XYY      -6.1859
       YYY     -93.0883    XXZ     -38.9878    XYZ      43.0880
       YYZ     -27.3455    XZZ      30.4741    YZZ    -248.3632
       ZZZ    -108.7013
    Hexadecapole Moments (Debye-Ang^3)
      XXXX    -495.5505   XXXY      76.7932   XXYY    -236.4280
      XYYY     107.1366   YYYY    -983.7987   XXXZ     281.0699
      XXYZ     -33.3378   XYYZ     164.4003   YYYZ      87.3320
      XXZZ    -843.0836   XYZZ     151.6107   YYZZ   -1196.2397
      XZZZ     884.2487   YZZZ    -193.2714   ZZZZ   -6435.9008
 -----------------------------------------------------------------
 Calculating analytic gradient of the SCF energy
 Gradient of SCF Energy
            1           2           3           4           5           6
    1  -0.0511603  -0.0000902   0.0082956  -0.0266877   0.1901608   0.0594528
    2   0.1016976  -0.0106608  -0.0553551   0.0530169  -0.1758397  -0.0064589
    3   0.0916338  -0.0568745   0.0362282   0.0444325  -0.0873443   0.0020227
            7           8           9          10          11          12
    1  -0.0438864  -0.0971795  -0.0834113   0.0375344  -0.1209760   0.0262991
    2  -0.0591837   0.1159759  -0.0019864   0.0578890   0.0351679  -0.1117166
    3  -0.0307111  -0.0233800  -0.0006972   0.0290554   0.0352417   0.0490060
           13          14          15          16          17          18
    1   0.0183487   0.0454379   0.0041951   0.0033271   0.0364422   0.0004871
    2   0.0093956   0.0787750  -0.0170295   0.0042197  -0.0665014   0.0553679
    3  -0.1274529   0.0516669  -0.0107299  -0.0632090   0.0427334   0.0160352
           19          20          21
    1   0.0882403  -0.0750950  -0.0197347
    2  -0.1135057   0.0300716   0.0766609
    3  -0.0511310   0.0781029  -0.0246289
 Max gradient component =       1.902E-01
 RMS gradient           =       6.592E-02
 Computing fast CPCM-ISWIG gradient
 Updating gradient with PCM contributions...
 -- total gradient after adding PCM contribution --
---------------------------------------------------
  Atom         X              Y              Z     
---------------------------------------------------
   1       0.001038       0.000012       0.000030
   2      -0.000182      -0.000013       0.000029
   3       0.000035       0.000012      -0.000002
   4       0.000027       0.000019       0.000040
   5      -0.000177       0.000053      -0.000020
   6      -0.000572       0.000060       0.000046
   7      -0.000178      -0.000160      -0.000118
   8       0.000011       0.000014       0.000007
   9      -0.000014       0.000058      -0.000023
  10       0.000007      -0.000024       0.000009
  11       0.000001       0.000003       0.000000
  12      -0.000000       0.000001       0.000004
  13      -0.000001      -0.000009       0.000001
  14      -0.000003       0.000001      -0.000005
  15       0.000003      -0.000008       0.000009
  16      -0.000006      -0.000019      -0.000004
  17      -0.000003      -0.000017      -0.000024
  18      -0.000005       0.000014      -0.000006
  19       0.000022      -0.000030       0.000027
  20       0.000010       0.000006      -0.000000
  21      -0.000015       0.000027      -0.000002
---------------------------------------------------
 Number of fixed atoms: 0
 Gradient time:  CPU 1363.15 s  wall 100.31 s
 ----------------------------------------------------------------
             Standard Nuclear Orientation (Angstroms)
    I     Atom           X                Y                Z
 ----------------------------------------------------------------
    1      C       0.1405324700     0.7816846136    -1.6865120263
    2      C       0.4898078303     0.9955592315    -3.1693852003
    3      O       0.2726716143     2.1526937122    -3.6254330378
    4      O       0.9473776637     0.0304573499    -3.8329443863
    5      C       0.5448558620    -0.5693422914    -1.1053302314
    6      H      -0.9409415034     0.9339613606    -1.6014222488
    7      H       0.6039505764     1.5992773770    -1.1235525966
    8      C       0.2301744986    -0.7988496839     0.3777139377
    9      H       1.6230763654    -0.7202299353    -1.2257527093
   10      H       0.0475978157    -1.3722009797    -1.6615896203
   11      C      -1.2634181188    -0.6699236547     0.7012913302
   12      H      -1.6740633433     0.2984587150     0.4003083751
   13      H      -1.4053923735    -0.7903110144     1.7791425288
   14      H      -1.8176742892    -1.4617046186     0.1858198184
   15      O       0.7682984315    -1.9284370036     0.8656253454
   16      O       0.9142892660     0.3741130715     1.0699556270
   17      O       1.2476118799    -0.1157124467     2.3736098489
   18      H       1.2236713191    -1.1052083421     2.1012789825
   19      O      -0.8513002830     0.5245318498     4.2627800277
   20      H      -0.1742334300     0.2862405062     3.6066697127
   21      O      -1.1420788326     1.9243554631     3.9122038621
 ----------------------------------------------------------------
 Nuclear Repulsion Energy =   720.3850013753 hartrees
 There are       49 alpha and       49 beta electrons
 Discretize the solute cavity surface with Lebedev spheres
	Using 110 Lebedev grid points for each H atom
	Using 110 Lebedev grid points for other atoms
	Atomic van der Waals radii will be scaled by 1.20
 Remove points where switching function is < 1.0e-08
 Keep 1253 surface tesserae and discard 1057 interior tesserae
 Molecular Surface Area = 231.027 Angst**2
 Requested basis set is def2-TZVPD
 There are 208 shells and 546 basis functions
 A cutoff of  1.0D-14 yielded  18795 shell pairs
 There are    128111 function pairs (    162281 Cartesian)
 Smallest overlap matrix eigenvalue = 2.42E-06
 Guess MOs from SCF MO coefficient file
 Reading MOs from coefficient file
 Reading MOs from coefficient file
 Long-range K will be added via erf
 Coulomb attenuation parameter = 0.3 bohr**(-1)
 An unrestricted hybrid HF-DFT SCF calculation will be
 performed using Pulay DIIS extrapolation
 Polarizable Continuum solvation model will be applied
 Exchange:     0.1670 Hartree-Fock + 1.0000 wB97X-V + LR-HF
 Correlation:  1.0000 wB97X-V
 Using SG-2 standard quadrature grid
 Nonlocal Correlation:  VV10 with C = 0.0100 and b = 6.00
 Grid used for NLC:  SG-1 standard quadrature
 SCF converges when DIIS error is below 1.0E-08
Using Q-Chem read-in guess as SCF_GUESS READ specified.

 using 16 threads for integral computing
 -------------------------------------------------------
 OpenMP Integral computing Module                
 Release: version 1.0, May 2013, Q-Chem Inc. Pittsburgh 
 -------------------------------------------------------
 using 16 threads for integral computing
 -------------------------------------------------------
 OpenMP Integral computing Module                
 Release: version 1.0, May 2013, Q-Chem Inc. Pittsburgh 
 -------------------------------------------------------
 -------------------------------------------------------
 OpenMP BLAS3 based DFT computing Module                
 Release: version 1.0, May 2013, Q-Chem Inc. Pittsburgh 
 -------------------------------------------------------
 -------------------------------------------------------
 OpenMP BLAS3 based DFT computing Module                
 Release: version 1.0, May 2013, Q-Chem Inc. Pittsburgh 
 -------------------------------------------------------
 -------------------------------------------------------
 OpenMP BLAS3 based DFT computing Module                
 Release: version 1.0, May 2013, Q-Chem Inc. Pittsburgh 
 -------------------------------------------------------
 ---------------------------------------
  Cycle       Energy         DIIS Error
 ---------------------------------------
    1    -722.2102976258      3.13E-04
    2    -722.7975279580      3.65E-04
    3    -722.8044951845      1.65E-04
    4    -722.8056283870      1.19E-04
    5    -722.8062879871      9.08E-05
    6    -722.8067180404      6.79E-05
    7    -722.8070690025      4.05E-05
    8    -722.8072018360      2.28E-05
    9    -722.8072531095      9.27E-06
   10    -722.8072622529      2.75E-06
   11    -722.8072630935      4.29E-07
   12    -722.8072631118      1.07E-07
   13    -722.8072631128      2.03E-08
   14    -722.8072631128      1.18E-08
   15    -722.8072631128      5.56E-09 Convergence criterion met
 ---------------------------------------

************** Final PCM Free Energy Summary **************
 G_electrostatic  =      -0.59733366 hartree =    -374.83252653 kcal/mol
 G_cavitation     =       0.00000000 hartree =       0.00000000 kcal/mol
 G_dispersion     =       0.00000000 hartree =       0.00000000 kcal/mol
 G_repulsion      =       0.00000000 hartree =       0.00000000 kcal/mol
 --------------------------------------------------
 Non-electrostatic Free Energy =       0.00000000 hartree =       0.00000000 kcal/mol
 Total                         =      -0.59733366 hartree =    -374.83252653 kcal/mol
 --------------------------------------------------
 SCF Energy (H0 + V/2)                       =    -722.80726311 
 Solute Internal Energy (H0)                 =    -722.20992946 
 Total Free Energy (H0 + V/2 + non-elec)     =    -722.80726311 hartree
                                             = -453568.40331090 kcal/mol
***********************************************************

 <S^2> = 0.0000
 SCF time:  CPU 6651.35 s  wall 497.22 s
 SCF   energy in the final basis set = -722.80726311
 Total energy in the final basis set = -722.80726311
 
 --------------------------------------------------------------
 
                    Orbital Energies (a.u.)
 --------------------------------------------------------------
 
 Alpha MOs
 -- Occupied --
-19.226 -19.223 -19.187 -19.138 -19.135 -19.129 -19.116 -10.338
-10.329 -10.243 -10.237 -10.231  -1.219  -1.140  -1.121  -1.061
 -1.045  -0.968  -0.881  -0.868  -0.823  -0.756  -0.656  -0.601
 -0.598  -0.562  -0.555  -0.548  -0.527  -0.515  -0.507  -0.501
 -0.493  -0.463  -0.457  -0.448  -0.445  -0.435  -0.426  -0.416
 -0.401  -0.345  -0.344  -0.336  -0.330  -0.325  -0.300  -0.291
 -0.265
 -- Virtual --
  0.062   0.070   0.078   0.087   0.088   0.098   0.104   0.107
  0.120   0.125   0.126   0.136   0.140   0.147   0.149   0.157
  0.162   0.166   0.169   0.178   0.181   0.186   0.190   0.190
  0.197   0.206   0.213   0.222   0.225   0.230   0.235   0.246
  0.248   0.251   0.254   0.266   0.267   0.280   0.282   0.288
  0.294   0.296   0.299   0.309   0.317   0.320   0.323   0.327
  0.331   0.338   0.347   0.351   0.355   0.366   0.369   0.372
  0.375   0.381   0.385   0.394   0.396   0.400   0.406   0.408
  0.419   0.423   0.425   0.432   0.432   0.438   0.444   0.452
  0.455   0.460   0.465   0.469   0.481   0.482   0.490   0.492
  0.502   0.504   0.511   0.516   0.520   0.523   0.529   0.535
  0.538   0.541   0.546   0.553   0.554   0.563   0.567   0.571
  0.577   0.581   0.584   0.593   0.600   0.602   0.605   0.613
  0.614   0.621   0.623   0.633   0.638   0.638   0.644   0.650
  0.657   0.666   0.671   0.673   0.682   0.684   0.696   0.707
  0.714   0.722   0.723   0.728   0.737   0.748   0.754   0.759
  0.764   0.767   0.777   0.779   0.785   0.789   0.804   0.811
  0.813   0.816   0.819   0.827   0.829   0.835   0.845   0.846
  0.850   0.857   0.861   0.861   0.871   0.873   0.886   0.893
  0.900   0.909   0.910   0.919   0.937   0.944   0.947   0.953
  0.962   0.979   0.983   0.988   0.997   1.011   1.022   1.023
  1.024   1.043   1.057   1.060   1.071   1.073   1.085   1.097
  1.100   1.118   1.128   1.134   1.156   1.170   1.178   1.180
  1.190   1.204   1.207   1.215   1.229   1.235   1.241   1.259
  1.261   1.289   1.297   1.303   1.327   1.344   1.346   1.360
  1.380   1.402   1.416   1.427   1.446   1.457   1.458   1.472
  1.486   1.500   1.511   1.533   1.554   1.561   1.586   1.606
  1.620   1.644   1.676   1.678   1.690   1.715   1.725   1.765
  1.779   1.801   1.849   1.858   1.865   1.876   1.903   1.931
  1.936   1.941   1.960   1.966   1.973   1.977   1.993   1.998
  2.002   2.019   2.028   2.040   2.046   2.057   2.058   2.064
  2.073   2.110   2.120   2.130   2.147   2.179   2.198   2.216
  2.223   2.237   2.266   2.270   2.274   2.281   2.293   2.314
  2.320   2.325   2.340   2.367   2.381   2.385   2.400   2.418
  2.432   2.455   2.471   2.492   2.500   2.518   2.533   2.557
  2.561   2.575   2.585   2.615   2.636   2.656   2.678   2.689
  2.701   2.724   2.739   2.754   2.767   2.792   2.804   2.843
  2.865   2.885   2.902   2.916   2.918   2.941   2.966   2.979
  2.986   3.014   3.019   3.030   3.031   3.045   3.054   3.057
  3.071   3.100   3.115   3.125   3.150   3.159   3.168   3.205
  3.225   3.228   3.258   3.271   3.294   3.312   3.325   3.333
  3.372   3.389   3.397   3.408   3.417   3.453   3.480   3.484
  3.497   3.523   3.529   3.547   3.558   3.566   3.571   3.578
  3.595   3.622   3.628   3.633   3.656   3.670   3.680   3.688
  3.693   3.723   3.729   3.745   3.753   3.780   3.791   3.799
  3.810   3.828   3.842   3.847   3.871   3.908   3.941   3.955
  3.991   4.044   4.077   4.087   4.124   4.147   4.156   4.195
  4.255   4.274   4.296   4.310   4.335   4.365   4.445   4.472
  4.510   4.604   4.664   4.682   4.706   4.728   4.800   4.828
  4.833   4.851   4.859   4.922   4.950   4.952   4.990   5.036
  5.061   5.095   5.121   5.133   5.187   5.201   5.241   5.261
  5.303   5.327   5.339   5.364   5.367   5.374   5.381   5.389
  5.413   5.426   5.504   5.533   5.540   5.572   5.623   5.629
  5.638   5.654   5.719   5.720   5.734   5.780   5.787   5.831
  5.993   6.000   6.018   6.033   6.053   6.117   6.207   6.241
  6.246   6.316   6.336   6.342   6.367   6.417   6.555   6.600
  6.613   6.621   6.630   6.638   6.643   6.668   6.698   6.706
  6.715   6.732   6.758   6.775   6.810   6.855   6.922   6.962
  6.975   6.998   7.034   7.055   7.077   7.094   7.192   7.206
  7.215   7.254   7.261   7.310   7.367   7.400   7.413   7.423
  7.429   7.541   7.631   8.158   8.351  22.769  22.915  22.976
 23.145  23.741  43.899  44.257  44.287  44.379  44.431  44.616
 44.745
 
 Beta MOs
 -- Occupied --
-19.226 -19.223 -19.187 -19.138 -19.135 -19.129 -19.116 -10.338
-10.329 -10.243 -10.237 -10.231  -1.219  -1.140  -1.121  -1.061
 -1.045  -0.968  -0.881  -0.868  -0.823  -0.756  -0.656  -0.601
 -0.598  -0.562  -0.555  -0.548  -0.527  -0.515  -0.507  -0.501
 -0.493  -0.463  -0.457  -0.448  -0.445  -0.435  -0.426  -0.416
 -0.401  -0.345  -0.344  -0.336  -0.330  -0.325  -0.300  -0.291
 -0.265
 -- Virtual --
  0.062   0.070   0.078   0.087   0.088   0.098   0.104   0.107
  0.120   0.125   0.126   0.136   0.140   0.147   0.149   0.157
  0.162   0.166   0.169   0.178   0.181   0.186   0.190   0.190
  0.197   0.206   0.213   0.222   0.225   0.230   0.235   0.246
  0.248   0.251   0.254   0.266   0.267   0.280   0.282   0.288
  0.294   0.296   0.299   0.309   0.317   0.320   0.323   0.327
  0.331   0.338   0.347   0.351   0.355   0.366   0.369   0.372
  0.375   0.381   0.385   0.394   0.396   0.400   0.406   0.408
  0.419   0.423   0.425   0.432   0.432   0.438   0.444   0.452
  0.455   0.460   0.465   0.469   0.481   0.482   0.490   0.492
  0.502   0.504   0.511   0.516   0.520   0.523   0.529   0.535
  0.538   0.541   0.546   0.553   0.554   0.563   0.567   0.571
  0.577   0.581   0.584   0.593   0.600   0.602   0.605   0.613
  0.614   0.621   0.623   0.633   0.638   0.638   0.644   0.650
  0.657   0.666   0.671   0.673   0.682   0.684   0.696   0.707
  0.714   0.722   0.723   0.728   0.737   0.748   0.754   0.759
  0.764   0.767   0.777   0.779   0.785   0.789   0.804   0.811
  0.813   0.816   0.819   0.827   0.829   0.835   0.845   0.846
  0.850   0.857   0.861   0.861   0.871   0.873   0.886   0.893
  0.900   0.909   0.910   0.919   0.937   0.944   0.947   0.953
  0.962   0.979   0.983   0.988   0.997   1.011   1.022   1.023
  1.024   1.043   1.057   1.060   1.071   1.073   1.085   1.097
  1.100   1.118   1.128   1.134   1.156   1.170   1.178   1.180
  1.190   1.204   1.207   1.215   1.229   1.235   1.241   1.259
  1.261   1.289   1.297   1.303   1.327   1.344   1.346   1.360
  1.380   1.402   1.416   1.427   1.446   1.457   1.458   1.472
  1.486   1.500   1.511   1.533   1.554   1.561   1.586   1.606
  1.620   1.644   1.676   1.678   1.690   1.715   1.725   1.765
  1.779   1.801   1.849   1.858   1.865   1.876   1.903   1.931
  1.936   1.941   1.960   1.966   1.973   1.977   1.993   1.998
  2.002   2.019   2.028   2.040   2.046   2.057   2.058   2.064
  2.073   2.110   2.120   2.130   2.147   2.179   2.198   2.216
  2.223   2.237   2.266   2.270   2.274   2.281   2.293   2.314
  2.320   2.325   2.340   2.367   2.381   2.385   2.400   2.418
  2.432   2.455   2.471   2.492   2.500   2.518   2.533   2.557
  2.561   2.575   2.585   2.615   2.636   2.656   2.678   2.689
  2.701   2.724   2.739   2.754   2.767   2.792   2.804   2.843
  2.865   2.885   2.902   2.916   2.918   2.941   2.966   2.979
  2.986   3.014   3.019   3.030   3.031   3.045   3.054   3.057
  3.071   3.100   3.115   3.125   3.150   3.159   3.168   3.205
  3.225   3.228   3.258   3.271   3.294   3.312   3.325   3.333
  3.372   3.389   3.397   3.408   3.417   3.453   3.480   3.484
  3.497   3.523   3.529   3.547   3.558   3.566   3.571   3.578
  3.595   3.622   3.628   3.633   3.656   3.670   3.680   3.688
  3.693   3.723   3.729   3.745   3.753   3.780   3.791   3.799
  3.810   3.828   3.842   3.847   3.871   3.908   3.941   3.955
  3.991   4.044   4.077   4.087   4.124   4.147   4.156   4.195
  4.255   4.274   4.296   4.310   4.335   4.365   4.445   4.472
  4.510   4.604   4.664   4.682   4.706   4.728   4.800   4.828
  4.833   4.851   4.859   4.922   4.950   4.952   4.990   5.036
  5.061   5.095   5.121   5.133   5.187   5.201   5.241   5.261
  5.303   5.327   5.339   5.364   5.367   5.374   5.381   5.389
  5.413   5.426   5.504   5.533   5.540   5.572   5.623   5.629
  5.638   5.654   5.719   5.720   5.734   5.780   5.787   5.831
  5.993   6.000   6.018   6.033   6.053   6.117   6.207   6.241
  6.246   6.316   6.336   6.342   6.367   6.417   6.555   6.600
  6.613   6.621   6.630   6.638   6.643   6.668   6.698   6.706
  6.715   6.732   6.758   6.775   6.810   6.855   6.922   6.962
  6.975   6.998   7.034   7.055   7.077   7.094   7.192   7.206
  7.215   7.254   7.261   7.310   7.367   7.400   7.413   7.423
  7.429   7.541   7.631   8.158   8.351  22.769  22.915  22.976
 23.145  23.741  43.899  44.257  44.287  44.379  44.431  44.616
 44.745
 --------------------------------------------------------------
 
          Ground-State Mulliken Net Atomic Charges

     Atom                 Charge (a.u.)    Spin (a.u.)
  --------------------------------------------------------
      1 C                    -0.188434       0.000000
      2 C                    -0.018688      -0.000000
      3 O                    -0.716947      -0.000000
      4 O                    -0.693079      -0.000000
      5 C                    -0.232970      -0.000000
      6 H                     0.201974      -0.000000
      7 H                     0.196635      -0.000000
      8 C                     1.065689      -0.000000
      9 H                     0.133070       0.000000
     10 H                     0.218047       0.000000
     11 C                    -1.272945       0.000000
     12 H                     0.243300       0.000000
     13 H                     0.200219       0.000000
     14 H                     0.261454      -0.000000
     15 O                    -0.973499       0.000000
     16 O                    -0.255108       0.000000
     17 O                    -0.558434       0.000000
     18 H                     0.385155       0.000000
     19 O                    -0.425776       0.000000
     20 H                     0.303829       0.000000
     21 O                    -0.873493       0.000000
  --------------------------------------------------------
  Sum of atomic charges =    -3.000000
  Sum of spin   charges =    -0.000000

 -----------------------------------------------------------------
                    Cartesian Multipole Moments
 -----------------------------------------------------------------
    Charge (ESU x 10^10)
               -14.4096
    Dipole Moment (Debye)
         X      -1.6734      Y     -10.0585      Z      -7.8407
       Tot      12.8627
    Quadrupole Moments (Debye-Ang)
        XX     -95.5986     XY      12.8121     YY    -125.9396
        XZ      34.2662     YZ     -10.3172     ZZ    -258.8032
    Octopole Moments (Debye-Ang^2)
       XXX     -30.0502    XXY     -27.1338    XYY      -6.1813
       YYY     -93.0911    XXZ     -38.9928    XYZ      43.0972
       YYZ     -27.3447    XZZ      30.4691    YZZ    -248.3636
       ZZZ    -108.7371
    Hexadecapole Moments (Debye-Ang^3)
      XXXX    -495.5207   XXXY      76.8005   XXYY    -236.4204
      XYYY     107.1428   YYYY    -983.8357   XXXZ     281.0370
      XXYZ     -33.3346   XYYZ     164.3970   YYYZ      87.3394
      XXZZ    -843.0850   XYZZ     151.5906   YYZZ   -1196.2500
      XZZZ     884.2503   YZZZ    -193.2592   ZZZZ   -6435.7505
 -----------------------------------------------------------------
 Calculating analytic gradient of the SCF energy
 Gradient of SCF Energy
            1           2           3           4           5           6
    1  -0.0530353   0.0001699   0.0082553  -0.0267242   0.1906669   0.0606088
    2   0.1016905  -0.0106215  -0.0553563   0.0530106  -0.1762151  -0.0067479
    3   0.0915697  -0.0570669   0.0362459   0.0444027  -0.0873074   0.0019272
            7           8           9          10          11          12
    1  -0.0436424  -0.0972884  -0.0834674   0.0374826  -0.1210093   0.0263322
    2  -0.0587542   0.1162632  -0.0020774   0.0580013   0.0350350  -0.1116821
    3  -0.0304924  -0.0232391  -0.0008287   0.0291386   0.0352929   0.0489644
           13          14          15          16          17          18
    1   0.0183439   0.0454234   0.0041983   0.0033429   0.0364397   0.0004927
    2   0.0094148   0.0787532  -0.0170307   0.0042156  -0.0665029   0.0553774
    3  -0.1274443   0.0516674  -0.0107373  -0.0632118   0.0427359   0.0160391
           19          20          21
    1   0.0882420  -0.0750966  -0.0197351
    2  -0.1135072   0.0300712   0.0766624
    3  -0.0511326   0.0781064  -0.0246296
 Max gradient component =       1.907E-01
 RMS gradient           =       6.600E-02
 Computing fast CPCM-ISWIG gradient
 Updating gradient with PCM contributions...
 -- total gradient after adding PCM contribution --
---------------------------------------------------
  Atom         X              Y              Z     
---------------------------------------------------
   1      -0.001035       0.000000      -0.000039
   2       0.000179       0.000020      -0.000025
   3      -0.000036      -0.000011       0.000007
   4      -0.000031      -0.000021      -0.000042
   5       0.000171      -0.000072       0.000011
   6       0.000572      -0.000062      -0.000045
   7       0.000173       0.000160       0.000119
   8       0.000006       0.000038       0.000024
   9       0.000014      -0.000056       0.000024
  10      -0.000009       0.000029      -0.000014
  11       0.000001       0.000003      -0.000002
  12       0.000001       0.000001       0.000001
  13      -0.000000      -0.000009       0.000000
  14      -0.000003       0.000001      -0.000004
  15      -0.000006      -0.000003      -0.000005
  16      -0.000007      -0.000020      -0.000004
  17      -0.000004      -0.000017      -0.000026
  18      -0.000005       0.000016      -0.000005
  19       0.000023      -0.000031       0.000026
  20       0.000009       0.000006       0.000000
  21      -0.000015       0.000028      -0.000002
---------------------------------------------------
 Number of fixed atoms: 0
 Gradient time:  CPU 1363.46 s  wall 100.46 s
 ----------------------------------------------------------------
             Standard Nuclear Orientation (Angstroms)
    I     Atom           X                Y                Z
 ----------------------------------------------------------------
    1      C       0.1415324700     0.7826846136    -1.6865120263
    2      C       0.4898078303     0.9955592315    -3.1693852003
    3      O       0.2726716143     2.1526937122    -3.6254330378
    4      O       0.9473776637     0.0304573499    -3.8329443863
    5      C       0.5448558620    -0.5693422914    -1.1053302314
    6      H      -0.9409415034     0.9339613606    -1.6014222488
    7      H       0.6039505764     1.5992773770    -1.1235525966
    8      C       0.2301744986    -0.7988496839     0.3777139377
    9      H       1.6230763654    -0.7202299353    -1.2257527093
   10      H       0.0475978157    -1.3722009797    -1.6615896203
   11      C      -1.2634181188    -0.6699236547     0.7012913302
   12      H      -1.6740633433     0.2984587150     0.4003083751
   13      H      -1.4053923735    -0.7903110144     1.7791425288
   14      H      -1.8176742892    -1.4617046186     0.1858198184
   15      O       0.7682984315    -1.9284370036     0.8656253454
   16      O       0.9142892660     0.3741130715     1.0699556270
   17      O       1.2476118799    -0.1157124467     2.3736098489
   18      H       1.2236713191    -1.1052083421     2.1012789825
   19      O      -0.8513002830     0.5245318498     4.2627800277
   20      H      -0.1742334300     0.2862405062     3.6066697127
   21      O      -1.1420788326     1.9243554631     3.9122038621
 ----------------------------------------------------------------
 Nuclear Repulsion Energy =   720.3810147862 hartrees
 There are       49 alpha and       49 beta electrons
 Discretize the solute cavity surface with Lebedev spheres
	Using 110 Lebedev grid points for each H atom
	Using 110 Lebedev grid points for other atoms
	Atomic van der Waals radii will be scaled by 1.20
 Remove points where switching function is < 1.0e-08
 Keep 1253 surface tesserae and discard 1057 interior tesserae
 Molecular Surface Area = 231.029 Angst**2
 Requested basis set is def2-TZVPD
 There are 208 shells and 546 basis functions
 A cutoff of  1.0D-14 yielded  18795 shell pairs
 There are    128111 function pairs (    162281 Cartesian)
 Smallest overlap matrix eigenvalue = 2.42E-06
 Guess MOs from SCF MO coefficient file
 Reading MOs from coefficient file
 Reading MOs from coefficient file
 Long-range K will be added via erf
 Coulomb attenuation parameter = 0.3 bohr**(-1)
 An unrestricted hybrid HF-DFT SCF calculation will be
 performed using Pulay DIIS extrapolation
 Polarizable Continuum solvation model will be applied
 Exchange:     0.1670 Hartree-Fock + 1.0000 wB97X-V + LR-HF
 Correlation:  1.0000 wB97X-V
 Using SG-2 standard quadrature grid
 Nonlocal Correlation:  VV10 with C = 0.0100 and b = 6.00
 Grid used for NLC:  SG-1 standard quadrature
 SCF converges when DIIS error is below 1.0E-08
Using Q-Chem read-in guess as SCF_GUESS READ specified.

 using 16 threads for integral computing
 -------------------------------------------------------
 OpenMP Integral computing Module                
 Release: version 1.0, May 2013, Q-Chem Inc. Pittsburgh 
 -------------------------------------------------------
 using 16 threads for integral computing
 -------------------------------------------------------
 OpenMP Integral computing Module                
 Release: version 1.0, May 2013, Q-Chem Inc. Pittsburgh 
 -------------------------------------------------------
 -------------------------------------------------------
 OpenMP BLAS3 based DFT computing Module                
 Release: version 1.0, May 2013, Q-Chem Inc. Pittsburgh 
 -------------------------------------------------------
 -------------------------------------------------------
 OpenMP BLAS3 based DFT computing Module                
 Release: version 1.0, May 2013, Q-Chem Inc. Pittsburgh 
 -------------------------------------------------------
 -------------------------------------------------------
 OpenMP BLAS3 based DFT computing Module                
 Release: version 1.0, May 2013, Q-Chem Inc. Pittsburgh 
 -------------------------------------------------------
 ---------------------------------------
  Cycle       Energy         DIIS Error
 ---------------------------------------
    1    -722.2100737144      3.13E-04
    2    -722.7975128003      3.66E-04
    3    -722.8044902979      1.65E-04
    4    -722.8056239675      1.19E-04
    5    -722.8062793998      9.13E-05
    6    -722.8066915166      6.96E-05
    7    -722.8070209207      4.53E-05
    8    -722.8071629626      2.92E-05
    9    -722.8072371318      1.49E-05
   10    -722.8072595206      5.56E-06
   11    -722.8072629694      1.06E-06
   12    -722.8072630880      2.60E-07
   13    -722.8072630950      3.88E-08
   14    -722.8072630951      8.49E-09 Convergence criterion met
 ---------------------------------------

************** Final PCM Free Energy Summary **************
 G_electrostatic  =      -0.59733088 hartree =    -374.83078157 kcal/mol
 G_cavitation     =       0.00000000 hartree =       0.00000000 kcal/mol
 G_dispersion     =       0.00000000 hartree =       0.00000000 kcal/mol
 G_repulsion      =       0.00000000 hartree =       0.00000000 kcal/mol
 --------------------------------------------------
 Non-electrostatic Free Energy =       0.00000000 hartree =       0.00000000 kcal/mol
 Total                         =      -0.59733088 hartree =    -374.83078157 kcal/mol
 --------------------------------------------------
 SCF Energy (H0 + V/2)                       =    -722.80726310 
 Solute Internal Energy (H0)                 =    -722.20993222 
 Total Free Energy (H0 + V/2 + non-elec)     =    -722.80726310 hartree
                                             = -453568.40329979 kcal/mol
***********************************************************

 <S^2> = 0.0000
 SCF time:  CPU 6215.80 s  wall 464.28 s
 SCF   energy in the final basis set = -722.80726310
 Total energy in the final basis set = -722.80726310
 
 --------------------------------------------------------------
 
                    Orbital Energies (a.u.)
 --------------------------------------------------------------
 
 Alpha MOs
 -- Occupied --
-19.226 -19.223 -19.187 -19.138 -19.135 -19.129 -19.116 -10.338
-10.329 -10.243 -10.237 -10.231  -1.219  -1.140  -1.121  -1.061
 -1.045  -0.968  -0.881  -0.868  -0.823  -0.756  -0.656  -0.601
 -0.598  -0.562  -0.555  -0.548  -0.527  -0.515  -0.507  -0.501
 -0.493  -0.463  -0.457  -0.448  -0.445  -0.435  -0.426  -0.416
 -0.401  -0.345  -0.344  -0.336  -0.330  -0.325  -0.300  -0.291
 -0.265
 -- Virtual --
  0.062   0.070   0.078   0.087   0.088   0.098   0.104   0.107
  0.120   0.125   0.126   0.136   0.140   0.147   0.149   0.157
  0.162   0.166   0.169   0.178   0.181   0.186   0.190   0.190
  0.197   0.206   0.213   0.222   0.225   0.230   0.235   0.246
  0.248   0.251   0.254   0.266   0.267   0.280   0.282   0.288
  0.294   0.296   0.299   0.309   0.317   0.320   0.323   0.327
  0.331   0.338   0.347   0.351   0.355   0.366   0.369   0.372
  0.375   0.381   0.385   0.394   0.396   0.400   0.406   0.408
  0.419   0.423   0.425   0.432   0.432   0.438   0.444   0.452
  0.455   0.460   0.465   0.469   0.481   0.482   0.490   0.492
  0.502   0.504   0.511   0.516   0.520   0.523   0.529   0.535
  0.538   0.541   0.546   0.553   0.554   0.563   0.567   0.571
  0.577   0.581   0.584   0.593   0.600   0.602   0.605   0.613
  0.614   0.621   0.623   0.633   0.638   0.638   0.644   0.650
  0.657   0.666   0.671   0.673   0.682   0.684   0.696   0.707
  0.714   0.722   0.723   0.728   0.737   0.748   0.754   0.759
  0.764   0.767   0.777   0.779   0.785   0.789   0.804   0.811
  0.813   0.816   0.819   0.827   0.829   0.835   0.845   0.846
  0.850   0.857   0.861   0.861   0.871   0.873   0.886   0.893
  0.900   0.909   0.910   0.919   0.937   0.944   0.947   0.953
  0.962   0.979   0.983   0.988   0.997   1.011   1.022   1.023
  1.024   1.043   1.057   1.060   1.071   1.073   1.085   1.097
  1.100   1.118   1.128   1.134   1.156   1.170   1.178   1.180
  1.191   1.204   1.207   1.215   1.229   1.235   1.241   1.259
  1.261   1.289   1.297   1.303   1.327   1.344   1.346   1.360
  1.380   1.402   1.416   1.427   1.446   1.457   1.458   1.472
  1.486   1.500   1.510   1.533   1.554   1.561   1.586   1.606
  1.619   1.644   1.676   1.678   1.690   1.715   1.725   1.765
  1.779   1.801   1.849   1.858   1.865   1.876   1.903   1.931
  1.936   1.941   1.960   1.966   1.973   1.977   1.993   1.998
  2.002   2.019   2.028   2.040   2.046   2.057   2.058   2.064
  2.073   2.110   2.120   2.130   2.147   2.179   2.198   2.216
  2.223   2.237   2.266   2.270   2.274   2.281   2.293   2.314
  2.320   2.325   2.340   2.367   2.381   2.385   2.400   2.418
  2.432   2.455   2.470   2.492   2.500   2.518   2.533   2.557
  2.561   2.575   2.585   2.615   2.636   2.656   2.678   2.689
  2.701   2.724   2.739   2.754   2.767   2.793   2.804   2.843
  2.865   2.885   2.902   2.916   2.918   2.941   2.966   2.979
  2.986   3.014   3.019   3.030   3.031   3.045   3.054   3.057
  3.071   3.100   3.115   3.125   3.150   3.159   3.168   3.205
[...]
 O          0.036 -0.087  0.014    0.034 -0.053  0.030   -0.030  0.013  0.026
 O          0.022 -0.006  0.034    0.011 -0.009  0.013   -0.019 -0.011  0.012
 O          0.000  0.026 -0.007    0.003  0.017  0.006    0.000  0.000  0.004
 H         -0.054 -0.012 -0.105   -0.026  0.009 -0.137    0.086  0.013  0.028
 O          0.000 -0.000  0.000   -0.000  0.000  0.000    0.000  0.000 -0.001
 H         -0.006  0.003 -0.007    0.000 -0.005 -0.001    0.009 -0.009  0.012
 O          0.000  0.000 -0.000   -0.000  0.000  0.000   -0.001  0.000  0.000
 TransDip  -0.163  0.279 -0.032   -0.257  0.178 -0.211    0.197  0.014 -0.121

 Mode:                37                     38                     39
 Frequency:      1294.89                1315.72                1358.23
 Force Cnst:      2.2584                 1.1953                 1.1738
 Red. Mass:       2.2861                 1.1719                 1.0800
 IR Active:          YES                    YES                    YES
 IR Intens:      134.518                 29.502                 48.960
 Raman Active:       YES                    YES                    YES
               X      Y      Z        X      Y      Z        X      Y      Z
 C          0.012  0.092 -0.110    0.048  0.020  0.026   -0.000 -0.001  0.003
 C          0.020  0.032 -0.022    0.029  0.003  0.011   -0.000 -0.001  0.002
 O          0.004 -0.052  0.028   -0.005  0.005 -0.004   -0.000  0.001 -0.001
 O         -0.006  0.006  0.004   -0.003 -0.001 -0.002    0.000 -0.001 -0.000
 C         -0.029  0.023 -0.059   -0.040 -0.025 -0.016   -0.000  0.002 -0.003
 H          0.002 -0.390  0.599    0.022 -0.339  0.282   -0.000  0.002 -0.008
 H         -0.062 -0.150  0.311   -0.055  0.345 -0.360    0.002  0.006 -0.009
 C          0.042 -0.128  0.208   -0.073  0.014 -0.031   -0.000  0.001 -0.003
 H         -0.014  0.003  0.025   -0.028  0.365 -0.348    0.000 -0.003  0.009
 H          0.076 -0.169  0.109    0.074 -0.355  0.353   -0.002 -0.007  0.012
 C          0.004  0.026 -0.071    0.004 -0.000  0.013   -0.002 -0.000  0.002
 H         -0.099  0.050  0.172    0.069  0.002 -0.056    0.004 -0.000 -0.007
 H          0.150 -0.054 -0.049    0.028  0.004  0.011    0.006  0.001  0.003
 H         -0.024 -0.111  0.174    0.081 -0.003 -0.061    0.006  0.002 -0.010
 O         -0.024  0.074 -0.034    0.014 -0.019  0.007   -0.000 -0.000  0.001
 O         -0.007  0.034 -0.038    0.007 -0.007  0.009   -0.001  0.001  0.001
 O         -0.007 -0.042 -0.022    0.002  0.011  0.004    0.000 -0.006  0.000
 H          0.013 -0.009  0.306   -0.023  0.005 -0.093    0.043 -0.002  0.004
 O         -0.000 -0.001  0.000    0.000  0.000  0.000   -0.024 -0.027  0.040
 H         -0.003  0.018 -0.006   -0.000 -0.007 -0.000   -0.095  0.926 -0.354
 O          0.001 -0.001 -0.000   -0.000  0.000  0.000    0.028 -0.028 -0.018
 TransDip   0.093 -0.029  0.358   -0.114 -0.004 -0.131   -0.025  0.218 -0.045

 Mode:                40                     41                     42
 Frequency:      1377.24                1388.66                1434.03
 Force Cnst:      2.3305                 1.5417                 4.0792
 Red. Mass:       2.0854                 1.3569                 3.3667
 IR Active:          YES                    YES                    YES
 IR Intens:      192.486                 56.352                304.445
 Raman Active:       YES                    YES                    YES
               X      Y      Z        X      Y      Z        X      Y      Z
 C          0.007  0.055 -0.113    0.005  0.003 -0.006    0.045 -0.003 -0.150
 C          0.017  0.046 -0.101   -0.003 -0.000  0.003   -0.065 -0.059  0.320
 O          0.011 -0.077  0.041    0.000  0.001 -0.000   -0.021  0.142 -0.078
 O         -0.020  0.037  0.033    0.001 -0.001 -0.001    0.062 -0.114 -0.110
 C         -0.011 -0.095  0.180    0.012 -0.015  0.010   -0.016  0.003  0.052
 H          0.023 -0.076  0.387    0.005  0.014 -0.002    0.133  0.342  0.460
 H         -0.137 -0.162  0.334   -0.020  0.003  0.016   -0.525  0.054  0.254
 C          0.007  0.050 -0.087   -0.062  0.012  0.013    0.007  0.001 -0.025
 H         -0.037  0.188 -0.428    0.008  0.081 -0.122   -0.052 -0.097 -0.151
 H          0.097  0.269 -0.443   -0.024  0.019 -0.007    0.165  0.001 -0.107
 C         -0.015 -0.015  0.031    0.159 -0.002 -0.038   -0.005 -0.012  0.011
 H          0.038 -0.023 -0.077   -0.470 -0.191  0.172   -0.043 -0.020  0.016
 H          0.014  0.082  0.039   -0.538 -0.026 -0.121    0.039  0.124  0.029
 H          0.037  0.067 -0.148   -0.465  0.195  0.305    0.030  0.060 -0.131
 O          0.001 -0.015 -0.002    0.006 -0.006 -0.002    0.001 -0.004  0.005
 O          0.001 -0.020  0.013    0.004 -0.004  0.002   -0.001 -0.002  0.001
 O          0.004  0.023  0.016    0.001  0.006  0.004    0.001  0.002  0.003
 H         -0.026  0.005 -0.223   -0.019  0.002 -0.076   -0.002  0.001 -0.017
 O         -0.001 -0.001  0.001   -0.001 -0.001  0.001    0.000  0.000  0.000
 H         -0.004  0.029 -0.013    0.005  0.020 -0.002   -0.002 -0.001 -0.001
 O          0.001 -0.001 -0.001    0.000 -0.001 -0.000   -0.000 -0.000  0.000
 TransDip  -0.019  0.192 -0.400   -0.240  0.001  0.002   -0.125 -0.086  0.538

 Mode:                43                     44                     45
 Frequency:      1453.06                1465.46                1466.93
 Force Cnst:      1.6713                 1.3635                 1.3987
 Red. Mass:       1.3435                 1.0776                 1.1032
 IR Active:          YES                    YES                    YES
 IR Intens:       44.372                  8.781                111.607
 Raman Active:       YES                    YES                    YES
               X      Y      Z        X      Y      Z        X      Y      Z
 C          0.029 -0.091  0.037    0.011 -0.015 -0.019   -0.012  0.021  0.009
 C          0.016  0.033 -0.093   -0.002  0.009  0.005   -0.001 -0.015  0.018
 O          0.007 -0.045  0.023    0.000 -0.003  0.001   -0.002  0.014 -0.007
 O         -0.015  0.025  0.026    0.002 -0.004 -0.003    0.002 -0.002 -0.004
 C         -0.013  0.053 -0.031    0.017 -0.036 -0.015   -0.031  0.048  0.033
 H          0.120  0.562  0.218    0.041  0.143  0.127   -0.042 -0.175 -0.102
 H         -0.559  0.291 -0.003   -0.180  0.058  0.040    0.193 -0.077 -0.030
 C         -0.009  0.001  0.012    0.020 -0.003 -0.013    0.015 -0.005 -0.005
 H         -0.060 -0.288 -0.083    0.079  0.304  0.191   -0.116 -0.425 -0.247
 H          0.266 -0.164  0.018   -0.334  0.138  0.064    0.471 -0.173 -0.118
 C          0.004 -0.000 -0.006   -0.020  0.038 -0.018   -0.010  0.020 -0.023
 H          0.002  0.010  0.030    0.303  0.160 -0.014    0.187  0.136  0.113
 H         -0.013  0.005 -0.006   -0.201 -0.381 -0.082   -0.182 -0.166 -0.059
 H         -0.000 -0.015  0.023    0.052 -0.308  0.428    0.067 -0.238  0.292
 O          0.002 -0.001  0.002   -0.007  0.001 -0.004   -0.007  0.000 -0.006
 O          0.000  0.003 -0.002    0.001 -0.011  0.008    0.001 -0.016  0.007
 O         -0.000 -0.004 -0.003    0.002  0.016  0.011    0.003  0.021  0.016
 H          0.009 -0.002  0.050   -0.048  0.014 -0.233   -0.071  0.018 -0.318
 O          0.000  0.000 -0.000   -0.001 -0.000  0.000   -0.001 -0.000  0.000
 H          0.000 -0.001  0.001    0.006  0.011  0.001    0.004  0.012 -0.001
 O         -0.000  0.000  0.000    0.000 -0.000 -0.000    0.000 -0.000 -0.000
 TransDip  -0.002  0.158 -0.144   -0.052 -0.069 -0.039    0.021 -0.271 -0.201

 Mode:                46                     47                     48
 Frequency:      1476.21                1501.24                1580.08
 Force Cnst:      1.3477                 1.6986                14.6866
 Red. Mass:       1.0497                 1.2792                 9.9841
 IR Active:          YES                    YES                    YES
 IR Intens:        1.578                304.026               1235.806
 Raman Active:       YES                    YES                    YES
               X      Y      Z        X      Y      Z        X      Y      Z
 C          0.003 -0.003  0.001   -0.002  0.009 -0.005    0.010 -0.057  0.023
 C          0.000 -0.000 -0.007   -0.001 -0.002  0.005   -0.241  0.712  0.127
 O          0.001 -0.002  0.001   -0.000  0.002 -0.001    0.050 -0.243  0.078
 O         -0.001  0.003  0.003    0.001 -0.001 -0.002    0.115 -0.252 -0.159
 C          0.007 -0.008 -0.001   -0.001 -0.012  0.037   -0.012  0.011  0.016
 H          0.004  0.028 -0.024   -0.008 -0.043 -0.003   -0.023 -0.065 -0.297
 H         -0.014  0.007  0.001    0.037 -0.023  0.012    0.220  0.065 -0.307
 C         -0.006 -0.015 -0.020   -0.043  0.076 -0.077    0.006 -0.005 -0.009
 H          0.022  0.090  0.039   -0.021 -0.025 -0.113   -0.029 -0.019 -0.021
 H         -0.096  0.028  0.041    0.074  0.001 -0.047    0.045 -0.002 -0.000
 C         -0.004 -0.036 -0.039    0.002  0.003 -0.006   -0.000 -0.000 -0.000
 H          0.007  0.197  0.662    0.201  0.103  0.054   -0.009  0.004  0.020
 H         -0.216  0.559  0.010   -0.192 -0.122 -0.045   -0.009  0.015  0.001
 H          0.295 -0.207 -0.065    0.039 -0.168  0.220    0.007 -0.004 -0.004
 O          0.000  0.001  0.001    0.021 -0.017  0.030   -0.000 -0.000  0.002
 O         -0.000 -0.003  0.002   -0.005  0.032 -0.015   -0.000 -0.001  0.000
 O          0.000  0.004  0.003   -0.006 -0.051 -0.035    0.000  0.001  0.001
 H         -0.006  0.007 -0.053    0.224 -0.054  0.845   -0.002  0.002 -0.011
 O         -0.000  0.000  0.000    0.001  0.000 -0.001   -0.000 -0.000  0.000
 H         -0.001  0.002 -0.003    0.000 -0.012  0.009    0.000  0.001 -0.000
 O          0.000 -0.000 -0.000   -0.000  0.000  0.000   -0.000 -0.000  0.000
 TransDip  -0.017  0.031  0.018    0.066  0.390  0.394   -0.342  1.066  0.123

 Mode:                49                     50                     51
 Frequency:      2773.10                3046.14                3056.72
 Force Cnst:      4.8200                 5.6691                 5.8326
 Red. Mass:       1.0638                 1.0370                 1.0595
 IR Active:          YES                    YES                    YES
 IR Intens:      865.527                 29.982                 27.726
 Raman Active:       YES                    YES                    YES
               X      Y      Z        X      Y      Z        X      Y      Z
 C         -0.000 -0.000  0.000   -0.008  0.005  0.003    0.009 -0.012 -0.007
 C          0.000 -0.000 -0.000   -0.000  0.000 -0.000   -0.000  0.000  0.001
 O         -0.000 -0.000  0.000    0.000 -0.000  0.000    0.000  0.000 -0.000
 O          0.000  0.000  0.000   -0.000  0.000  0.000    0.000 -0.000 -0.000
 C         -0.000 -0.003  0.000    0.006 -0.009 -0.006   -0.028  0.048  0.035
 H         -0.002  0.000 -0.000    0.121 -0.015 -0.008   -0.177  0.022  0.012
 H          0.002  0.003  0.003   -0.026 -0.042 -0.029    0.067  0.112  0.076
 C         -0.001  0.011 -0.001   -0.002  0.000  0.001   -0.001  0.001 -0.002
 H         -0.001  0.000 -0.001   -0.133  0.016  0.011    0.650 -0.079 -0.065
 H          0.004  0.005 -0.004    0.060  0.093  0.065   -0.319 -0.491 -0.342
 C          0.000 -0.002 -0.000    0.048  0.003 -0.004    0.011 -0.000 -0.001
 H          0.002  0.005 -0.004   -0.190  0.482 -0.152   -0.044  0.112 -0.036
 H          0.001  0.000  0.001   -0.053 -0.056  0.498   -0.014 -0.013  0.113
 H          0.000  0.005  0.004   -0.310 -0.461 -0.300   -0.066 -0.099 -0.065
 O          0.004 -0.001  0.008    0.000 -0.000 -0.000    0.000 -0.001  0.000
 O         -0.000 -0.008  0.002    0.000  0.000 -0.000    0.000 -0.000 -0.000
 O          0.001 -0.058 -0.010   -0.000 -0.000  0.000   -0.000 -0.000  0.000
 H         -0.082  0.994  0.008   -0.000 -0.000 -0.001   -0.000  0.003  0.000
 O          0.002 -0.001 -0.002    0.000 -0.000 -0.000    0.000 -0.000 -0.000
 H         -0.020  0.007  0.018   -0.001 -0.000  0.000   -0.001  0.000  0.001
 O         -0.000  0.000  0.000   -0.000 -0.000  0.000    0.000 -0.000  0.000
 TransDip   0.069  0.832  0.437    0.175 -0.002  0.002   -0.035  0.139  0.088

 Mode:                52                     53                     54
 Frequency:      3061.75                3091.84                3111.06
 Force Cnst:      5.8641                 6.1976                 6.2900
 Red. Mass:       1.0617                 1.1004                 1.1030
 IR Active:          YES                    YES                    YES
 IR Intens:       55.670                  8.334                 95.206
 Raman Active:       YES                    YES                    YES
               X      Y      Z        X      Y      Z        X      Y      Z
 C         -0.044  0.042  0.028    0.047  0.030  0.021   -0.056 -0.031 -0.022
 C         -0.001  0.002 -0.001    0.001  0.001 -0.000   -0.001 -0.001  0.000
 O          0.000 -0.000  0.000   -0.000 -0.000 -0.000    0.000  0.000  0.000
 O          0.000 -0.000  0.000    0.000 -0.000 -0.000    0.000  0.000 -0.000
 C         -0.003  0.014  0.011   -0.063 -0.024 -0.016   -0.056 -0.023 -0.015
 H          0.773 -0.096 -0.058   -0.338  0.051  0.036    0.435 -0.065 -0.040
 H         -0.249 -0.408 -0.279   -0.236 -0.420 -0.293    0.245  0.439  0.302
 C         -0.000  0.001  0.000   -0.002 -0.000 -0.000   -0.001 -0.001 -0.000
 H          0.141 -0.016 -0.013    0.537 -0.077 -0.065    0.462 -0.067 -0.053
 H         -0.100 -0.157 -0.111    0.221  0.366  0.260    0.207  0.342  0.238
 C         -0.004 -0.006  0.001    0.002  0.008  0.001   -0.000 -0.011  0.004
 H         -0.003  0.003  0.001    0.019 -0.042  0.013   -0.034  0.080 -0.024
 H          0.007  0.004 -0.054   -0.001  0.002  0.006    0.007  0.004 -0.056
 H          0.044  0.065  0.043   -0.034 -0.049 -0.033    0.031  0.043  0.030
 O          0.000  0.000 -0.000    0.000  0.000 -0.000    0.000  0.000 -0.000
 O         -0.000 -0.000  0.000    0.000  0.000  0.000    0.000  0.000 -0.000
 O          0.000 -0.000 -0.000    0.000 -0.000  0.000    0.000  0.000  0.000
 H          0.000  0.004  0.001   -0.000  0.000  0.001   -0.000 -0.005 -0.001
 O          0.000 -0.000 -0.000   -0.000 -0.000  0.000   -0.000  0.000  0.000
 H         -0.000  0.000  0.000   -0.000 -0.000 -0.000    0.000 -0.000 -0.001
 O         -0.000  0.000  0.000   -0.000 -0.000 -0.000   -0.000 -0.000  0.000
 TransDip  -0.141  0.185  0.054   -0.088  0.029  0.006   -0.262 -0.157 -0.066

 Mode:                55                     56                     57
 Frequency:      3120.68                3132.35                3643.20
 Force Cnst:      6.3214                 6.3744                 8.3654
 Red. Mass:       1.1017                 1.1027                 1.0697
 IR Active:          YES                    YES                    YES
 IR Intens:       55.840                 48.227                594.611
 Raman Active:       YES                    YES                    YES
               X      Y      Z        X      Y      Z        X      Y      Z
 C          0.011  0.003  0.002   -0.008 -0.002 -0.002    0.000 -0.000 -0.000
 C          0.000  0.000 -0.000   -0.000 -0.000  0.000   -0.000 -0.000  0.000
 O         -0.000 -0.000  0.000    0.000  0.000 -0.000    0.000  0.000 -0.000
 O         -0.000  0.000  0.000    0.000 -0.000 -0.000   -0.000  0.000 -0.000
 C          0.000 -0.001 -0.001   -0.004 -0.001 -0.000   -0.000 -0.000  0.000
 H         -0.105  0.014  0.010    0.075 -0.011 -0.007   -0.000  0.000  0.000
 H         -0.026 -0.048 -0.034    0.019  0.036  0.025   -0.000 -0.000 -0.000
 C         -0.001 -0.002 -0.001    0.000  0.001 -0.002    0.000  0.001  0.000
 H         -0.009  0.002  0.000    0.035 -0.005 -0.004    0.000 -0.000  0.000
 H          0.008  0.013  0.010    0.009  0.016  0.011   -0.000 -0.001 -0.001
 C         -0.009 -0.082 -0.039   -0.015  0.040 -0.082    0.000  0.000  0.000
 H         -0.221  0.519 -0.176    0.210 -0.512  0.151   -0.000  0.000 -0.000
 H         -0.040 -0.050  0.299   -0.101 -0.083  0.784    0.001  0.000 -0.000
 H          0.370  0.526  0.345    0.072  0.116  0.057   -0.001 -0.001 -0.001
 O          0.000  0.000  0.000   -0.000 -0.000  0.000   -0.000 -0.000 -0.000
 O         -0.000  0.000  0.000    0.000 -0.000  0.000   -0.000 -0.000 -0.000
 O         -0.000  0.000  0.000   -0.000 -0.000  0.000    0.001 -0.002 -0.000
 H          0.001 -0.008 -0.002    0.002  0.002  0.001    0.002  0.029  0.005
 O         -0.000 -0.000  0.000   -0.000 -0.000 -0.000   -0.045  0.016  0.043
 H          0.001 -0.000 -0.001    0.001 -0.000 -0.000    0.692 -0.230 -0.680
 O          0.000  0.000 -0.000   -0.000  0.000 -0.000    0.000 -0.001 -0.000
 TransDip   0.008 -0.221 -0.091   -0.072  0.113 -0.178    0.486 -0.286 -0.540

 STANDARD THERMODYNAMIC QUANTITIES AT   298.15 K  AND     1.00 ATM

   This Molecule has  0 Imaginary Frequencies
   Zero point vibrational energy:       93.753 kcal/mol

   Atom    1 Element C  Has Mass   12.00000
   Atom    2 Element C  Has Mass   12.00000
   Atom    3 Element O  Has Mass   15.99491
   Atom    4 Element O  Has Mass   15.99491
   Atom    5 Element C  Has Mass   12.00000
   Atom    6 Element H  Has Mass    1.00783
   Atom    7 Element H  Has Mass    1.00783
   Atom    8 Element C  Has Mass   12.00000
   Atom    9 Element H  Has Mass    1.00783
   Atom   10 Element H  Has Mass    1.00783
   Atom   11 Element C  Has Mass   12.00000
   Atom   12 Element H  Has Mass    1.00783
   Atom   13 Element H  Has Mass    1.00783
   Atom   14 Element H  Has Mass    1.00783
   Atom   15 Element O  Has Mass   15.99491
   Atom   16 Element O  Has Mass   15.99491
   Atom   17 Element O  Has Mass   15.99491
   Atom   18 Element H  Has Mass    1.00783
   Atom   19 Element O  Has Mass   15.99491
   Atom   20 Element H  Has Mass    1.00783
   Atom   21 Element O  Has Mass   15.99491
   Molecular Mass:   181.034840 amu
   Principal axes and moments of inertia in amu*Bohr^2:
                             1           2           3
    Eigenvalues --     1205.86330  5051.63244  5667.19813
          X              -0.14232    -0.35367     0.92448
          Y              -0.04712     0.93535     0.35057
          Z               0.98870    -0.00634     0.14978
   Rotational Symmetry Number is   1
   The Molecule is an Asymmetric Top
   Translational Enthalpy:        0.889 kcal/mol
   Rotational Enthalpy:           0.889 kcal/mol
   Vibrational Enthalpy:        101.001 kcal/mol
   gas constant (RT):             0.592 kcal/mol
   Translational Entropy:        41.487  cal/mol.K
   Rotational Entropy:           31.912  cal/mol.K
   Vibrational Entropy:          50.852  cal/mol.K

   Total Enthalpy:              103.371 kcal/mol
   Total Entropy:               124.252  cal/mol.K
Archival summary:
1\1\g5-12\FREQ\ProcedureUnspecified\BasisUnspecified\759(3-,1)\leeping\SatMar2111:05:332020SatMar2111:05:332020\0\\#,FREQ,ProcedureUnspecified,BasisUnspecified,\\-3,1\O\O,1,1.43197\H,2,1.02657,1,94.7479\C,1,1.52416,2,104.757,3,21.9519,0\O,4,1.34298,1,107.604,2,-31.1578,0\C,4,1.53334,1,103.414,2,-151.274,0\H,6,1.09537,4,106.722,1,67.7578,0\H,6,1.09603,4,106.746,1,-178.258,0\C,6,1.52503,4,116.546,1,-55.4371,0\H,9,1.09509,6,110.722,4,56.899,0\H,9,1.09644,6,110.767,4,-60.2276,0\C,4,1.53367,1,106.057,2,89.5631,0\H,12,1.09381,4,108.969,1,-64.2723,0\H,12,1.09407,4,112.451,1,56.2531,0\H,12,1.09537,4,109.434,1,177.146,0\C,9,1.53816,6,115.512,4,178.999,0\O,16,1.25742,9,118.974,6,6.95999,0\O,16,1.26257,9,115.894,6,-173.689,0\H,2,1.92449,1,109.87,3,-114.066,0\O,19,0.972462,2,176.253,1,-118.352,0\O,20,1.47206,19,102.114,2,74.1491,0\\\@

 Total job time:  81799.68s(wall), 1101837.72s(cpu) 
 Sat Mar 21 11:05:33 2020

        *************************************************************
        *                                                           *
        *  Thank you very much for using Q-Chem.  Have a nice day.  *
        *                                                           *
        *************************************************************


