18   
From 1-reactant-grad.out: Frame 1 / 1, Energy=    -571.7236743619
C        2.0180544683    1.3645670771    0.6784811201
O        3.2572624884    1.5365453110    0.7463634285
O        1.1875269369    1.8272142396    1.5238183855
C        1.4537732212    0.5605396690   -0.4945735461
H        0.9278384990    1.2544173883   -1.1599728159
H        2.2994635050    0.1586303843   -1.0572986615
C        0.4829065626   -0.5635334941   -0.0917903548
H        0.7910484535   -1.4795459955   -0.6091382651
H        0.5626866997   -0.7718816999    0.9815545563
C       -1.0152995660   -0.3749828720   -0.4691798859
O       -1.2177887446    0.0677833919   -1.6983767772
H       -0.3153991154    1.8211219896    0.9319915843
O       -1.6617198282    0.4955835611    0.5927553532
O       -1.2203429595    1.8503508738    0.5031693411
C       -1.7527009358   -1.6923148698   -0.1438893821
H       -2.8259442755   -1.5601660144   -0.3120671839
H       -1.3883368256   -2.4703204194   -0.8210839270
H       -1.5915481993   -2.0242807073    0.8876337074
