
Running Job 1 of 1 qc-3-tshess.in
qchem qc-3-tshess.in_46018.0 ./qc-3-tshess.d/ 1
/home/leeping/opt/qchem/5.0.2-openmp/exe/qcprog.exe_s qc-3-tshess.in_46018.0 ./qc-3-tshess.d/
Check license passed

                  Welcome to Q-Chem
     A Quantum Leap Into The Future Of Chemistry


 Q-Chem 5.0, Q-Chem, Inc., Pleasanton, CA (2017)

 Yihan Shao,  Zhengting Gan,  E. Epifanovsky,  A. T. B. Gilbert,  M. Wormit,  
 J. Kussmann,  A. W. Lange,  A. Behn,  Jia Deng,  Xintian Feng,  D. Ghosh,  
 M. Goldey,  P. R. Horn,  L. D. Jacobson,  I. Kaliman,  T. Kus,  A. Landau,  
 Jie Liu,  E. I. Proynov,  R. M. Richard,  R. P. Steele,  E. J. Sundstrom,  
 H. L. Woodcock III,  P. M. Zimmerman,  D. Zuev,  B. Albrecht,  E. Alguire,  
 S. A. Baeppler,  D. Barton,  Z. Benda,  Y. A. Bernard,  E. J. Berquist,  
 K. B. Bravaya,  H. Burton,  D. Casanova,  Chun-Min Chang,  Yunqing Chen,  
 A. Chien,  K. D. Closser,  M. P. Coons,  S. Dasgupta,  A. L. Dempwolff,  
 M. Diedenhofen,  Hainam Do,  R. G. Edgar,  Po-Tung Fang,  S. Fatehi,  
 Qingguo Feng,  J. Fosso-Tande,  Qinghui Ge,  A. Ghysels,  G. Gidofalvi,  
 J. Gomes,  J. Gonthier,  A. Gunina,  M. W. D. Hanson-Heine,  
 P. H. P. Harbach,  A. W. Hauser,  J. E. Herr,  E. G. Hohenstein,  
 Z. C. Holden,  Kerwin Hui,  T.-C. Jagau,  Hyunjun Ji,  B. Kaduk,  
 K. Khistyaev,  Jaehoon Kim,  P. Klunzinger,  K. Koh,  D. Kosenkov,  
 L. Koulias,  T. Kowalczyk,  C. M. Krauter,  A. Kunitsa,  Ka Un Lao,  
 A. Laurent,  K. V. Lawler,  Joonho Lee,  D. Lefrancois,  S. Lehtola,  
 D. S. Levine,  Yi-Pei Li,  You-Sheng Lin,  Fenglai Liu,  E. Livshits,  
 A. Luenser,  P. Manohar,  E. Mansoor,  S. F. Manzer,  Shan-Ping Mao,  
 Yuezhi Mao,  N. Mardirossian,  A. V. Marenich,  T. Markovich,  
 L. A. Martinez-Martinez,  S. A. Maurer,  N. J. Mayhall,  S. C. McKenzie,  
 J.-M. Mewes,  A. F. Morrison,  J. W. Mullinax,  K. Nanda,  
 T. S. Nguyen-Beck,  R. Olivares-Amaya,  J. A. Parkhill,  T. M. Perrine,  
 F. Plasser,  S. Prager,  A. Prociuk,  E. Ramos,  D. R. Rehn,  F. Rob,  
 M. Schneider,  N. Sergueev,  S. M. Sharada,  S. Sharma,  D. W. Small,  
 T. Stauch,  T. Stein,  Yu-Chuan Su,  A. J. W. Thom,  A. Tkatchenko,  
 T. Tsuchimochi,  L. Vogt,  O. Vydrov,  M. A. Watson,  J. Wenzel,  
 M. de Wergifosse,  T. A. Wesolowski,  A. White,  J. Witte,  A. Yamada,  
 Jun Yang,  K. Yao,  S. Yeganeh,  S. R. Yost,  Zhi-Qiang You,  A. Zech,  
 Igor Ying Zhang,  Xing Zhang,  Yan Zhao,  Ying Zhu,  B. R. Brooks,  
 G. K. L. Chan,  C. J. Cramer,  M. S. Gordon,  W. J. Hehre,  A. Klamt,  
 M. W. Schmidt,  C. D. Sherrill,  D. G. Truhlar,  A. Aspuru-Guzik,  R. Baer,  
 A. T. Bell,  N. A. Besley,  Jeng-Da Chai,  R. A. DiStasio Jr.,  A. Dreuw,  
 B. D. Dunietz,  T. R. Furlani,  Chao-Ping Hsu,  Yousung Jung,  Jing Kong,  
 D. S. Lambrecht,  WanZhen Liang,  C. Ochsenfeld,  V. A. Rassolov,  
 L. V. Slipchenko,  J. E. Subotnik,  T. Van Voorhis,  J. M. Herbert,  
 A. I. Krylov,  P. M. W. Gill,  M. Head-Gordon

 Contributors to earlier versions of Q-Chem not listed above: 
 R. D. Adamson,  B. Austin,  J. Baker,  G. J. O. Beran,  K. Brandhorst,  
 S. T. Brown,  E. F. C. Byrd,  A. K. Chakraborty,  C.-L. Cheng,  
 Siu Hung Chien,  D. M. Chipman,  D. L. Crittenden,  H. Dachsel,  
 R. J. Doerksen,  A. D. Dutoi,  L. Fusti-Molnar,  W. A. Goddard III,  
 A. Golubeva-Zadorozhnaya,  S. R. Gwaltney,  G. Hawkins,  A. Heyden,  
 S. Hirata,  G. Kedziora,  F. J. Keil,  C. Kelley,  Jihan Kim,  R. A. King,  
 R. Z. Khaliullin,  P. P. Korambath,  W. Kurlancheek,  A. M. Lee,  M. S. Lee,  
 S. V. Levchenko,  Ching Yeh Lin,  D. Liotard,  R. C. Lochan,  I. Lotan,  
 P. E. Maslen,  N. Nair,  D. P. O'Neill,  D. Neuhauser,  E. Neuscamman,  
 C. M. Oana,  R. Olson,  B. Peters,  R. Peverati,  P. A. Pieniazek,  
 Y. M. Rhee,  J. Ritchie,  M. A. Rohrdanz,  E. Rosta,  N. J. Russ,  
 H. F. Schaefer III,  N. E. Schultz,  N. Shenvi,  A. C. Simmonett,  A. Sodt,  
 D. Stuck,  K. S. Thanthiriwatte,  V. Vanovschi,  Tao Wang,  A. Warshel,  
 C. F. Williams,  Q. Wu,  X. Xu,  W. Zhang

 Please cite Q-Chem as follows:
 Y. Shao et al., Mol. Phys. 113, 184-215 (2015)
 DOI: 10.1080/00268976.2014.952696

 Q-Chem 5.0.2 for Intel X86 EM64T Linux

 Parts of Q-Chem use Armadillo 5.200.1 (Boston Tea Smuggler).
 http://arma.sourceforge.net/

 Q-Chem begins on Sat May 19 11:12:10 2018  

Host: 
0

     Scratch files written to ./qc-3-tshess.d//
 Dec517 15110_ 26548  26544 5633   
Processing $rem in /home/leeping/opt/qchem/5.0.2-openmp/config/preferences.
 MEM_STATIC 2000
 MEM_TOTAL  8000
 SYMMETRY   OFF
 SYM_IGNORE TRUE 
Symmetry turned off for PCM/SM12/SMD calculation

Checking the input file for inconsistencies... 	...done.

--------------------------------------------------------------
User input:
--------------------------------------------------------------
$molecule
-2 1
C        1.6714554994    1.7855928409    0.5922311814
O        2.6583202137    2.5594515595    0.3733577296
O        0.8193864905    2.0470765491    1.5353996997
C        1.4571169369    0.6070767591   -0.2395514131
H        0.3192956627    0.7628346426   -1.2154379317
H        2.3644334065    0.2962467814   -0.7610337968
C        0.6083479639   -0.5291574235    0.2993716226
H        1.0473430416   -1.4942533882    0.0201157988
H        0.4964348411   -0.5279284569    1.3900486687
C       -0.8157799913   -0.4670131120   -0.3570348236
O       -0.7074642270    0.3072071605   -1.4783229748
H       -0.5924488607    1.5477972536    1.1721459061
O       -1.7929893681    0.0722738648    0.5908059797
O       -1.5633506278    1.4545615271    0.8621673959
C       -1.3913540896   -1.8476648942   -0.6393272667
H       -2.3961903339   -1.7676581855   -1.0644564240
H       -0.7433536098   -2.3588874664   -1.3557952510
H       -1.4392046979   -2.4475550611    0.2753133913
$end

$rem
jobtype               freq
method                wb97x-v
basis                 def2-tzvpd
symmetry              off
sym_ignore            true
incdft                false
incfock               0
!scf_algorithm        diis_gdm
scf_convergence       8
thresh                14
!purecart             112
max_scf_cycles        1000
geom_opt_max_cycles   500
geom_opt_dmax         100
geom_opt_tol_gradient 10
solvent_method        pcm
ideriv                1
rpath_tol_displacement 1000
rpath_max_cycles      100
rpath_direction       1
!scf_guess            read
scf_guess             read
$end

$pcm
theory              cosmo
method              iswig
Radii               bondi
vdwScale            1.20
hpoints             110
heavypoints         110
$end

$solvent
dielectric 78.400000
$end

--------------------------------------------------------------
 ----------------------------------------------------------------
             Standard Nuclear Orientation (Angstroms)
    I     Atom           X                Y                Z
 ----------------------------------------------------------------
    1      C       1.6714554994     1.7855928409     0.5922311814
    2      O       2.6583202137     2.5594515595     0.3733577296
    3      O       0.8193864905     2.0470765491     1.5353996997
    4      C       1.4571169369     0.6070767591    -0.2395514131
    5      H       0.3192956627     0.7628346426    -1.2154379317
    6      H       2.3644334065     0.2962467814    -0.7610337968
    7      C       0.6083479639    -0.5291574235     0.2993716226
    8      H       1.0473430416    -1.4942533882     0.0201157988
    9      H       0.4964348411    -0.5279284569     1.3900486687
   10      C      -0.8157799913    -0.4670131120    -0.3570348236
   11      O      -0.7074642270     0.3072071605    -1.4783229748
   12      H      -0.5924488607     1.5477972536     1.1721459061
   13      O      -1.7929893681     0.0722738648     0.5908059797
   14      O      -1.5633506278     1.4545615271     0.8621673959
   15      C      -1.3913540896    -1.8476648942    -0.6393272667
   16      H      -2.3961903339    -1.7676581855    -1.0644564240
   17      H      -0.7433536098    -2.3588874664    -1.3557952510
   18      H      -1.4392046979    -2.4475550611     0.2753133913
 ----------------------------------------------------------------
 Nuclear Repulsion Energy =   575.7418238944 hartrees
 There are       40 alpha and       40 beta electrons
 Requested basis set is def2-TZVPD
 There are 175 shells and 457 basis functions

 Total QAlloc Memory Limit   8000 MB
 Mega-Array Size      1956 MB
 MEM_STATIC part      2000 MB
 Discretize the solute cavity surface with Lebedev spheres
	Using 110 Lebedev grid points for each H atom
	Using 110 Lebedev grid points for other atoms
	Atomic van der Waals radii will be scaled by 1.20
 Remove points where switching function is < 1.0e-08
 Keep 999 surface tesserae and discard 981 interior tesserae
 Molecular Surface Area = 175.840 Angst**2
 A cutoff of  1.0D-14 yielded  14411 shell pairs
 There are     99385 function pairs (    126928 Cartesian)
 
 -------------------------------------------------------
 OpenMP Integral Computing Module                       
 Release: version 1.0, May 2013, Q-Chem Inc. Pittsburgh 
 -------------------------------------------------------
 Integral Job Info:
 Integral job number is                      11
 Integral operator is                         1
 short-range coefficients              16700000
 long-range coefficients              100000000
 Omega coefficients                         300
 if combine SR and LR in K                    1
 Integral screening is                        0
 Integral computing path is                   2
 max size of driver memory is            800000
 size of driver memory is                776718
 size of scratch memory is              4473992
 max col of scratch BK array              10000
 max len of scratch array in speh3          662
 max len of scratch index in speh4           32
 max int batch size is                      520
 min int batch size is                       52
 fixed nKL is                                52
 max L of basis functions is                  3
 order of int derivative is                   0
 number of shells is                        175
 number of basis is                         517
 number of cartesian basis is               517
 number of contracted shell pairs         14411
 number of primitive shell pairs          29447
 maxK2 (contraction) of shell pair           36
 max number of K2 of shell pair               1
 max number of CS2 of shell pair           2327
 max number of PS2 of shell pair           3360
 mem total for path MDJ                  800984
 -------------------------------------------------------
 Smallest overlap matrix eigenvalue = 2.32E-06
 Guess MOs from SCF MO coefficient file
 Reading MOs from coefficient file
 Reading MOs from coefficient file
 Long-range K will be added via erf
 Coulomb attenuation parameter = 0.3 bohr**(-1)
 A restricted hybrid HF-DFT SCF calculation will be
 performed using Pulay DIIS extrapolation
 Polarizable Continuum solvation model will be applied
 Exchange:     0.1670 Hartree-Fock + 1.0000 wB97X-V + LR-HF
 Correlation:  1.0000 wB97X-V
 Using SG-2 standard quadrature grid
 Nonlocal Correlation:  VV10 with C = 0.0100 and b = 6.00
 Grid used for NLC:  SG-1 standard quadrature
 SCF converges when DIIS error is below 1.0E-08
Using Q-Chem read-in guess as SCF_GUESS READ specified.

 using 16 threads for integral computing
 -------------------------------------------------------
 OpenMP Integral computing Module                
 Release: version 1.0, May 2013, Q-Chem Inc. Pittsburgh 
 -------------------------------------------------------
 using 16 threads for integral computing
 -------------------------------------------------------
 OpenMP Integral computing Module                
 Release: version 1.0, May 2013, Q-Chem Inc. Pittsburgh 
 -------------------------------------------------------
 -------------------------------------------------------
 OpenMP BLAS3 based DFT computing Module                
 Release: version 1.0, May 2013, Q-Chem Inc. Pittsburgh 
 -------------------------------------------------------
 -------------------------------------------------------
 OpenMP BLAS3 based DFT computing Module                
 Release: version 1.0, May 2013, Q-Chem Inc. Pittsburgh 
 -------------------------------------------------------
 -------------------------------------------------------
 OpenMP BLAS3 based DFT computing Module                
 Release: version 1.0, May 2013, Q-Chem Inc. Pittsburgh 
 -------------------------------------------------------
 ---------------------------------------
  Cycle       Energy         DIIS Error
 ---------------------------------------
    1    -571.3613798687      4.21E-04
    2    -571.6748850307      4.39E-04
    3    -571.6825313019      2.00E-04
    4    -571.6838048882      1.49E-04
    5    -571.6845337566      1.15E-04
    6    -571.6849530099      9.17E-05
    7    -571.6852582098      6.98E-05
    8    -571.6854121025      5.56E-05
    9    -571.6855325281      4.13E-05
   10    -571.6855956659      3.12E-05
   11    -571.6856342373      2.30E-05
   12    -571.6856551376      1.69E-05
   13    -571.6856643861      1.34E-05
   14    -571.6856701964      1.05E-05
   15    -571.6856733802      8.62E-06
   16    -571.6856757261      6.87E-06
   17    -571.6856797911      7.09E-09 Convergence criterion met
 ---------------------------------------

************** Final PCM Free Energy Summary **************
 G_electrostatic  =      -0.32429992 hartree =    -203.50127218 kcal/mol
 G_cavitation     =       0.00000000 hartree =       0.00000000 kcal/mol
 G_dispersion     =       0.00000000 hartree =       0.00000000 kcal/mol
 G_repulsion      =       0.00000000 hartree =       0.00000000 kcal/mol
 --------------------------------------------------
 Non-electrostatic Free Energy =       0.00000000 hartree =       0.00000000 kcal/mol
 Total                         =      -0.32429992 hartree =    -203.50127218 kcal/mol
 --------------------------------------------------
 SCF Energy (H0 + V/2)                       =    -571.68567979 
 Solute Internal Energy (H0)                 =    -571.36137987 
 Total Free Energy (H0 + V/2 + non-elec)     =    -571.68567979 hartree
                                             = -358738.17850399 kcal/mol
***********************************************************

 SCF time:  CPU 4617.79 s  wall 335.58 s
 SCF   energy in the final basis set = -571.68567979
 Total energy in the final basis set = -571.68567979
 
 --------------------------------------------------------------
 
                    Orbital Energies (a.u.)
 --------------------------------------------------------------
 
 Alpha MOs
 -- Occupied --
-19.233 -19.215 -19.154 -19.130 -19.121 -10.334 -10.322 -10.242
-10.234 -10.190  -1.215  -1.122  -1.105  -1.028  -0.978  -0.864
 -0.834  -0.737  -0.669  -0.613  -0.582  -0.578  -0.552  -0.541
 -0.514  -0.505  -0.490  -0.487  -0.473  -0.466  -0.444  -0.428
 -0.401  -0.378  -0.359  -0.340  -0.335  -0.326  -0.312  -0.258
 -- Virtual --
  0.063   0.077   0.082   0.084   0.103   0.107   0.113   0.118
  0.122   0.133   0.142   0.149   0.156   0.162   0.171   0.175
  0.179   0.185   0.188   0.197   0.204   0.214   0.217   0.232
  0.238   0.245   0.250   0.257   0.261   0.269   0.275   0.280
  0.287   0.298   0.300   0.303   0.310   0.313   0.322   0.331
  0.335   0.339   0.343   0.352   0.359   0.362   0.371   0.372
  0.382   0.386   0.388   0.398   0.399   0.414   0.414   0.416
  0.420   0.434   0.440   0.442   0.447   0.450   0.459   0.464
  0.473   0.478   0.481   0.482   0.493   0.497   0.502   0.508
  0.518   0.519   0.530   0.533   0.539   0.546   0.549   0.554
  0.557   0.571   0.576   0.580   0.591   0.596   0.602   0.609
  0.619   0.626   0.630   0.634   0.642   0.652   0.657   0.660
  0.667   0.683   0.686   0.692   0.705   0.707   0.712   0.722
  0.728   0.733   0.737   0.739   0.756   0.768   0.771   0.782
  0.790   0.791   0.805   0.807   0.813   0.819   0.825   0.826
  0.841   0.845   0.854   0.857   0.863   0.870   0.878   0.881
  0.897   0.899   0.904   0.917   0.923   0.929   0.944   0.954
  0.961   0.973   0.977   1.000   1.005   1.015   1.023   1.056
  1.062   1.076   1.085   1.095   1.112   1.125   1.131   1.143
  1.155   1.176   1.192   1.203   1.211   1.215   1.224   1.234
  1.255   1.269   1.284   1.297   1.323   1.343   1.354   1.359
  1.381   1.388   1.400   1.424   1.437   1.439   1.460   1.467
  1.492   1.509   1.519   1.525   1.550   1.564   1.575   1.585
  1.600   1.620   1.634   1.677   1.700   1.753   1.775   1.796
  1.834   1.855   1.868   1.896   1.917   1.922   1.939   1.949
  1.975   1.989   1.998   2.006   2.020   2.027   2.035   2.057
  2.066   2.078   2.086   2.107   2.135   2.150   2.172   2.192
  2.209   2.223   2.242   2.262   2.274   2.293   2.313   2.320
  2.352   2.374   2.395   2.400   2.416   2.435   2.465   2.470
  2.481   2.512   2.524   2.548   2.559   2.562   2.593   2.625
  2.635   2.652   2.656   2.667   2.705   2.713   2.720   2.749
  2.758   2.779   2.798   2.871   2.885   2.892   2.914   2.931
  2.953   2.966   2.977   3.013   3.034   3.046   3.070   3.075
  3.107   3.130   3.136   3.153   3.170   3.197   3.224   3.241
  3.247   3.257   3.267   3.312   3.331   3.351   3.352   3.378
  3.385   3.400   3.430   3.440   3.455   3.465   3.482   3.505
  3.518   3.528   3.532   3.562   3.581   3.598   3.621   3.623
  3.644   3.664   3.673   3.684   3.710   3.725   3.739   3.752
  3.771   3.785   3.816   3.827   3.832   3.847   3.881   3.923
  3.937   3.959   3.998   4.035   4.073   4.085   4.130   4.162
  4.167   4.239   4.281   4.295   4.314   4.349   4.373   4.407
  4.438   4.451   4.492   4.545   4.597   4.638   4.693   4.733
  4.752   4.779   4.890   4.916   4.948   4.957   4.992   5.036
  5.097   5.106   5.145   5.160   5.273   5.297   5.341   5.350
  5.363   5.399   5.428   5.442   5.490   5.517   5.543   5.576
  5.637   5.656   5.698   5.706   5.755   5.782   5.818   5.947
  5.991   6.068   6.132   6.176   6.219   6.240   6.285   6.316
  6.344   6.416   6.447   6.554   6.651   6.669   6.716   6.732
  6.764   6.790   6.819   6.851   6.921   6.942   6.966   7.043
  7.056   7.118   7.137   7.164   7.222   7.261   7.297   7.352
  7.366   7.422   7.460   7.513   7.580   7.637   8.343  22.732
 22.908  23.006  23.105  23.677  44.250  44.411  44.485  44.606
 44.770
 --------------------------------------------------------------
 
          Ground-State Mulliken Net Atomic Charges

     Atom                 Charge (a.u.)
  ----------------------------------------
      1 C                     0.288062
      2 O                    -0.761172
      3 O                    -0.785018
      4 C                    -0.659727
      5 H                     0.261704
      6 H                     0.248815
      7 C                    -0.315690
      8 H                     0.251772
      9 H                     0.207729
     10 C                     0.843299
     11 O                    -0.658817
     12 H                     0.376694
     13 O                    -0.267249
     14 O                    -0.481625
     15 C                    -1.358628
     16 H                     0.273027
     17 H                     0.286823
     18 H                     0.250003
  ----------------------------------------
  Sum of atomic charges =    -2.000000

 -----------------------------------------------------------------
                    Cartesian Multipole Moments
 -----------------------------------------------------------------
    Charge (ESU x 10^10)
                -9.6064
    Dipole Moment (Debye)
         X      -5.1693      Y     -16.9142      Z      -2.9344
       Tot      17.9282
    Quadrupole Moments (Debye-Ang)
        XX    -105.2313     XY     -22.8262     YY    -102.4860
        XZ      -4.5924     YZ     -11.2519     ZZ     -82.1161
    Octopole Moments (Debye-Ang^2)
       XXX     -79.2281    XXY    -117.4644    XYY     -75.2444
       YYY    -203.6388    XXZ     -24.7566    XYZ     -13.2469
       YYZ     -40.6923    XZZ      -7.4806    YZZ     -58.7219
       ZZZ     -28.3485
    Hexadecapole Moments (Debye-Ang^3)
      XXXX   -1199.8014   XXXY    -426.4099   XXYY    -518.5189
      XYYY    -441.7379   YYYY   -1180.7741   XXXZ     -61.8954
      XXYZ     -78.3703   XYYZ     -57.9646   YYYZ    -218.1739
      XXZZ    -244.9495   XYZZ     -99.4514   YYZZ    -262.9291
      XZZZ     -74.2772   YZZZ    -169.7157   ZZZZ    -422.9878
 -----------------------------------------------------------------
 Calculating analytic gradient of the SCF energy
 Gradient of SCF Energy
            1           2           3           4           5           6
    1   0.0221680  -0.0428055   0.0356754   0.0798274   0.0095375  -0.0751370
    2   0.0224273  -0.0359761   0.0057230   0.0044611  -0.0174876   0.0540378
    3   0.0065675   0.0029602  -0.0192065  -0.0697791   0.0013371   0.0092067
            7           8           9          10          11          12
    1  -0.0253306  -0.0200938   0.0024973   0.0733562  -0.0204796  -0.0546203
    2  -0.2208421   0.0633759  -0.0095993   0.1928740  -0.0138144  -0.0318871
    3   0.1850579   0.0305687  -0.0691471  -0.0438685  -0.0098184  -0.0291067
           13          14          15          16          17          18
    1   0.0029932   0.0310496  -0.0407731   0.0695515  -0.0465782  -0.0008379
    2  -0.0442102   0.0509057  -0.0763816  -0.0152109   0.0359298   0.0356748
    3  -0.0019231   0.0148927  -0.0213323   0.0322255   0.0499527  -0.0685874
 Max gradient component =       2.208E-01
 RMS gradient           =       6.114E-02
 Computing fast CPCM-ISWIG gradient
 Updating gradient with PCM contributions...
 -- total gradient after adding PCM contribution --
---------------------------------------------------
  Atom         X              Y              Z     
---------------------------------------------------
   1      -0.000026       0.000019       0.000018
   2      -0.000036       0.000033       0.000026
   3      -0.000034       0.000002       0.000016
   4      -0.000008       0.000022       0.000009
   5      -0.000007       0.000012       0.000006
   6      -0.000001       0.000037       0.000011
   7       0.000006       0.000006      -0.000001
   8       0.000020       0.000014      -0.000006
   9       0.000002      -0.000002      -0.000002
  10       0.000007      -0.000008      -0.000006
  11       0.000003       0.000001      -0.000000
  12      -0.000022      -0.000015       0.000009
  13      -0.000003      -0.000027      -0.000008
  14      -0.000027      -0.000030       0.000005
  15       0.000028      -0.000015      -0.000017
  16       0.000028      -0.000026      -0.000020
  17       0.000037      -0.000001      -0.000019
  18       0.000033      -0.000022      -0.000021
---------------------------------------------------
 Number of fixed atoms: 0
 Gradient time:  CPU 960.63 s  wall 68.87 s
 ######################################################
 ######################################################
 # Starting finite difference calculation for IDERIV  #
 Finite diff step size:  1.88973e-03 a.u.
 ----------------------------------------------------------------
             Standard Nuclear Orientation (Angstroms)
    I     Atom           X                Y                Z
 ----------------------------------------------------------------
    1      C       1.6724554994     1.7855928409     0.5922311814
    2      O       2.6583202137     2.5594515595     0.3733577296
    3      O       0.8193864905     2.0470765491     1.5353996997
    4      C       1.4571169369     0.6070767591    -0.2395514131
    5      H       0.3192956627     0.7628346426    -1.2154379317
    6      H       2.3644334065     0.2962467814    -0.7610337968
    7      C       0.6083479639    -0.5291574235     0.2993716226
    8      H       1.0473430416    -1.4942533882     0.0201157988
    9      H       0.4964348411    -0.5279284569     1.3900486687
   10      C      -0.8157799913    -0.4670131120    -0.3570348236
   11      O      -0.7074642270     0.3072071605    -1.4783229748
   12      H      -0.5924488607     1.5477972536     1.1721459061
   13      O      -1.7929893681     0.0722738648     0.5908059797
   14      O      -1.5633506278     1.4545615271     0.8621673959
   15      C      -1.3913540896    -1.8476648942    -0.6393272667
   16      H      -2.3961903339    -1.7676581855    -1.0644564240
   17      H      -0.7433536098    -2.3588874664    -1.3557952510
   18      H      -1.4392046979    -2.4475550611     0.2753133913
 ----------------------------------------------------------------
 Nuclear Repulsion Energy =   575.7335856445 hartrees
 There are       40 alpha and       40 beta electrons
 Discretize the solute cavity surface with Lebedev spheres
	Using 110 Lebedev grid points for each H atom
	Using 110 Lebedev grid points for other atoms
	Atomic van der Waals radii will be scaled by 1.20
 Remove points where switching function is < 1.0e-08
 Keep 999 surface tesserae and discard 981 interior tesserae
 Molecular Surface Area = 175.839 Angst**2
 Requested basis set is def2-TZVPD
 There are 175 shells and 457 basis functions
 A cutoff of  1.0D-14 yielded  14411 shell pairs
 There are     99385 function pairs (    126928 Cartesian)
 Smallest overlap matrix eigenvalue = 2.32E-06
 Guess MOs from SCF MO coefficient file
 Reading MOs from coefficient file
 Reading MOs from coefficient file
 Long-range K will be added via erf
 Coulomb attenuation parameter = 0.3 bohr**(-1)
 A restricted hybrid HF-DFT SCF calculation will be
 performed using Pulay DIIS extrapolation
 Polarizable Continuum solvation model will be applied
 Exchange:     0.1670 Hartree-Fock + 1.0000 wB97X-V + LR-HF
 Correlation:  1.0000 wB97X-V
 Using SG-2 standard quadrature grid
 Nonlocal Correlation:  VV10 with C = 0.0100 and b = 6.00
 Grid used for NLC:  SG-1 standard quadrature
 SCF converges when DIIS error is below 1.0E-08
Using Q-Chem read-in guess as SCF_GUESS READ specified.

 using 16 threads for integral computing
 -------------------------------------------------------
 OpenMP Integral computing Module                
 Release: version 1.0, May 2013, Q-Chem Inc. Pittsburgh 
 -------------------------------------------------------
 using 16 threads for integral computing
 -------------------------------------------------------
 OpenMP Integral computing Module                
 Release: version 1.0, May 2013, Q-Chem Inc. Pittsburgh 
 -------------------------------------------------------
 -------------------------------------------------------
 OpenMP BLAS3 based DFT computing Module                
 Release: version 1.0, May 2013, Q-Chem Inc. Pittsburgh 
 -------------------------------------------------------
 -------------------------------------------------------
 OpenMP BLAS3 based DFT computing Module                
 Release: version 1.0, May 2013, Q-Chem Inc. Pittsburgh 
 -------------------------------------------------------
 -------------------------------------------------------
 OpenMP BLAS3 based DFT computing Module                
 Release: version 1.0, May 2013, Q-Chem Inc. Pittsburgh 
 -------------------------------------------------------
 ---------------------------------------
  Cycle       Energy         DIIS Error
 ---------------------------------------
    1    -571.3615588095      4.21E-04
    2    -571.6748772879      4.39E-04
    3    -571.6825319746      2.00E-04
    4    -571.6838077709      1.49E-04
    5    -571.6845423753      1.15E-04
    6    -571.6849785471      9.00E-05
    7    -571.6853260772      6.38E-05
    8    -571.6855116953      4.39E-05
    9    -571.6856369450      2.20E-05
   10    -571.6856735274      7.85E-06
   11    -571.6856785480      1.83E-06
   12    -571.6856788253      3.25E-07
   13    -571.6856788339      4.81E-08
   14    -571.6856788341      1.10E-08
   15    -571.6856788341      6.50E-09 Convergence criterion met
 ---------------------------------------

************** Final PCM Free Energy Summary **************
 G_electrostatic  =      -0.32428446 hartree =    -203.49156980 kcal/mol
 G_cavitation     =       0.00000000 hartree =       0.00000000 kcal/mol
 G_dispersion     =       0.00000000 hartree =       0.00000000 kcal/mol
 G_repulsion      =       0.00000000 hartree =       0.00000000 kcal/mol
 --------------------------------------------------
 Non-electrostatic Free Energy =       0.00000000 hartree =       0.00000000 kcal/mol
 Total                         =      -0.32428446 hartree =    -203.49156980 kcal/mol
 --------------------------------------------------
 SCF Energy (H0 + V/2)                       =    -571.68567883 
 Solute Internal Energy (H0)                 =    -571.36139437 
 Total Free Energy (H0 + V/2 + non-elec)     =    -571.68567883 hartree
                                             = -358738.17790345 kcal/mol
***********************************************************

 SCF time:  CPU 4074.14 s  wall 295.65 s
 SCF   energy in the final basis set = -571.68567883
 Total energy in the final basis set = -571.68567883
 
 --------------------------------------------------------------
 
                    Orbital Energies (a.u.)
 --------------------------------------------------------------
 
 Alpha MOs
 -- Occupied --
-19.233 -19.215 -19.154 -19.130 -19.121 -10.334 -10.322 -10.242
-10.234 -10.190  -1.215  -1.122  -1.105  -1.028  -0.978  -0.864
 -0.834  -0.737  -0.669  -0.613  -0.582  -0.578  -0.552  -0.541
 -0.514  -0.505  -0.490  -0.487  -0.473  -0.466  -0.444  -0.428
 -0.401  -0.378  -0.359  -0.340  -0.335  -0.326  -0.312  -0.258
 -- Virtual --
  0.063   0.077   0.082   0.084   0.103   0.107   0.113   0.118
  0.122   0.133   0.142   0.149   0.156   0.162   0.171   0.175
  0.179   0.185   0.188   0.197   0.204   0.214   0.217   0.232
  0.238   0.245   0.250   0.257   0.261   0.269   0.275   0.280
  0.287   0.298   0.300   0.303   0.310   0.313   0.322   0.331
  0.335   0.339   0.343   0.352   0.359   0.362   0.371   0.372
  0.382   0.386   0.388   0.398   0.399   0.414   0.414   0.416
  0.420   0.434   0.440   0.442   0.447   0.450   0.459   0.464
  0.473   0.478   0.481   0.482   0.493   0.497   0.502   0.508
  0.518   0.519   0.531   0.533   0.539   0.546   0.549   0.554
  0.557   0.571   0.576   0.580   0.591   0.596   0.602   0.609
  0.619   0.626   0.630   0.634   0.642   0.652   0.657   0.660
  0.667   0.683   0.686   0.692   0.705   0.707   0.712   0.722
  0.728   0.733   0.737   0.740   0.756   0.768   0.771   0.782
  0.790   0.791   0.805   0.807   0.813   0.819   0.825   0.826
  0.841   0.845   0.854   0.857   0.863   0.871   0.878   0.881
  0.897   0.899   0.904   0.917   0.923   0.929   0.944   0.954
  0.961   0.973   0.977   1.000   1.005   1.015   1.023   1.056
  1.062   1.076   1.085   1.095   1.112   1.125   1.131   1.143
  1.155   1.176   1.192   1.203   1.211   1.215   1.224   1.234
  1.255   1.269   1.284   1.297   1.324   1.343   1.354   1.359
  1.381   1.388   1.400   1.424   1.437   1.439   1.460   1.467
  1.492   1.509   1.519   1.525   1.550   1.564   1.575   1.585
  1.600   1.620   1.634   1.677   1.700   1.753   1.775   1.796
  1.834   1.855   1.868   1.896   1.917   1.923   1.939   1.949
  1.975   1.989   1.998   2.006   2.020   2.028   2.035   2.057
  2.066   2.078   2.086   2.107   2.135   2.150   2.172   2.192
  2.209   2.223   2.242   2.262   2.274   2.293   2.313   2.320
  2.352   2.374   2.395   2.400   2.416   2.435   2.465   2.470
  2.481   2.512   2.524   2.548   2.559   2.562   2.594   2.625
  2.635   2.652   2.656   2.667   2.705   2.713   2.720   2.749
  2.758   2.779   2.798   2.871   2.885   2.892   2.914   2.931
  2.953   2.966   2.977   3.013   3.034   3.046   3.070   3.075
  3.107   3.130   3.136   3.153   3.170   3.197   3.224   3.241
  3.247   3.257   3.267   3.312   3.331   3.351   3.352   3.378
  3.385   3.400   3.430   3.440   3.455   3.465   3.482   3.505
  3.518   3.528   3.532   3.562   3.581   3.598   3.621   3.623
  3.644   3.663   3.673   3.684   3.710   3.725   3.739   3.751
  3.771   3.785   3.816   3.827   3.832   3.847   3.881   3.923
  3.937   3.959   3.998   4.035   4.073   4.085   4.130   4.161
  4.167   4.239   4.281   4.295   4.314   4.349   4.373   4.407
  4.438   4.451   4.492   4.545   4.597   4.638   4.693   4.733
  4.752   4.779   4.890   4.916   4.948   4.957   4.992   5.036
  5.097   5.106   5.146   5.160   5.273   5.297   5.341   5.350
  5.363   5.399   5.428   5.442   5.491   5.517   5.543   5.576
  5.637   5.656   5.698   5.706   5.756   5.782   5.818   5.947
  5.991   6.068   6.132   6.176   6.219   6.240   6.286   6.316
  6.344   6.416   6.447   6.554   6.651   6.669   6.716   6.732
  6.764   6.790   6.819   6.851   6.921   6.942   6.966   7.043
  7.056   7.118   7.137   7.164   7.222   7.261   7.297   7.352
  7.366   7.422   7.460   7.513   7.580   7.637   8.343  22.732
 22.908  23.006  23.105  23.677  44.250  44.411  44.485  44.606
 44.770
 --------------------------------------------------------------
 
          Ground-State Mulliken Net Atomic Charges

     Atom                 Charge (a.u.)
  ----------------------------------------
      1 C                     0.287690
      2 O                    -0.760316
      3 O                    -0.785588
      4 C                    -0.659695
      5 H                     0.261626
      6 H                     0.248658
      7 C                    -0.315334
      8 H                     0.251762
      9 H                     0.207696
     10 C                     0.843279
     11 O                    -0.658831
     12 H                     0.376729
     13 O                    -0.267274
     14 O                    -0.481618
     15 C                    -1.358627
     16 H                     0.273024
     17 H                     0.286820
     18 H                     0.249998
  ----------------------------------------
  Sum of atomic charges =    -2.000000

 -----------------------------------------------------------------
                    Cartesian Multipole Moments
 -----------------------------------------------------------------
    Charge (ESU x 10^10)
                -9.6064
    Dipole Moment (Debye)
         X      -5.1584      Y     -16.9097      Z      -2.9382
       Tot      17.9215
    Quadrupole Moments (Debye-Ang)
        XX    -105.1965     XY     -22.7942     YY    -102.4703
        XZ      -4.5898     YZ     -11.2610     ZZ     -82.1275
    Octopole Moments (Debye-Ang^2)
       XXX     -79.1158    XXY    -117.3626    XYY     -75.1561
       YYY    -203.5709    XXZ     -24.7412    XYZ     -13.2428
       YYZ     -40.7142    XZZ      -7.4850    YZZ     -58.7389
       ZZZ     -28.3788
    Hexadecapole Moments (Debye-Ang^3)
      XXXX   -1199.4977   XXXY    -426.1005   XXYY    -518.2507
      XYYY    -441.4611   YYYY   -1180.5164   XXXZ     -61.8373
      XXYZ     -78.3409   XYYZ     -57.9548   YYYZ    -218.2338
      XXZZ    -244.9474   XYZZ     -99.4469   YYZZ    -262.9670
      XZZZ     -74.3030   YZZZ    -169.7801   ZZZZ    -423.0866
 -----------------------------------------------------------------
 Calculating analytic gradient of the SCF energy
 Gradient of SCF Energy
            1           2           3           4           5           6
    1   0.0231855  -0.0433362   0.0353474   0.0797683   0.0095205  -0.0751342
    2   0.0229179  -0.0364179   0.0058197   0.0042645  -0.0174766   0.0540905
    3   0.0060366   0.0030796  -0.0188326  -0.0696813   0.0013418   0.0091800
            7           8           9          10          11          12
    1  -0.0254175  -0.0200884   0.0024927   0.0734025  -0.0204787  -0.0546768
    2  -0.2208392   0.0633611  -0.0096165   0.1929109  -0.0138151  -0.0319071
    3   0.1849976   0.0305702  -0.0691452  -0.0438199  -0.0098134  -0.0291440
           13          14          15          16          17          18
    1   0.0029948   0.0310621  -0.0407805   0.0695596  -0.0465830  -0.0008380
    2  -0.0442126   0.0509136  -0.0763951  -0.0152121   0.0359334   0.0356804
    3  -0.0019294   0.0149047  -0.0213367   0.0322288   0.0499586  -0.0685953
 Max gradient component =       2.208E-01
 RMS gradient           =       6.115E-02
 Computing fast CPCM-ISWIG gradient
 Updating gradient with PCM contributions...
 -- total gradient after adding PCM contribution --
---------------------------------------------------
  Atom         X              Y              Z     
---------------------------------------------------
   1       0.001039       0.000280      -0.000283
   2      -0.000554      -0.000263       0.000099
   3      -0.000373       0.000064       0.000235
   4      -0.000154      -0.000022       0.000007
   5      -0.000018      -0.000003      -0.000005
   6      -0.000007       0.000085       0.000042
   7      -0.000006      -0.000004      -0.000024
   8       0.000021       0.000017      -0.000005
   9       0.000002      -0.000002       0.000003
  10       0.000005      -0.000015      -0.000008
  11       0.000005       0.000005       0.000003
  12      -0.000079      -0.000026       0.000013
  13      -0.000002      -0.000026      -0.000007
  14      -0.000003      -0.000027       0.000006
  15       0.000026      -0.000015      -0.000017
  16       0.000028      -0.000026      -0.000020
  17       0.000037      -0.000001      -0.000018
  18       0.000033      -0.000021      -0.000022
---------------------------------------------------
 Number of fixed atoms: 0
 Gradient time:  CPU 969.27 s  wall 69.77 s
 ----------------------------------------------------------------
             Standard Nuclear Orientation (Angstroms)
    I     Atom           X                Y                Z
 ----------------------------------------------------------------
    1      C       1.6704554994     1.7855928409     0.5922311814
    2      O       2.6583202137     2.5594515595     0.3733577296
    3      O       0.8193864905     2.0470765491     1.5353996997
    4      C       1.4571169369     0.6070767591    -0.2395514131
    5      H       0.3192956627     0.7628346426    -1.2154379317
    6      H       2.3644334065     0.2962467814    -0.7610337968
    7      C       0.6083479639    -0.5291574235     0.2993716226
    8      H       1.0473430416    -1.4942533882     0.0201157988
    9      H       0.4964348411    -0.5279284569     1.3900486687
   10      C      -0.8157799913    -0.4670131120    -0.3570348236
   11      O      -0.7074642270     0.3072071605    -1.4783229748
   12      H      -0.5924488607     1.5477972536     1.1721459061
   13      O      -1.7929893681     0.0722738648     0.5908059797
   14      O      -1.5633506278     1.4545615271     0.8621673959
   15      C      -1.3913540896    -1.8476648942    -0.6393272667
   16      H      -2.3961903339    -1.7676581855    -1.0644564240
   17      H      -0.7433536098    -2.3588874664    -1.3557952510
   18      H      -1.4392046979    -2.4475550611     0.2753133913
 ----------------------------------------------------------------
 Nuclear Repulsion Energy =   575.7500717459 hartrees
 There are       40 alpha and       40 beta electrons
 Discretize the solute cavity surface with Lebedev spheres
	Using 110 Lebedev grid points for each H atom
	Using 110 Lebedev grid points for other atoms
	Atomic van der Waals radii will be scaled by 1.20
 Remove points where switching function is < 1.0e-08
 Keep 999 surface tesserae and discard 981 interior tesserae
 Molecular Surface Area = 175.841 Angst**2
 Requested basis set is def2-TZVPD
 There are 175 shells and 457 basis functions
 A cutoff of  1.0D-14 yielded  14411 shell pairs
 There are     99385 function pairs (    126928 Cartesian)
 Smallest overlap matrix eigenvalue = 2.32E-06
 Guess MOs from SCF MO coefficient file
 Reading MOs from coefficient file
 Reading MOs from coefficient file
 Long-range K will be added via erf
 Coulomb attenuation parameter = 0.3 bohr**(-1)
 A restricted hybrid HF-DFT SCF calculation will be
 performed using Pulay DIIS extrapolation
 Polarizable Continuum solvation model will be applied
 Exchange:     0.1670 Hartree-Fock + 1.0000 wB97X-V + LR-HF
 Correlation:  1.0000 wB97X-V
 Using SG-2 standard quadrature grid
 Nonlocal Correlation:  VV10 with C = 0.0100 and b = 6.00
 Grid used for NLC:  SG-1 standard quadrature
 SCF converges when DIIS error is below 1.0E-08
Using Q-Chem read-in guess as SCF_GUESS READ specified.

 using 16 threads for integral computing
 -------------------------------------------------------
 OpenMP Integral computing Module                
 Release: version 1.0, May 2013, Q-Chem Inc. Pittsburgh 
 -------------------------------------------------------
 using 16 threads for integral computing
 -------------------------------------------------------
 OpenMP Integral computing Module                
 Release: version 1.0, May 2013, Q-Chem Inc. Pittsburgh 
 -------------------------------------------------------
 -------------------------------------------------------
 OpenMP BLAS3 based DFT computing Module                
 Release: version 1.0, May 2013, Q-Chem Inc. Pittsburgh 
 -------------------------------------------------------
 -------------------------------------------------------
 OpenMP BLAS3 based DFT computing Module                
 Release: version 1.0, May 2013, Q-Chem Inc. Pittsburgh 
 -------------------------------------------------------
 -------------------------------------------------------
 OpenMP BLAS3 based DFT computing Module                
 Release: version 1.0, May 2013, Q-Chem Inc. Pittsburgh 
 -------------------------------------------------------
 ---------------------------------------
  Cycle       Energy         DIIS Error
 ---------------------------------------
    1    -571.3610386567      4.22E-04
    2    -571.6748965046      4.38E-04
    3    -571.6825390726      2.00E-04
    4    -571.6838151737      1.48E-04
    5    -571.6845681813      1.14E-04
    6    -571.6850411347      8.58E-05
    7    -571.6854541504      5.08E-05
    8    -571.6856173768      2.65E-05
    9    -571.6856733056      7.87E-06
   10    -571.6856785245      1.58E-06
   11    -571.6856787289      3.01E-07
   12    -571.6856787363      6.64E-08
   13    -571.6856787365      3.14E-08
   14    -571.6856787365      1.53E-08
   15    -571.6856787365      4.81E-09 Convergence criterion met
 ---------------------------------------

************** Final PCM Free Energy Summary **************
 G_electrostatic  =      -0.32431565 hartree =    -203.51114261 kcal/mol
 G_cavitation     =       0.00000000 hartree =       0.00000000 kcal/mol
 G_dispersion     =       0.00000000 hartree =       0.00000000 kcal/mol
 G_repulsion      =       0.00000000 hartree =       0.00000000 kcal/mol
 --------------------------------------------------
 Non-electrostatic Free Energy =       0.00000000 hartree =       0.00000000 kcal/mol
 Total                         =      -0.32431565 hartree =    -203.51114261 kcal/mol
 --------------------------------------------------
 SCF Energy (H0 + V/2)                       =    -571.68567874 
 Solute Internal Energy (H0)                 =    -571.36136309 
 Total Free Energy (H0 + V/2 + non-elec)     =    -571.68567874 hartree
                                             = -358738.17784223 kcal/mol
***********************************************************

 SCF time:  CPU 4088.96 s  wall 296.86 s
 SCF   energy in the final basis set = -571.68567874
 Total energy in the final basis set = -571.68567874
 
 --------------------------------------------------------------
 
                    Orbital Energies (a.u.)
 --------------------------------------------------------------
 
 Alpha MOs
 -- Occupied --
-19.233 -19.215 -19.154 -19.131 -19.121 -10.334 -10.322 -10.242
-10.234 -10.190  -1.215  -1.122  -1.105  -1.028  -0.978  -0.864
 -0.834  -0.737  -0.669  -0.613  -0.582  -0.578  -0.552  -0.541
 -0.514  -0.505  -0.490  -0.487  -0.473  -0.466  -0.444  -0.428
 -0.401  -0.378  -0.359  -0.340  -0.335  -0.326  -0.312  -0.258
 -- Virtual --
  0.063   0.077   0.082   0.084   0.103   0.107   0.113   0.118
  0.122   0.133   0.142   0.149   0.156   0.162   0.171   0.175
  0.179   0.185   0.188   0.197   0.204   0.214   0.217   0.232
  0.238   0.245   0.250   0.257   0.261   0.269   0.275   0.280
  0.287   0.298   0.300   0.303   0.310   0.313   0.322   0.331
  0.335   0.339   0.343   0.352   0.359   0.362   0.371   0.372
  0.382   0.386   0.388   0.398   0.399   0.414   0.414   0.416
  0.420   0.434   0.440   0.442   0.447   0.450   0.460   0.464
  0.473   0.478   0.481   0.482   0.493   0.497   0.502   0.508
  0.518   0.519   0.530   0.533   0.539   0.546   0.549   0.554
  0.557   0.571   0.576   0.580   0.591   0.596   0.602   0.609
  0.619   0.626   0.630   0.634   0.642   0.652   0.657   0.660
  0.667   0.683   0.686   0.692   0.705   0.707   0.712   0.722
  0.728   0.733   0.737   0.739   0.756   0.768   0.771   0.782
  0.790   0.791   0.805   0.807   0.813   0.819   0.825   0.826
  0.841   0.845   0.854   0.857   0.863   0.870   0.878   0.881
  0.897   0.899   0.904   0.917   0.923   0.929   0.944   0.953
  0.961   0.973   0.977   1.000   1.005   1.015   1.023   1.056
  1.062   1.076   1.085   1.095   1.112   1.125   1.131   1.143
  1.155   1.176   1.192   1.203   1.211   1.215   1.224   1.234
  1.255   1.269   1.284   1.297   1.323   1.343   1.354   1.359
  1.381   1.388   1.400   1.424   1.437   1.439   1.460   1.467
  1.492   1.509   1.519   1.525   1.550   1.564   1.575   1.585
  1.600   1.620   1.634   1.677   1.700   1.753   1.775   1.796
  1.834   1.855   1.868   1.896   1.917   1.922   1.939   1.949
  1.975   1.989   1.998   2.006   2.020   2.027   2.035   2.057
  2.066   2.078   2.086   2.107   2.135   2.150   2.172   2.192
  2.209   2.223   2.242   2.262   2.274   2.293   2.313   2.320
  2.352   2.374   2.395   2.400   2.416   2.435   2.465   2.470
  2.482   2.512   2.523   2.548   2.559   2.562   2.593   2.625
  2.635   2.652   2.656   2.667   2.705   2.713   2.720   2.749
  2.758   2.779   2.798   2.871   2.885   2.892   2.914   2.931
  2.953   2.966   2.977   3.013   3.034   3.046   3.070   3.075
  3.107   3.130   3.136   3.153   3.170   3.197   3.224   3.241
  3.247   3.257   3.267   3.312   3.331   3.351   3.352   3.378
  3.385   3.400   3.430   3.440   3.455   3.465   3.482   3.505
  3.518   3.528   3.532   3.561   3.581   3.598   3.621   3.623
  3.644   3.664   3.673   3.684   3.710   3.725   3.739   3.752
  3.771   3.785   3.816   3.827   3.832   3.847   3.881   3.923
  3.937   3.959   3.998   4.035   4.073   4.085   4.130   4.162
  4.167   4.239   4.281   4.295   4.314   4.349   4.374   4.407
  4.438   4.451   4.491   4.545   4.597   4.638   4.693   4.733
  4.752   4.779   4.890   4.916   4.948   4.957   4.992   5.036
  5.097   5.107   5.145   5.161   5.274   5.297   5.341   5.350
  5.363   5.399   5.428   5.442   5.490   5.517   5.543   5.576
  5.637   5.656   5.698   5.706   5.755   5.781   5.818   5.947
  5.991   6.068   6.132   6.176   6.219   6.240   6.285   6.316
  6.344   6.416   6.446   6.554   6.651   6.669   6.716   6.732
  6.763   6.790   6.819   6.851   6.921   6.942   6.966   7.043
  7.055   7.118   7.137   7.164   7.222   7.261   7.296   7.352
  7.366   7.422   7.460   7.513   7.580   7.637   8.343  22.732
 22.908  23.006  23.105  23.676  44.251  44.411  44.485  44.606
 44.770
 --------------------------------------------------------------
 
          Ground-State Mulliken Net Atomic Charges

     Atom                 Charge (a.u.)
  ----------------------------------------
      1 C                     0.288426
      2 O                    -0.762023
      3 O                    -0.784445
      4 C                    -0.659758
      5 H                     0.261778
      6 H                     0.248975
      7 C                    -0.316049
      8 H                     0.251783
      9 H                     0.207763
     10 C                     0.843315
     11 O                    -0.658800
     12 H                     0.376658
     13 O                    -0.267225
     14 O                    -0.481633
     15 C                    -1.358629
     16 H                     0.273031
     17 H                     0.286825
     18 H                     0.250008
  ----------------------------------------
  Sum of atomic charges =    -2.000000

 -----------------------------------------------------------------
                    Cartesian Multipole Moments
 -----------------------------------------------------------------
    Charge (ESU x 10^10)
                -9.6064
    Dipole Moment (Debye)
         X      -5.1801      Y     -16.9187      Z      -2.9305
       Tot      17.9349
    Quadrupole Moments (Debye-Ang)
        XX    -105.2660     XY     -22.8581     YY    -102.5017
        XZ      -4.5949     YZ     -11.2428     ZZ     -82.1046
    Octopole Moments (Debye-Ang^2)
       XXX     -79.3401    XXY    -117.5662    XYY     -75.3327
       YYY    -203.7067    XXZ     -24.7719    XYZ     -13.2510
       YYZ     -40.6704    XZZ      -7.4762    YZZ     -58.7049
       ZZZ     -28.3181
    Hexadecapole Moments (Debye-Ang^3)
      XXXX   -1200.1045   XXXY    -426.7188   XXYY    -518.7869
      XYYY    -442.0145   YYYY   -1181.0318   XXXZ     -61.9536
      XXYZ     -78.3997   XYYZ     -57.9745   YYYZ    -218.1140
      XXZZ    -244.9516   XYZZ     -99.4559   YYZZ    -262.8913
      XZZZ     -74.2514   YZZZ    -169.6512   ZZZZ    -422.8892
 -----------------------------------------------------------------
 Calculating analytic gradient of the SCF energy
 Gradient of SCF Energy
            1           2           3           4           5           6
    1   0.0211516  -0.0422774   0.0360047   0.0798874   0.0095546  -0.0751406
    2   0.0219402  -0.0355375   0.0056257   0.0046576  -0.0174984   0.0539857
    3   0.0071003   0.0028415  -0.0195823  -0.0698772   0.0013323   0.0092328
            7           8           9          10          11          12
    1  -0.0252436  -0.0200990   0.0025019   0.0733095  -0.0204806  -0.0545638
    2  -0.2208458   0.0633912  -0.0095825   0.1928375  -0.0138138  -0.0318672
    3   0.1851192   0.0305677  -0.0691495  -0.0439174  -0.0098231  -0.0290696
           13          14          15          16          17          18
    1   0.0029917   0.0310371  -0.0407656   0.0695437  -0.0465737  -0.0008379
    2  -0.0442080   0.0508981  -0.0763690  -0.0152098   0.0359265   0.0356696
    3  -0.0019169   0.0148809  -0.0213283   0.0322224   0.0499470  -0.0685799
 Max gradient component =       2.208E-01
 RMS gradient           =       6.112E-02
 Computing fast CPCM-ISWIG gradient
 Updating gradient with PCM contributions...
 -- total gradient after adding PCM contribution --
---------------------------------------------------
  Atom         X              Y              Z     
---------------------------------------------------
   1      -0.001090      -0.000240       0.000319
   2       0.000479       0.000327      -0.000045
   3       0.000307      -0.000060      -0.000205
   4       0.000139       0.000066       0.000011
   5       0.000004       0.000026       0.000017
   6       0.000004      -0.000010      -0.000020
   7       0.000018       0.000016       0.000024
   8       0.000020       0.000012      -0.000008
   9       0.000003      -0.000003      -0.000007
  10       0.000010      -0.000001      -0.000003
  11       0.000000      -0.000004      -0.000004
  12       0.000034      -0.000005       0.000004
  13      -0.000003      -0.000029      -0.000010
  14      -0.000052      -0.000032       0.000003
  15       0.000029      -0.000015      -0.000017
  16       0.000028      -0.000026      -0.000020
  17       0.000037      -0.000001      -0.000019
  18       0.000033      -0.000022      -0.000021
---------------------------------------------------
 Number of fixed atoms: 0
 Gradient time:  CPU 965.42 s  wall 69.43 s
 ----------------------------------------------------------------
             Standard Nuclear Orientation (Angstroms)
    I     Atom           X                Y                Z
 ----------------------------------------------------------------
    1      C       1.6714554994     1.7865928409     0.5922311814
    2      O       2.6583202137     2.5594515595     0.3733577296
    3      O       0.8193864905     2.0470765491     1.5353996997
    4      C       1.4571169369     0.6070767591    -0.2395514131
    5      H       0.3192956627     0.7628346426    -1.2154379317
    6      H       2.3644334065     0.2962467814    -0.7610337968
    7      C       0.6083479639    -0.5291574235     0.2993716226
    8      H       1.0473430416    -1.4942533882     0.0201157988
    9      H       0.4964348411    -0.5279284569     1.3900486687
   10      C      -0.8157799913    -0.4670131120    -0.3570348236
   11      O      -0.7074642270     0.3072071605    -1.4783229748
   12      H      -0.5924488607     1.5477972536     1.1721459061
   13      O      -1.7929893681     0.0722738648     0.5908059797
   14      O      -1.5633506278     1.4545615271     0.8621673959
   15      C      -1.3913540896    -1.8476648942    -0.6393272667
   16      H      -2.3961903339    -1.7676581855    -1.0644564240
   17      H      -0.7433536098    -2.3588874664    -1.3557952510
   18      H      -1.4392046979    -2.4475550611     0.2753133913
 ----------------------------------------------------------------
 Nuclear Repulsion Energy =   575.7394061051 hartrees
 There are       40 alpha and       40 beta electrons
 Discretize the solute cavity surface with Lebedev spheres
	Using 110 Lebedev grid points for each H atom
	Using 110 Lebedev grid points for other atoms
	Atomic van der Waals radii will be scaled by 1.20
 Remove points where switching function is < 1.0e-08
 Keep 999 surface tesserae and discard 981 interior tesserae
 Molecular Surface Area = 175.843 Angst**2
 Requested basis set is def2-TZVPD
 There are 175 shells and 457 basis functions
 A cutoff of  1.0D-14 yielded  14411 shell pairs
 There are     99385 function pairs (    126928 Cartesian)
 Smallest overlap matrix eigenvalue = 2.32E-06
 Guess MOs from SCF MO coefficient file
 Reading MOs from coefficient file
 Reading MOs from coefficient file
 Long-range K will be added via erf
 Coulomb attenuation parameter = 0.3 bohr**(-1)
 A restricted hybrid HF-DFT SCF calculation will be
 performed using Pulay DIIS extrapolation
 Polarizable Continuum solvation model will be applied
 Exchange:     0.1670 Hartree-Fock + 1.0000 wB97X-V + LR-HF
 Correlation:  1.0000 wB97X-V
 Using SG-2 standard quadrature grid
 Nonlocal Correlation:  VV10 with C = 0.0100 and b = 6.00
 Grid used for NLC:  SG-1 standard quadrature
 SCF converges when DIIS error is below 1.0E-08
Using Q-Chem read-in guess as SCF_GUESS READ specified.

 using 16 threads for integral computing
 -------------------------------------------------------
 OpenMP Integral computing Module                
 Release: version 1.0, May 2013, Q-Chem Inc. Pittsburgh 
 -------------------------------------------------------
 using 16 threads for integral computing
 -------------------------------------------------------
 OpenMP Integral computing Module                
 Release: version 1.0, May 2013, Q-Chem Inc. Pittsburgh 
 -------------------------------------------------------
 -------------------------------------------------------
 OpenMP BLAS3 based DFT computing Module                
 Release: version 1.0, May 2013, Q-Chem Inc. Pittsburgh 
 -------------------------------------------------------
 -------------------------------------------------------
 OpenMP BLAS3 based DFT computing Module                
 Release: version 1.0, May 2013, Q-Chem Inc. Pittsburgh 
 -------------------------------------------------------
 -------------------------------------------------------
 OpenMP BLAS3 based DFT computing Module                
 Release: version 1.0, May 2013, Q-Chem Inc. Pittsburgh 
 -------------------------------------------------------
 ---------------------------------------
  Cycle       Energy         DIIS Error
 ---------------------------------------
    1    -571.3622288253      4.22E-04
    2    -571.6748680180      4.40E-04
    3    -571.6825360044      2.00E-04
    4    -571.6838149898      1.49E-04
    5    -571.6845569552      1.14E-04
    6    -571.6850114066      8.79E-05
    7    -571.6853955951      5.71E-05
    8    -571.6855769113      3.43E-05
    9    -571.6856639561      1.31E-05
   10    -571.6856777518      3.49E-06
   11    -571.6856787605      6.88E-07
   12    -571.6856787995      1.31E-07
   13    -571.6856788009      3.02E-08
   14    -571.6856788009      9.31E-09 Convergence criterion met
 ---------------------------------------

************** Final PCM Free Energy Summary **************
 G_electrostatic  =      -0.32424920 hartree =    -203.46944227 kcal/mol
 G_cavitation     =       0.00000000 hartree =       0.00000000 kcal/mol
 G_dispersion     =       0.00000000 hartree =       0.00000000 kcal/mol
 G_repulsion      =       0.00000000 hartree =       0.00000000 kcal/mol
 --------------------------------------------------
 Non-electrostatic Free Energy =       0.00000000 hartree =       0.00000000 kcal/mol
 Total                         =      -0.32424920 hartree =    -203.46944227 kcal/mol
 --------------------------------------------------
 SCF Energy (H0 + V/2)                       =    -571.68567880 
 Solute Internal Energy (H0)                 =    -571.36142960 
 Total Free Energy (H0 + V/2 + non-elec)     =    -571.68567880 hartree
                                             = -358738.17788263 kcal/mol
***********************************************************

 SCF time:  CPU 3784.38 s  wall 274.04 s
 SCF   energy in the final basis set = -571.68567880
 Total energy in the final basis set = -571.68567880
 
 --------------------------------------------------------------
 
                    Orbital Energies (a.u.)
 --------------------------------------------------------------
 
 Alpha MOs
 -- Occupied --
-19.233 -19.215 -19.154 -19.130 -19.121 -10.334 -10.322 -10.242
-10.234 -10.190  -1.215  -1.122  -1.105  -1.028  -0.978  -0.864
 -0.834  -0.737  -0.669  -0.613  -0.582  -0.578  -0.552  -0.541
 -0.514  -0.505  -0.490  -0.487  -0.473  -0.466  -0.444  -0.428
 -0.401  -0.378  -0.359  -0.340  -0.335  -0.326  -0.312  -0.258
 -- Virtual --
  0.063   0.077   0.082   0.084   0.103   0.107   0.113   0.118
  0.122   0.133   0.142   0.149   0.156   0.162   0.171   0.175
  0.179   0.185   0.188   0.197   0.204   0.214   0.217   0.232
  0.238   0.245   0.250   0.257   0.261   0.269   0.275   0.280
  0.287   0.298   0.300   0.303   0.310   0.313   0.322   0.331
  0.335   0.339   0.343   0.352   0.359   0.362   0.371   0.372
  0.382   0.386   0.388   0.398   0.399   0.414   0.414   0.416
  0.420   0.434   0.440   0.442   0.447   0.450   0.459   0.464
  0.473   0.478   0.481   0.482   0.493   0.497   0.502   0.508
  0.518   0.519   0.530   0.533   0.539   0.546   0.549   0.554
  0.557   0.571   0.576   0.580   0.591   0.596   0.602   0.609
  0.619   0.626   0.630   0.634   0.642   0.652   0.657   0.660
  0.667   0.683   0.686   0.692   0.705   0.707   0.712   0.722
  0.728   0.733   0.737   0.739   0.756   0.768   0.771   0.782
  0.790   0.791   0.805   0.807   0.813   0.819   0.825   0.826
  0.841   0.845   0.854   0.857   0.863   0.870   0.878   0.881
  0.897   0.899   0.904   0.917   0.923   0.929   0.944   0.954
  0.961   0.973   0.977   1.000   1.005   1.015   1.023   1.056
  1.062   1.076   1.085   1.095   1.112   1.125   1.131   1.143
  1.155   1.176   1.192   1.203   1.211   1.215   1.224   1.234
  1.255   1.269   1.284   1.297   1.323   1.343   1.354   1.359
  1.381   1.388   1.400   1.424   1.437   1.439   1.460   1.467
  1.492   1.509   1.519   1.525   1.550   1.564   1.575   1.585
  1.600   1.620   1.634   1.677   1.700   1.753   1.775   1.796
  1.834   1.855   1.868   1.896   1.917   1.923   1.939   1.949
  1.975   1.989   1.998   2.006   2.020   2.028   2.035   2.057
  2.066   2.078   2.086   2.107   2.135   2.150   2.172   2.192
  2.209   2.223   2.242   2.262   2.274   2.293   2.313   2.320
  2.352   2.374   2.395   2.400   2.416   2.435   2.465   2.470
  2.481   2.512   2.524   2.548   2.559   2.562   2.593   2.625
  2.635   2.652   2.656   2.668   2.705   2.713   2.720   2.749
  2.758   2.779   2.798   2.871   2.885   2.892   2.914   2.931
  2.953   2.966   2.976   3.013   3.034   3.046   3.070   3.075
  3.107   3.130   3.136   3.153   3.170   3.197   3.224   3.241
  3.247   3.257   3.267   3.312   3.331   3.351   3.352   3.378
  3.385   3.400   3.430   3.440   3.455   3.465   3.482   3.505
  3.518   3.528   3.532   3.562   3.581   3.598   3.621   3.623
  3.644   3.664   3.674   3.684   3.710   3.725   3.739   3.752
  3.771   3.785   3.816   3.827   3.832   3.847   3.881   3.923
  3.937   3.959   3.998   4.035   4.073   4.085   4.130   4.161
  4.167   4.239   4.281   4.295   4.314   4.348   4.373   4.407
  4.438   4.451   4.492   4.545   4.597   4.638   4.693   4.733
  4.752   4.779   4.890   4.916   4.948   4.957   4.992   5.036
  5.097   5.106   5.145   5.161   5.273   5.297   5.341   5.350
  5.363   5.399   5.428   5.442   5.491   5.517   5.543   5.576
  5.637   5.656   5.698   5.706   5.755   5.782   5.818   5.947
  5.991   6.068   6.132   6.177   6.219   6.241   6.286   6.316
  6.344   6.417   6.447   6.555   6.651   6.669   6.716   6.732
  6.763   6.790   6.819   6.851   6.921   6.942   6.967   7.043
  7.056   7.118   7.137   7.164   7.222   7.261   7.297   7.352
  7.366   7.422   7.461   7.513   7.580   7.638   8.343  22.732
 22.908  23.006  23.105  23.678  44.250  44.411  44.485  44.606
 44.770
 --------------------------------------------------------------
 
          Ground-State Mulliken Net Atomic Charges

     Atom                 Charge (a.u.)
  ----------------------------------------
      1 C                     0.288187
      2 O                    -0.760566
      3 O                    -0.784945
      4 C                    -0.660146
      5 H                     0.261336
      6 H                     0.248919
      7 C                    -0.315456
      8 H                     0.251728
      9 H                     0.207658
     10 C                     0.843067
     11 O                    -0.658759
     12 H                     0.376700
     13 O                    -0.267249
     14 O                    -0.481646
     15 C                    -1.358644
     16 H                     0.273016
     17 H                     0.286804
     18 H                     0.249996
  ----------------------------------------
  Sum of atomic charges =    -2.000000

 -----------------------------------------------------------------
                    Cartesian Multipole Moments
 -----------------------------------------------------------------
    Charge (ESU x 10^10)
                -9.6064
    Dipole Moment (Debye)
         X      -5.1630      Y     -16.9040      Z      -2.9296
       Tot      17.9160
    Quadrupole Moments (Debye-Ang)
        XX    -105.2138     XY     -22.8010     YY    -102.4596
        XZ      -4.5870     YZ     -11.2453     ZZ     -82.1196
    Octopole Moments (Debye-Ang^2)
       XXX     -79.1457    XXY    -117.3933    XYY     -75.1691
       YYY    -203.5603    XXZ     -24.7377    XYZ     -13.2339
       YYZ     -40.6787    XZZ      -7.4726    YZZ     -58.7191
       ZZZ     -28.3281
    Hexadecapole Moments (Debye-Ang^3)
      XXXX   -1199.5128   XXXY    -426.1940   XXYY    -518.3409
      XYYY    -441.5476   YYYY   -1180.6285   XXXZ     -61.8501
      XXYZ     -78.3410   XYYZ     -57.9342   YYYZ    -218.1552
      XXZZ    -244.9341   XYZZ     -99.4336   YYZZ    -262.9357
      XZZZ     -74.2585   YZZZ    -169.7072   ZZZZ    -423.0056
 -----------------------------------------------------------------
 Calculating analytic gradient of the SCF energy
 Gradient of SCF Energy
            1           2           3           4           5           6
    1   0.0227224  -0.0432333   0.0357495   0.0796215   0.0094990  -0.0751657
    2   0.0233803  -0.0363617   0.0056011   0.0040335  -0.0174619   0.0540183
    3   0.0069833   0.0030099  -0.0193661  -0.0701718   0.0012987   0.0091581
            7           8           9          10          11          12
    1  -0.0253063  -0.0200806   0.0024880   0.0733927  -0.0204677  -0.0546081
    2  -0.2209177   0.0633987  -0.0096329   0.1929280  -0.0138126  -0.0318667
    3   0.1852032   0.0305982  -0.0691534  -0.0438479  -0.0098106  -0.0291163
           13          14          15          16          17          18
    1   0.0029928   0.0310433  -0.0407833   0.0695634  -0.0465887  -0.0008388
    2  -0.0442118   0.0509058  -0.0764076  -0.0152135   0.0359380   0.0356828
    3  -0.0019285   0.0148917  -0.0213447   0.0322326   0.0499636  -0.0686000
 Max gradient component =       2.209E-01
 RMS gradient           =       6.118E-02
 Computing fast CPCM-ISWIG gradient
 Updating gradient with PCM contributions...
 -- total gradient after adding PCM contribution --
---------------------------------------------------
  Atom         X              Y              Z     
---------------------------------------------------
   1       0.000235       0.001029       0.000208
   2      -0.000343      -0.000402       0.000067
   3       0.000039      -0.000211      -0.000103
   4       0.000012      -0.000318      -0.000058
   5      -0.000100      -0.000001      -0.000025
   6      -0.000020       0.000036      -0.000007
   7      -0.000026      -0.000042      -0.000019
   8       0.000018       0.000015      -0.000005
   9       0.000009       0.000003      -0.000009
  10       0.000009      -0.000018       0.000022
  11       0.000084       0.000039       0.000005
  12      -0.000006      -0.000008       0.000022
  13       0.000003      -0.000028      -0.000015
  14      -0.000041      -0.000032      -0.000004
  15       0.000028      -0.000016      -0.000020
  16       0.000029      -0.000025      -0.000019
  17       0.000037      -0.000001      -0.000018
  18       0.000034      -0.000020      -0.000023
---------------------------------------------------
 Number of fixed atoms: 0
 Gradient time:  CPU 979.18 s  wall 69.36 s
 ----------------------------------------------------------------
             Standard Nuclear Orientation (Angstroms)
    I     Atom           X                Y                Z
 ----------------------------------------------------------------
    1      C       1.6714554994     1.7845928409     0.5922311814
    2      O       2.6583202137     2.5594515595     0.3733577296
    3      O       0.8193864905     2.0470765491     1.5353996997
    4      C       1.4571169369     0.6070767591    -0.2395514131
    5      H       0.3192956627     0.7628346426    -1.2154379317
    6      H       2.3644334065     0.2962467814    -0.7610337968
    7      C       0.6083479639    -0.5291574235     0.2993716226
    8      H       1.0473430416    -1.4942533882     0.0201157988
    9      H       0.4964348411    -0.5279284569     1.3900486687
   10      C      -0.8157799913    -0.4670131120    -0.3570348236
   11      O      -0.7074642270     0.3072071605    -1.4783229748
   12      H      -0.5924488607     1.5477972536     1.1721459061
   13      O      -1.7929893681     0.0722738648     0.5908059797
   14      O      -1.5633506278     1.4545615271     0.8621673959
   15      C      -1.3913540896    -1.8476648942    -0.6393272667
   16      H      -2.3961903339    -1.7676581855    -1.0644564240
   17      H      -0.7433536098    -2.3588874664    -1.3557952510
   18      H      -1.4392046979    -2.4475550611     0.2753133913
 ----------------------------------------------------------------
 Nuclear Repulsion Energy =   575.7442395839 hartrees
 There are       40 alpha and       40 beta electrons
 Discretize the solute cavity surface with Lebedev spheres
	Using 110 Lebedev grid points for each H atom
	Using 110 Lebedev grid points for other atoms
	Atomic van der Waals radii will be scaled by 1.20
 Remove points where switching function is < 1.0e-08
 Keep 999 surface tesserae and discard 981 interior tesserae
 Molecular Surface Area = 175.837 Angst**2
 Requested basis set is def2-TZVPD
 There are 175 shells and 457 basis functions
 A cutoff of  1.0D-14 yielded  14411 shell pairs
 There are     99385 function pairs (    126928 Cartesian)
 Smallest overlap matrix eigenvalue = 2.32E-06
 Guess MOs from SCF MO coefficient file
 Reading MOs from coefficient file
 Reading MOs from coefficient file
 Long-range K will be added via erf
 Coulomb attenuation parameter = 0.3 bohr**(-1)
 A restricted hybrid HF-DFT SCF calculation will be
 performed using Pulay DIIS extrapolation
 Polarizable Continuum solvation model will be applied
 Exchange:     0.1670 Hartree-Fock + 1.0000 wB97X-V + LR-HF
 Correlation:  1.0000 wB97X-V
 Using SG-2 standard quadrature grid
 Nonlocal Correlation:  VV10 with C = 0.0100 and b = 6.00
 Grid used for NLC:  SG-1 standard quadrature
 SCF converges when DIIS error is below 1.0E-08
Using Q-Chem read-in guess as SCF_GUESS READ specified.

 using 16 threads for integral computing
 -------------------------------------------------------
 OpenMP Integral computing Module                
 Release: version 1.0, May 2013, Q-Chem Inc. Pittsburgh 
 -------------------------------------------------------
 using 16 threads for integral computing
 -------------------------------------------------------
 OpenMP Integral computing Module                
 Release: version 1.0, May 2013, Q-Chem Inc. Pittsburgh 
 -------------------------------------------------------
 -------------------------------------------------------
 OpenMP BLAS3 based DFT computing Module                
 Release: version 1.0, May 2013, Q-Chem Inc. Pittsburgh 
 -------------------------------------------------------
 -------------------------------------------------------
 OpenMP BLAS3 based DFT computing Module                
 Release: version 1.0, May 2013, Q-Chem Inc. Pittsburgh 
 -------------------------------------------------------
 -------------------------------------------------------
 OpenMP BLAS3 based DFT computing Module                
 Release: version 1.0, May 2013, Q-Chem Inc. Pittsburgh 
 -------------------------------------------------------
 ---------------------------------------
  Cycle       Energy         DIIS Error
 ---------------------------------------
    1    -571.3600655416      4.21E-04
    2    -571.6749115531      4.37E-04
    3    -571.6825366220      2.00E-04
    4    -571.6838091389      1.49E-04
    5    -571.6845572167      1.14E-04
    6    -571.6850225242      8.70E-05
    7    -571.6854249087      5.40E-05
    8    -571.6856017879      2.97E-05
    9    -571.6856713646      9.26E-06
   10    -571.6856785561      1.92E-06
   11    -571.6856788635      2.85E-07
   12    -571.6856788698      8.29E-08
   13    -571.6856788701      4.23E-08
   14    -571.6856788702      2.25E-08
   15    -571.6856788702      8.29E-09 Convergence criterion met
 ---------------------------------------

************** Final PCM Free Energy Summary **************
 G_electrostatic  =      -0.32435097 hartree =    -203.53330380 kcal/mol
 G_cavitation     =       0.00000000 hartree =       0.00000000 kcal/mol
 G_dispersion     =       0.00000000 hartree =       0.00000000 kcal/mol
 G_repulsion      =       0.00000000 hartree =       0.00000000 kcal/mol
 --------------------------------------------------
 Non-electrostatic Free Energy =       0.00000000 hartree =       0.00000000 kcal/mol
 Total                         =      -0.32435097 hartree =    -203.53330380 kcal/mol
 --------------------------------------------------
 SCF Energy (H0 + V/2)                       =    -571.68567887 
 Solute Internal Energy (H0)                 =    -571.36132790 
 Total Free Energy (H0 + V/2 + non-elec)     =    -571.68567887 hartree
                                             = -358738.17792612 kcal/mol
***********************************************************

 SCF time:  CPU 4074.68 s  wall 294.90 s
 SCF   energy in the final basis set = -571.68567887
 Total energy in the final basis set = -571.68567887
 
 --------------------------------------------------------------
 
                    Orbital Energies (a.u.)
 --------------------------------------------------------------
 
 Alpha MOs
 -- Occupied --
-19.233 -19.215 -19.154 -19.130 -19.121 -10.334 -10.322 -10.242
-10.234 -10.190  -1.215  -1.122  -1.105  -1.028  -0.978  -0.864
 -0.834  -0.737  -0.669  -0.613  -0.582  -0.578  -0.552  -0.541
 -0.514  -0.505  -0.490  -0.487  -0.473  -0.466  -0.444  -0.428
 -0.401  -0.378  -0.359  -0.340  -0.335  -0.326  -0.312  -0.258
 -- Virtual --
  0.063   0.077   0.082   0.084   0.103   0.107   0.113   0.118
  0.122   0.133   0.142   0.149   0.156   0.162   0.171   0.175
  0.179   0.185   0.188   0.197   0.204   0.214   0.217   0.232
  0.238   0.245   0.250   0.257   0.261   0.269   0.275   0.280
  0.287   0.298   0.300   0.303   0.310   0.313   0.322   0.331
  0.335   0.339   0.343   0.352   0.359   0.362   0.371   0.372
  0.382   0.386   0.388   0.398   0.399   0.414   0.414   0.416
  0.420   0.434   0.440   0.442   0.447   0.450   0.459   0.464
  0.473   0.478   0.481   0.482   0.493   0.497   0.502   0.508
  0.518   0.519   0.530   0.533   0.539   0.546   0.549   0.554
  0.557   0.571   0.576   0.580   0.591   0.596   0.602   0.609
  0.619   0.626   0.630   0.634   0.642   0.652   0.657   0.660
  0.667   0.683   0.686   0.692   0.705   0.707   0.712   0.722
  0.728   0.733   0.737   0.739   0.756   0.768   0.771   0.782
  0.790   0.791   0.805   0.806   0.813   0.819   0.825   0.826
  0.841   0.845   0.854   0.857   0.863   0.870   0.878   0.881
  0.897   0.899   0.904   0.917   0.923   0.929   0.944   0.954
  0.961   0.973   0.976   1.000   1.005   1.016   1.023   1.056
  1.062   1.076   1.085   1.095   1.112   1.125   1.131   1.143
  1.155   1.176   1.192   1.203   1.211   1.215   1.224   1.234
  1.255   1.269   1.284   1.297   1.324   1.343   1.354   1.359
  1.381   1.388   1.400   1.424   1.437   1.439   1.460   1.467
  1.492   1.509   1.519   1.525   1.550   1.564   1.575   1.585
  1.600   1.620   1.634   1.677   1.700   1.753   1.775   1.796
  1.834   1.855   1.868   1.896   1.917   1.922   1.939   1.949
  1.975   1.989   1.998   2.006   2.020   2.027   2.035   2.057
  2.066   2.078   2.086   2.107   2.135   2.150   2.172   2.192
  2.209   2.223   2.242   2.262   2.274   2.293   2.313   2.320
  2.352   2.374   2.395   2.400   2.416   2.435   2.465   2.470
  2.481   2.512   2.524   2.548   2.559   2.562   2.593   2.625
  2.635   2.652   2.656   2.667   2.705   2.713   2.721   2.749
  2.758   2.779   2.798   2.871   2.885   2.892   2.914   2.931
  2.953   2.966   2.977   3.013   3.034   3.046   3.070   3.075
  3.107   3.130   3.136   3.153   3.170   3.197   3.224   3.241
  3.247   3.257   3.267   3.312   3.331   3.351   3.352   3.378
  3.385   3.400   3.430   3.440   3.455   3.465   3.482   3.505
  3.518   3.528   3.532   3.561   3.581   3.598   3.621   3.623
  3.644   3.663   3.673   3.684   3.710   3.725   3.739   3.752
  3.771   3.785   3.816   3.827   3.832   3.847   3.881   3.923
  3.937   3.959   3.998   4.035   4.073   4.085   4.130   4.162
  4.167   4.239   4.281   4.295   4.314   4.349   4.374   4.407
  4.438   4.451   4.492   4.545   4.598   4.638   4.693   4.733
  4.753   4.779   4.890   4.916   4.948   4.957   4.992   5.036
  5.097   5.107   5.145   5.160   5.273   5.297   5.341   5.350
  5.363   5.399   5.428   5.442   5.490   5.517   5.543   5.576
  5.637   5.656   5.697   5.706   5.756   5.781   5.818   5.947
  5.991   6.068   6.132   6.175   6.219   6.240   6.285   6.316
  6.344   6.416   6.447   6.553   6.651   6.669   6.716   6.732
  6.764   6.790   6.819   6.851   6.921   6.942   6.966   7.043
  7.055   7.117   7.137   7.164   7.222   7.261   7.296   7.351
  7.365   7.422   7.460   7.513   7.580   7.637   8.343  22.732
 22.908  23.007  23.105  23.675  44.251  44.411  44.484  44.606
 44.770
 --------------------------------------------------------------
 
          Ground-State Mulliken Net Atomic Charges

     Atom                 Charge (a.u.)
  ----------------------------------------
      1 C                     0.287934
      2 O                    -0.761775
      3 O                    -0.785090
      4 C                    -0.659310
      5 H                     0.262067
      6 H                     0.248714
      7 C                    -0.315927
      8 H                     0.251817
      9 H                     0.207801
     10 C                     0.843525
     11 O                    -0.658871
     12 H                     0.376688
     13 O                    -0.267249
     14 O                    -0.481604
     15 C                    -1.358611
     16 H                     0.273039
     17 H                     0.286842
     18 H                     0.250010
  ----------------------------------------
  Sum of atomic charges =    -2.000000

 -----------------------------------------------------------------
                    Cartesian Multipole Moments
 -----------------------------------------------------------------
    Charge (ESU x 10^10)
                -9.6064
    Dipole Moment (Debye)
         X      -5.1756      Y     -16.9244      Z      -2.9392
       Tot      17.9405
    Quadrupole Moments (Debye-Ang)
        XX    -105.2488     XY     -22.8514     YY    -102.5123
        XZ      -4.5977     YZ     -11.2585     ZZ     -82.1126
    Octopole Moments (Debye-Ang^2)
       XXX     -79.3103    XXY    -117.5356    XYY     -75.3196
       YYY    -203.7172    XXZ     -24.7754    XYZ     -13.2599
       YYZ     -40.7060    XZZ      -7.4887    YZZ     -58.7248
       ZZZ     -28.3687
    Hexadecapole Moments (Debye-Ang^3)
      XXXX   -1200.0897   XXXY    -426.6255   XXYY    -518.6967
      XYYY    -441.9278   YYYY   -1180.9193   XXXZ     -61.9409
      XXYZ     -78.3996   XYYZ     -57.9951   YYYZ    -218.1926
      XXZZ    -244.9649   XYZZ     -99.4693   YYZZ    -262.9226
      XZZZ     -74.2959   YZZZ    -169.7241   ZZZZ    -422.9702
 -----------------------------------------------------------------
 Calculating analytic gradient of the SCF energy
 Gradient of SCF Energy
            1           2           3           4           5           6
    1   0.0216150  -0.0423798   0.0356013   0.0800355   0.0095763  -0.0751095
    2   0.0214727  -0.0355919   0.0058450   0.0048910  -0.0175129   0.0540584
    3   0.0061507   0.0029105  -0.0190471  -0.0693855   0.0013752   0.0092550
            7           8           9          10          11          12
    1  -0.0253551  -0.0201068   0.0025067   0.0733192  -0.0204917  -0.0546328
    2  -0.2207679   0.0633538  -0.0095661   0.1928207  -0.0138164  -0.0319077
    3   0.1849141   0.0305398  -0.0691415  -0.0438895  -0.0098258  -0.0290973
           13          14          15          16          17          18
    1   0.0029937   0.0310559  -0.0407628   0.0695400  -0.0465681  -0.0008370
    2  -0.0442089   0.0509060  -0.0763565  -0.0152084   0.0359219   0.0356673
    3  -0.0019179   0.0148940  -0.0213203   0.0322187   0.0499422  -0.0685753
 Max gradient component =       2.208E-01
 RMS gradient           =       6.110E-02
 Computing fast CPCM-ISWIG gradient
 Updating gradient with PCM contributions...
 -- total gradient after adding PCM contribution --
---------------------------------------------------
  Atom         X              Y              Z     
---------------------------------------------------
   1      -0.000285      -0.000993      -0.000174
   2       0.000268       0.000468      -0.000014
   3      -0.000107       0.000216       0.000135
   4      -0.000026       0.000363       0.000077
   5       0.000086       0.000024       0.000037
[...]
 O          0.008 -0.002 -0.016   -0.009 -0.056 -0.032    0.000  0.017  0.005
 C          0.052 -0.110  0.074   -0.021  0.009 -0.022    0.023  0.008 -0.119
 H          0.128  0.464 -0.011   -0.035 -0.154 -0.015   -0.113 -0.134  0.175
 H         -0.179 -0.068 -0.167    0.047  0.008  0.038   -0.142 -0.424  0.047
 H         -0.333 -0.451 -0.173    0.079  0.070  0.025    0.139  0.461  0.194
 TransDip  -0.030 -0.093  0.227   -0.373 -0.123  0.262    0.054  0.059 -0.116

 Mode:                25                     26                     27
 Frequency:      1048.31                1093.93                1111.29
 Force Cnst:      2.8582                 1.2939                 1.4553
 Red. Mass:       4.4143                 1.8351                 2.0000
 IR Active:          YES                    YES                    YES
 IR Intens:       34.454                117.134                 88.800
 Raman Active:       YES                    YES                    YES
               X      Y      Z        X      Y      Z        X      Y      Z
 C         -0.011  0.014  0.001   -0.011 -0.013  0.027   -0.009  0.010 -0.005
 O         -0.012 -0.011  0.005   -0.047 -0.037  0.005    0.027  0.027  0.004
 O          0.016  0.002  0.016    0.062 -0.017 -0.075    0.011 -0.012 -0.014
 C          0.006  0.005 -0.004    0.078  0.145 -0.004   -0.121 -0.075  0.106
 H         -0.009 -0.020 -0.070   -0.034  0.077  0.081    0.061 -0.045 -0.001
 H          0.012  0.061 -0.025    0.309  0.666  0.077   -0.060 -0.059  0.209
 C         -0.008 -0.014  0.004   -0.068 -0.089  0.050    0.063  0.006 -0.115
 H         -0.072 -0.045  0.013   -0.393 -0.245  0.072   -0.078 -0.108  0.083
 H         -0.048 -0.024 -0.000   -0.088 -0.085  0.051    0.497  0.517 -0.072
 C          0.032  0.008 -0.018   -0.041  0.053  0.050   -0.093  0.087  0.099
 O         -0.008 -0.007  0.013   -0.008 -0.015 -0.011    0.011 -0.012 -0.009
 H          0.117  0.051 -0.769   -0.037 -0.028  0.113    0.002  0.017  0.023
 O          0.024  0.350  0.082    0.021 -0.021 -0.013    0.020 -0.017 -0.018
 O         -0.060 -0.293 -0.021   -0.001  0.017 -0.001   -0.001  0.010  0.000
 C          0.054 -0.057 -0.039    0.044 -0.028 -0.040    0.062 -0.040 -0.074
 H          0.017  0.135  0.072   -0.014  0.099  0.111   -0.041  0.113  0.182
 H         -0.165 -0.282 -0.076   -0.132 -0.247 -0.036   -0.212 -0.403 -0.052
 H         -0.081  0.015  0.004   -0.055  0.113  0.051   -0.087  0.194  0.081
 TransDip   0.023  0.012 -0.186   -0.242  0.036  0.246   -0.119  0.132  0.244

 Mode:                28                     29                     30
 Frequency:      1199.19                1218.99                1242.38
 Force Cnst:      1.9398                 1.0964                 1.3583
 Red. Mass:       2.2894                 1.2523                 1.4936
 IR Active:          YES                    YES                    YES
 IR Intens:       41.920                 23.321                261.975
 Raman Active:       YES                    YES                    YES
               X      Y      Z        X      Y      Z        X      Y      Z
 C         -0.020  0.033  0.025   -0.016  0.003 -0.023    0.008  0.045 -0.021
 O          0.003 -0.000  0.002    0.007  0.003  0.002   -0.031 -0.033  0.007
 O          0.016 -0.011 -0.023    0.000 -0.001  0.007    0.004 -0.000  0.009
 C         -0.045 -0.029  0.041    0.027 -0.009 -0.002    0.062  0.037 -0.020
 H          0.042  0.076 -0.149   -0.275  0.468  0.375   -0.186  0.480  0.407
 H         -0.041  0.047  0.012    0.118 -0.038  0.174   -0.088 -0.487  0.033
 C          0.005  0.028 -0.032   -0.067 -0.008  0.018    0.011 -0.026 -0.039
 H         -0.624 -0.243 -0.072   -0.192 -0.042 -0.069    0.233  0.032  0.121
 H          0.049  0.093 -0.034    0.605  0.193  0.079   -0.357 -0.101 -0.069
 C          0.275  0.093  0.053    0.014 -0.104 -0.044    0.013  0.036  0.147
 O         -0.036 -0.016 -0.003    0.001  0.007 -0.028   -0.004 -0.009 -0.059
 H          0.015 -0.057 -0.103    0.000  0.024 -0.023    0.013  0.024 -0.009
 O         -0.043 -0.012  0.012    0.005  0.016  0.003   -0.005 -0.002 -0.009
 O          0.011 -0.002 -0.005   -0.003 -0.004  0.004   -0.001 -0.005 -0.003
 C         -0.116 -0.010 -0.033   -0.010  0.021  0.025   -0.004 -0.004 -0.050
 H         -0.113 -0.521 -0.118    0.033  0.064 -0.052   -0.076 -0.132  0.093
 H          0.097 -0.020  0.144    0.080  0.150  0.014   -0.022 -0.167  0.055
 H          0.174 -0.095 -0.060    0.071  0.005  0.011    0.002  0.074  0.013
 TransDip   0.192  0.077  0.017   -0.042 -0.137  0.059    0.247  0.254  0.379

 Mode:                31                     32                     33
 Frequency:      1258.78                1310.65                1338.39
 Force Cnst:      2.0849                 1.7764                 2.3411
 Red. Mass:       2.2332                 1.7552                 2.2182
 IR Active:          YES                    YES                    YES
 IR Intens:      182.088                 98.972                107.183
 Raman Active:       YES                    YES                    YES
               X      Y      Z        X      Y      Z        X      Y      Z
 C          0.001 -0.031 -0.039    0.014 -0.125 -0.087    0.026  0.028 -0.012
 O          0.025  0.023 -0.000    0.056  0.061 -0.003   -0.041 -0.038  0.005
 O         -0.021  0.008  0.028   -0.044  0.023  0.056    0.005 -0.001 -0.004
 C         -0.053 -0.038 -0.034   -0.017 -0.083 -0.009    0.065  0.115  0.024
 H         -0.407  0.438  0.198    0.012  0.189  0.140   -0.014 -0.049 -0.229
 H          0.079 -0.067  0.209    0.291  0.606  0.115   -0.163 -0.372 -0.089
 C          0.140  0.024  0.036   -0.080 -0.009 -0.001   -0.117 -0.128  0.015
 H         -0.369 -0.179 -0.065    0.524  0.287 -0.035    0.431  0.100  0.091
 H         -0.333 -0.113 -0.009   -0.047  0.036 -0.006    0.494  0.205  0.068
 C         -0.060  0.169 -0.159    0.063  0.077  0.042    0.045  0.181 -0.108
 O          0.028 -0.072  0.075   -0.016 -0.019 -0.010   -0.011 -0.045  0.057
 H          0.021  0.016 -0.016    0.037  0.106 -0.001    0.010 -0.023  0.003
 O          0.006 -0.021  0.004   -0.018 -0.004 -0.000   -0.010 -0.019  0.008
 O          0.003  0.001 -0.001    0.002 -0.011 -0.004    0.004  0.000 -0.004
 C          0.025 -0.035  0.053   -0.017 -0.001 -0.015    0.010 -0.003  0.037
 H          0.072  0.042 -0.078   -0.041 -0.148  0.012    0.042 -0.166 -0.097
 H         -0.146  0.001 -0.135   -0.025 -0.101  0.043   -0.182 -0.114 -0.074
 H         -0.193 -0.219 -0.087   -0.003 -0.065 -0.050   -0.111 -0.229 -0.120
 TransDip  -0.198  0.136 -0.359    0.213 -0.198 -0.131    0.046  0.078 -0.319

 Mode:                34                     35                     36
 Frequency:      1396.91                1401.18                1452.97
 Force Cnst:      2.2761                 2.6637                 1.3944
 Red. Mass:       1.9798                 2.3027                 1.1210
 IR Active:          YES                    YES                    YES
 IR Intens:      514.528                553.662                 38.203
 Raman Active:       YES                    YES                    YES
               X      Y      Z        X      Y      Z        X      Y      Z
 C         -0.120  0.051  0.142   -0.154  0.054  0.167    0.018 -0.017 -0.029
 O          0.033  0.016 -0.015    0.042  0.021 -0.018    0.000  0.003  0.002
 O          0.049 -0.019 -0.061    0.058 -0.022 -0.071   -0.010  0.003  0.013
 C         -0.002 -0.085 -0.048    0.004 -0.093 -0.054   -0.012  0.004  0.011
 H         -0.139  0.059  0.020   -0.192  0.187 -0.068    0.030  0.008 -0.012
 H          0.048  0.091 -0.069    0.028  0.047 -0.098    0.004  0.023  0.032
 C         -0.014  0.030  0.005   -0.037  0.002  0.003   -0.014  0.067 -0.058
 H          0.124  0.084  0.032    0.323  0.132  0.111   -0.012 -0.168  0.687
 H          0.028 -0.097  0.017    0.064 -0.122  0.023    0.300 -0.625 -0.008
 C         -0.034 -0.054  0.001    0.026  0.105 -0.007    0.001  0.007 -0.006
 O          0.017  0.010 -0.004    0.013 -0.019  0.016   -0.002 -0.003  0.003
 H         -0.030 -0.175 -0.095   -0.028 -0.282 -0.153    0.012  0.001  0.000
 O          0.014 -0.000 -0.004    0.005 -0.008  0.004    0.000 -0.001  0.000
 O         -0.000  0.016  0.007    0.003  0.016  0.003   -0.002  0.000 -0.001
 C          0.061  0.140  0.032   -0.046 -0.137 -0.025    0.003  0.001  0.001
 H          0.019 -0.479 -0.009   -0.019  0.395  0.024   -0.004 -0.044  0.006
 H         -0.337 -0.405  0.051    0.258  0.350 -0.088   -0.015  0.018 -0.024
 H         -0.191 -0.390 -0.319    0.088  0.322  0.274   -0.046  0.006  0.001
 TransDip  -0.638 -0.130  0.321   -0.690  0.089  0.290    0.172 -0.089 -0.041

 Mode:                37                     38                     39
 Frequency:      1468.24                1473.44                1496.83
 Force Cnst:      1.3413                 1.3453                 6.8642
 Red. Mass:       1.0560                 1.0517                 5.1999
 IR Active:          YES                    YES                    YES
 IR Intens:        4.262                  6.909                788.506
 Raman Active:       YES                    YES                    YES
               X      Y      Z        X      Y      Z        X      Y      Z
 C         -0.008 -0.006  0.002   -0.003 -0.007 -0.003    0.330  0.359  0.014
 O          0.004  0.003 -0.001    0.002  0.002 -0.000   -0.181 -0.154  0.032
 O          0.001  0.000 -0.001   -0.001  0.001  0.001   -0.016 -0.027 -0.009
 C          0.001  0.005 -0.001    0.002  0.008  0.002   -0.090 -0.221 -0.051
 H         -0.017 -0.002 -0.005   -0.005 -0.000 -0.023   -0.316  0.178 -0.188
 H         -0.009 -0.024  0.002   -0.009 -0.019  0.001    0.242  0.549 -0.018
 C          0.005 -0.000 -0.001   -0.002 -0.004  0.006   -0.024  0.027  0.004
 H          0.010 -0.015  0.048   -0.024 -0.008 -0.019    0.210  0.134 -0.022
 H          0.015 -0.042  0.002    0.033  0.021  0.008    0.047 -0.028  0.014
 C         -0.026  0.021 -0.017    0.009  0.001 -0.032   -0.001  0.014 -0.015
 O          0.004 -0.005  0.006   -0.001 -0.001  0.006    0.034  0.002  0.017
 H          0.002 -0.025 -0.008    0.000 -0.025 -0.010    0.006  0.060  0.161
 O          0.003 -0.001  0.000   -0.001 -0.000  0.002   -0.003 -0.000  0.002
 O         -0.000  0.001  0.001    0.000  0.001  0.000   -0.006 -0.005 -0.007
 C         -0.046  0.014 -0.018    0.023  0.005 -0.046   -0.003 -0.007 -0.000
 H         -0.011  0.414  0.015   -0.275 -0.034  0.651   -0.020  0.062  0.052
 H          0.215 -0.364  0.477    0.411  0.121  0.240    0.060 -0.006  0.057
 H          0.508 -0.334 -0.207   -0.461 -0.130 -0.144   -0.000 -0.054 -0.029
 TransDip  -0.017 -0.064 -0.004   -0.069 -0.047  0.008    0.578  0.688 -0.044

 Mode:                40                     41                     42
 Frequency:      1569.57                1859.67                2708.91
 Force Cnst:      1.6701                 2.1573                 4.7403
 Red. Mass:       1.1506                 1.0587                 1.0964
 IR Active:          YES                    YES                    YES
 IR Intens:      189.618                128.420               2332.275
 Raman Active:       YES                    YES                    YES
               X      Y      Z        X      Y      Z        X      Y      Z
 C         -0.041  0.015  0.052   -0.006 -0.013 -0.009   -0.012  0.003  0.014
 O          0.012  0.006 -0.007    0.004  0.003  0.000    0.004  0.002 -0.003
 O          0.023 -0.018 -0.026   -0.002  0.001  0.003    0.011  0.000 -0.004
 C          0.003 -0.010 -0.011    0.011 -0.001  0.022    0.001 -0.002 -0.003
 H         -0.012 -0.002 -0.015    0.328  0.686 -0.644    0.023  0.006  0.006
 H         -0.008 -0.027 -0.020   -0.022 -0.002 -0.035   -0.011 -0.005  0.005
 C          0.000  0.002  0.000    0.005 -0.005  0.009    0.001  0.000 -0.000
 H          0.012 -0.003  0.022   -0.011 -0.009 -0.014   -0.005  0.002 -0.002
 H          0.019 -0.032  0.001   -0.027 -0.004  0.007   -0.001  0.003  0.006
 C          0.004  0.009 -0.010   -0.037 -0.038  0.016    0.004 -0.001 -0.004
 O          0.001 -0.001  0.002   -0.004 -0.010  0.013   -0.002 -0.000  0.001
 H         -0.036  0.964  0.233   -0.006  0.012  0.007    0.948 -0.036  0.306
 O         -0.034 -0.008 -0.005    0.003 -0.000 -0.003    0.002  0.004  0.003
 O          0.026 -0.047 -0.004    0.000  0.001  0.000   -0.070 -0.005 -0.023
 C         -0.002 -0.003  0.001    0.004  0.006  0.001   -0.001  0.001  0.001
 H         -0.007  0.016  0.013    0.005  0.005 -0.001   -0.001 -0.001 -0.001
 H          0.021  0.010  0.013   -0.008 -0.005  0.002    0.006  0.002 -0.003
 H         -0.003 -0.009 -0.003    0.004  0.002 -0.000   -0.000 -0.002  0.001
 TransDip   0.103  0.331  0.273    0.319  0.162  0.062    1.428  0.497  0.325

 Mode:                43                     44                     45
 Frequency:      3040.44                3051.33                3084.60
 Force Cnst:      5.7731                 5.6846                 6.1810
 Red. Mass:       1.0600                 1.0363                 1.1026
 IR Active:          YES                    YES                    YES
 IR Intens:       80.811                 44.426                 29.055
 Raman Active:       YES                    YES                    YES
               X      Y      Z        X      Y      Z        X      Y      Z
 C          0.001 -0.001 -0.001   -0.000  0.000  0.000   -0.000 -0.001 -0.001
 O          0.000  0.000  0.000   -0.000 -0.000 -0.000    0.000  0.000  0.000
 O         -0.000 -0.000  0.000    0.000 -0.000 -0.000   -0.000 -0.000  0.000
 C          0.007 -0.003 -0.005   -0.002  0.000  0.001   -0.021  0.008  0.013
 H          0.005 -0.001  0.005    0.003  0.000 -0.000    0.003 -0.000  0.001
 H         -0.092  0.033  0.053    0.019 -0.007 -0.011    0.249 -0.087 -0.149
 C         -0.020  0.052 -0.038    0.003 -0.007  0.007    0.026 -0.044 -0.073
 H          0.294 -0.638 -0.200   -0.041  0.089  0.028   -0.244  0.529  0.153
 H         -0.069  0.021  0.648    0.010 -0.003 -0.104   -0.069  0.005  0.727
 C          0.002  0.001 -0.000    0.000  0.002  0.000    0.001 -0.001 -0.002
 O         -0.000 -0.000  0.000   -0.000 -0.000  0.000   -0.000 -0.000  0.000
 H         -0.002  0.001 -0.002    0.004  0.000  0.002   -0.002  0.004 -0.001
 O         -0.000 -0.000  0.000   -0.000  0.000  0.000   -0.000 -0.000  0.000
 O          0.000 -0.000  0.000   -0.000 -0.000 -0.000    0.000  0.000  0.000
 C         -0.002 -0.007 -0.001   -0.022 -0.044 -0.002   -0.005  0.001  0.001
 H          0.076 -0.010  0.032    0.533 -0.053  0.228    0.032 -0.003  0.015
 H         -0.053  0.039  0.058   -0.297  0.221  0.323    0.020 -0.015 -0.022
 H          0.003  0.049 -0.079    0.024  0.338 -0.530   -0.000  0.003 -0.004
 TransDip  -0.007  0.239 -0.160   -0.092 -0.192  0.012   -0.021 -0.068 -0.157

 Mode:                46                     47                     48
 Frequency:      3109.01                3125.21                3138.61
 Force Cnst:      6.1946                 6.3464                 6.4008
 Red. Mass:       1.0877                 1.1029                 1.1028
 IR Active:          YES                    YES                    YES
 IR Intens:      105.527                 47.619                 45.183
 Raman Active:       YES                    YES                    YES
               X      Y      Z        X      Y      Z        X      Y      Z
 C         -0.004 -0.003 -0.001    0.000 -0.000  0.000    0.000 -0.000 -0.000
 O          0.001  0.001 -0.000   -0.000 -0.000 -0.000    0.000  0.000  0.000
 O          0.001  0.000  0.000   -0.000 -0.000 -0.000   -0.000  0.000  0.000
 C         -0.065  0.023  0.040    0.001 -0.000 -0.001    0.000 -0.000 -0.000
 H          0.001 -0.001  0.003   -0.004 -0.001 -0.001   -0.001 -0.001  0.000
 H          0.780 -0.273 -0.455   -0.009  0.003  0.006   -0.003  0.001  0.002
 C         -0.010  0.022  0.017   -0.000  0.000  0.001    0.001 -0.003 -0.003
 H          0.111 -0.248 -0.072    0.004 -0.005 -0.001   -0.020  0.039  0.011
 H          0.014  0.002 -0.151    0.001  0.000 -0.009   -0.002  0.001  0.028
 C          0.000  0.000  0.001   -0.001  0.001 -0.002    0.002 -0.000 -0.001
 O         -0.000  0.000 -0.000    0.000 -0.000  0.000   -0.000  0.000  0.000
 H          0.013 -0.002  0.002    0.000  0.000  0.000    0.004 -0.000  0.001
 O         -0.000  0.000 -0.000    0.000 -0.000  0.000   -0.000  0.000  0.000
 O         -0.001 -0.000 -0.000    0.000 -0.000  0.000   -0.000  0.000 -0.000
 C          0.002  0.000 -0.002   -0.038  0.030 -0.079    0.077 -0.026 -0.046
 H         -0.010 -0.000 -0.005    0.605 -0.049  0.244   -0.424  0.034 -0.192
 H         -0.008  0.006  0.009   -0.109  0.085  0.097   -0.502  0.395  0.559
 H         -0.001 -0.009  0.014   -0.039 -0.399  0.611    0.003 -0.129  0.185
 TransDip  -0.244  0.110  0.191   -0.095  0.072 -0.186    0.190 -0.040 -0.093

 STANDARD THERMODYNAMIC QUANTITIES AT   298.15 K  AND     1.00 ATM

   This Molecule has  1 Imaginary Frequencies
   Zero point vibrational energy:       81.226 kcal/mol

   Atom    1 Element C  Has Mass   12.00000
   Atom    2 Element O  Has Mass   15.99491
   Atom    3 Element O  Has Mass   15.99491
   Atom    4 Element C  Has Mass   12.00000
   Atom    5 Element H  Has Mass    1.00783
   Atom    6 Element H  Has Mass    1.00783
   Atom    7 Element C  Has Mass   12.00000
   Atom    8 Element H  Has Mass    1.00783
   Atom    9 Element H  Has Mass    1.00783
   Atom   10 Element C  Has Mass   12.00000
   Atom   11 Element O  Has Mass   15.99491
   Atom   12 Element H  Has Mass    1.00783
   Atom   13 Element O  Has Mass   15.99491
   Atom   14 Element O  Has Mass   15.99491
   Atom   15 Element C  Has Mass   12.00000
   Atom   16 Element H  Has Mass    1.00783
   Atom   17 Element H  Has Mass    1.00783
   Atom   18 Element H  Has Mass    1.00783
   Molecular Mass:   148.037190 amu
   Principal axes and moments of inertia in amu*Bohr^2:
                             1           2           3
    Eigenvalues --      739.02643  1961.79443  2314.72287
          X               0.73608     0.63029     0.24682
          Y               0.63779    -0.52365    -0.56481
          Z               0.22675    -0.57316     0.78744
   Rotational Symmetry Number is   1
   The Molecule is an Asymmetric Top
   Translational Enthalpy:        0.889 kcal/mol
   Rotational Enthalpy:           0.889 kcal/mol
   Vibrational Enthalpy:         85.324 kcal/mol
   gas constant (RT):             0.592 kcal/mol
   Translational Entropy:        40.887  cal/mol.K
   Rotational Entropy:           29.596  cal/mol.K
   Vibrational Entropy:          23.872  cal/mol.K

   Total Enthalpy:               87.694 kcal/mol
   Total Entropy:                94.356  cal/mol.K
Archival summary:
1\1\c5-67\FREQ\ProcedureUnspecified\BasisUnspecified\558(2-,1)\leeping\SatMay1922:41:182018SatMay1922:41:182018\0\\#,FREQ,ProcedureUnspecified,BasisUnspecified,\\-2,1\O\O,1,1.42727\H,2,1.02344,1,107.364\C,1,1.4643,2,111.862,3,-54.48,0\O,4,1.36691,1,112.041,2,-50.6816,0\H,5,1.15366,4,96.1595,1,106.435,0\C,6,1.50707,5,141.14,4,10.4555,0\H,7,1.09169,6,110.34,5,114.904,0\C,7,1.45832,6,113.377,5,-118.067,0\O,9,1.27305,7,120.472,6,-105.385,0\O,9,1.29768,7,118.743,6,72.8941,0\C,7,1.51719,6,83.3991,5,0.728825,0\H,12,1.0964,7,114.181,6,-132.658,0\H,12,1.09641,7,110.166,6,106.701,0\C,4,1.52223,1,101.639,2,-171.659,0\H,15,1.09297,4,108.761,1,179.499,0\H,15,1.094,4,110.673,1,59.8994,0\H,15,1.09486,4,111.012,1,-61.2009,0\\\@

 Total job time:  41348.01s(wall), 571161.94s(cpu) 
 Sat May 19 22:41:18 2018

        *************************************************************
        *                                                           *
        *  Thank you very much for using Q-Chem.  Have a nice day.  *
        *                                                           *
        *************************************************************


