14   
From 2-transition-freq.out: Frame 1 / 85, Energy=    -494.2439937977
C       -0.2314921043    0.3579276649    0.3596458929
C       -0.2198300014    1.6874057246   -0.2815330563
O       -0.0083057896    1.7778457382   -1.5392315406
O       -0.4955061364    2.7138698492    0.4322606115
C        0.5431087798   -0.7292342237   -0.2904596775
H       -0.0844607037    0.4128742357    1.4430011908
H        0.3144882050   -0.7995990680   -1.3595731426
H        0.3527289882   -1.7076073467    0.1730064890
O        2.0051702449   -0.5860468047   -0.3406670755
O        2.5171980044   -0.6957250498    0.9872098465
H       -1.6557297990   -0.0726965773    0.1786466149
O       -2.7585828543   -0.4267856228    0.0516365743
H       -2.9629768114   -0.2846547631   -0.8796819346
H        2.6841899778   -1.6475737565    1.0657392076
