
Running Job 1 of 1 qc-freq1.in
qchem qc-freq1.in_25633.0 /scratch/lmgong/1862653/qc-freq1.d/ 1
/home/leeping/opt/qchem/5.0.2-openmp/exe/qcprog.exe_s qc-freq1.in_25633.0 /scratch/lmgong/1862653/qc-freq1.d/
Check license passed

                  Welcome to Q-Chem
     A Quantum Leap Into The Future Of Chemistry


 Q-Chem 5.0, Q-Chem, Inc., Pleasanton, CA (2017)

 Yihan Shao,  Zhengting Gan,  E. Epifanovsky,  A. T. B. Gilbert,  M. Wormit,  
 J. Kussmann,  A. W. Lange,  A. Behn,  Jia Deng,  Xintian Feng,  D. Ghosh,  
 M. Goldey,  P. R. Horn,  L. D. Jacobson,  I. Kaliman,  T. Kus,  A. Landau,  
 Jie Liu,  E. I. Proynov,  R. M. Richard,  R. P. Steele,  E. J. Sundstrom,  
 H. L. Woodcock III,  P. M. Zimmerman,  D. Zuev,  B. Albrecht,  E. Alguire,  
 S. A. Baeppler,  D. Barton,  Z. Benda,  Y. A. Bernard,  E. J. Berquist,  
 K. B. Bravaya,  H. Burton,  D. Casanova,  Chun-Min Chang,  Yunqing Chen,  
 A. Chien,  K. D. Closser,  M. P. Coons,  S. Dasgupta,  A. L. Dempwolff,  
 M. Diedenhofen,  Hainam Do,  R. G. Edgar,  Po-Tung Fang,  S. Fatehi,  
 Qingguo Feng,  J. Fosso-Tande,  Qinghui Ge,  A. Ghysels,  G. Gidofalvi,  
 J. Gomes,  J. Gonthier,  A. Gunina,  M. W. D. Hanson-Heine,  
 P. H. P. Harbach,  A. W. Hauser,  J. E. Herr,  E. G. Hohenstein,  
 Z. C. Holden,  Kerwin Hui,  T.-C. Jagau,  Hyunjun Ji,  B. Kaduk,  
 K. Khistyaev,  Jaehoon Kim,  P. Klunzinger,  K. Koh,  D. Kosenkov,  
 L. Koulias,  T. Kowalczyk,  C. M. Krauter,  A. Kunitsa,  Ka Un Lao,  
 A. Laurent,  K. V. Lawler,  Joonho Lee,  D. Lefrancois,  S. Lehtola,  
 D. S. Levine,  Yi-Pei Li,  You-Sheng Lin,  Fenglai Liu,  E. Livshits,  
 A. Luenser,  P. Manohar,  E. Mansoor,  S. F. Manzer,  Shan-Ping Mao,  
 Yuezhi Mao,  N. Mardirossian,  A. V. Marenich,  T. Markovich,  
 L. A. Martinez-Martinez,  S. A. Maurer,  N. J. Mayhall,  S. C. McKenzie,  
 J.-M. Mewes,  A. F. Morrison,  J. W. Mullinax,  K. Nanda,  
 T. S. Nguyen-Beck,  R. Olivares-Amaya,  J. A. Parkhill,  T. M. Perrine,  
 F. Plasser,  S. Prager,  A. Prociuk,  E. Ramos,  D. R. Rehn,  F. Rob,  
 M. Schneider,  N. Sergueev,  S. M. Sharada,  S. Sharma,  D. W. Small,  
 T. Stauch,  T. Stein,  Yu-Chuan Su,  A. J. W. Thom,  A. Tkatchenko,  
 T. Tsuchimochi,  L. Vogt,  O. Vydrov,  M. A. Watson,  J. Wenzel,  
 M. de Wergifosse,  T. A. Wesolowski,  A. White,  J. Witte,  A. Yamada,  
 Jun Yang,  K. Yao,  S. Yeganeh,  S. R. Yost,  Zhi-Qiang You,  A. Zech,  
 Igor Ying Zhang,  Xing Zhang,  Yan Zhao,  Ying Zhu,  B. R. Brooks,  
 G. K. L. Chan,  C. J. Cramer,  M. S. Gordon,  W. J. Hehre,  A. Klamt,  
 M. W. Schmidt,  C. D. Sherrill,  D. G. Truhlar,  A. Aspuru-Guzik,  R. Baer,  
 A. T. Bell,  N. A. Besley,  Jeng-Da Chai,  R. A. DiStasio Jr.,  A. Dreuw,  
 B. D. Dunietz,  T. R. Furlani,  Chao-Ping Hsu,  Yousung Jung,  Jing Kong,  
 D. S. Lambrecht,  WanZhen Liang,  C. Ochsenfeld,  V. A. Rassolov,  
 L. V. Slipchenko,  J. E. Subotnik,  T. Van Voorhis,  J. M. Herbert,  
 A. I. Krylov,  P. M. W. Gill,  M. Head-Gordon

 Contributors to earlier versions of Q-Chem not listed above: 
 R. D. Adamson,  B. Austin,  J. Baker,  G. J. O. Beran,  K. Brandhorst,  
 S. T. Brown,  E. F. C. Byrd,  A. K. Chakraborty,  C.-L. Cheng,  
 Siu Hung Chien,  D. M. Chipman,  D. L. Crittenden,  H. Dachsel,  
 R. J. Doerksen,  A. D. Dutoi,  L. Fusti-Molnar,  W. A. Goddard III,  
 A. Golubeva-Zadorozhnaya,  S. R. Gwaltney,  G. Hawkins,  A. Heyden,  
 S. Hirata,  G. Kedziora,  F. J. Keil,  C. Kelley,  Jihan Kim,  R. A. King,  
 R. Z. Khaliullin,  P. P. Korambath,  W. Kurlancheek,  A. M. Lee,  M. S. Lee,  
 S. V. Levchenko,  Ching Yeh Lin,  D. Liotard,  R. C. Lochan,  I. Lotan,  
 P. E. Maslen,  N. Nair,  D. P. O'Neill,  D. Neuhauser,  E. Neuscamman,  
 C. M. Oana,  R. Olson,  B. Peters,  R. Peverati,  P. A. Pieniazek,  
 Y. M. Rhee,  J. Ritchie,  M. A. Rohrdanz,  E. Rosta,  N. J. Russ,  
 H. F. Schaefer III,  N. E. Schultz,  N. Shenvi,  A. C. Simmonett,  A. Sodt,  
 D. Stuck,  K. S. Thanthiriwatte,  V. Vanovschi,  Tao Wang,  A. Warshel,  
 C. F. Williams,  Q. Wu,  X. Xu,  W. Zhang

 Please cite Q-Chem as follows:
 Y. Shao et al., Mol. Phys. 113, 184-215 (2015)
 DOI: 10.1080/00268976.2014.952696

 Q-Chem 5.0.2 for Intel X86 EM64T Linux

 Parts of Q-Chem use Armadillo 5.200.1 (Boston Tea Smuggler).
 http://arma.sourceforge.net/

 Q-Chem begins on Fri Mar 20 13:57:27 2020  

Host: 
0

     Scratch files written to /scratch/lmgong/1862653/qc-freq1.d//
 Dec517 15110_ 26548  26544 5633   
Processing $rem in /home/leeping/opt/qchem/5.0.2-openmp/config/preferences.
 MEM_STATIC 2000
 MEM_TOTAL  8000
 SYMMETRY   OFF
 SYM_IGNORE TRUE 
Symmetry turned off for PCM/SM12/SMD calculation

Checking the input file for inconsistencies... 	...done.

--------------------------------------------------------------
User input:
--------------------------------------------------------------
$molecule
-2 1
C       -0.4293337993    0.5481844110    1.0011154516
C       -0.1689358101    1.8610298368    0.2422744403
O       -0.3118421386    1.8404834791   -1.0074259891
O        0.1420396446    2.8680820527    0.9300893199
C        0.1354849877   -0.6751569239    0.3077341479
H       -0.0440372527    0.6232054298    2.0202054027
H       -0.2089128971   -0.7263305227   -0.7284435130
H       -0.1464932031   -1.5991597716    0.8266084052
O        1.5610902913   -0.6341128481    0.1740092772
O        2.1370841906   -0.7503413033    1.4740079336
H       -1.5169627487    0.4193360870    1.0717738824
O       -3.4191426365   -0.9032429538   -1.1119323313
H       -2.6941576462   -0.2714002003   -1.0604926096
H        2.2967978291   -1.7049383132    1.5424420735
$end

$rem
jobtype               freq
method                wb97x-v
basis                 def2-tzvpd
symmetry              off
sym_ignore            true
incdft                false
incfock               0
!scf_algorithm        diis_gdm
scf_convergence       8
thresh                14
!purecart             112
max_scf_cycles        1000
geom_opt_max_cycles   500
geom_opt_dmax         100
geom_opt_tol_gradient 10
solvent_method        pcm
ideriv                1
rpath_tol_displacement 1000
rpath_max_cycles      100
rpath_direction       1
!scf_guess            read
scf_guess             read
$end

$pcm
theory              cosmo
method              iswig
Radii               bondi
vdwScale            1.20
hpoints             110
heavypoints         110
$end

$solvent
dielectric 78.400000
$end

--------------------------------------------------------------
 ----------------------------------------------------------------
             Standard Nuclear Orientation (Angstroms)
    I     Atom           X                Y                Z
 ----------------------------------------------------------------
    1      C      -0.4293337993     0.5481844110     1.0011154516
    2      C      -0.1689358101     1.8610298368     0.2422744403
    3      O      -0.3118421386     1.8404834791    -1.0074259891
    4      O       0.1420396446     2.8680820527     0.9300893199
    5      C       0.1354849877    -0.6751569239     0.3077341479
    6      H      -0.0440372527     0.6232054298     2.0202054027
    7      H      -0.2089128971    -0.7263305227    -0.7284435130
    8      H      -0.1464932031    -1.5991597716     0.8266084052
    9      O       1.5610902913    -0.6341128481     0.1740092772
   10      O       2.1370841906    -0.7503413033     1.4740079336
   11      H      -1.5169627487     0.4193360870     1.0717738824
   12      O      -3.4191426365    -0.9032429538    -1.1119323313
   13      H      -2.6941576462    -0.2714002003    -1.0604926096
   14      H       2.2967978291    -1.7049383132     1.5424420735
 ----------------------------------------------------------------
 Nuclear Repulsion Energy =   367.9941822568 hartrees
 There are       33 alpha and       33 beta electrons
 Requested basis set is def2-TZVPD
 There are 139 shells and 365 basis functions

 Total QAlloc Memory Limit   8000 MB
 Mega-Array Size      1956 MB
 MEM_STATIC part      2000 MB
 Discretize the solute cavity surface with Lebedev spheres
	Using 110 Lebedev grid points for each H atom
	Using 110 Lebedev grid points for other atoms
	Atomic van der Waals radii will be scaled by 1.20
 Remove points where switching function is < 1.0e-08
 Keep 932 surface tesserae and discard 608 interior tesserae
 Molecular Surface Area = 181.048 Angst**2

                       Distance Matrix (Angstroms)
             C (  1)   C (  2)   O (  3)   O (  4)   C (  5)   H (  6)
   C (  2)  1.538574
   O (  3)  2.391251  1.258013
   O (  4)  2.390280  1.258550  2.239628
   C (  5)  1.515375  2.555230  2.873707  3.597487
   H (  6)  1.092074  2.169988  3.274147  2.502489  2.156509
   H (  7)  2.159710  2.763752  2.583981  3.974129  1.093112  3.066513
   H (  8)  2.172910  3.509254  3.901560  4.477746  1.096596  2.524694
   O (  9)  2.458398  3.037003  3.320737  3.853665  1.432452  2.750586
   O ( 10)  2.914841  3.695153  4.343631  4.167618  2.317811  2.634816
   H ( 11)  1.097511  2.140964  2.791961  2.961203  2.124207  1.763688
   O ( 12)  3.938346  4.476486  4.146598  5.574474  3.834430  4.850945
   H ( 13)  3.170390  3.552634  3.184069  4.675765  3.168902  4.161028
   H ( 14)  3.577903  4.526191  5.086929  5.092197  2.693738  3.335869
             H (  7)   H (  8)   O (  9)   O ( 10)   H ( 11)   O ( 12)
   H (  8)  1.784352
   O (  9)  1.988928  2.067134
   O ( 10)  3.217930  2.520783  1.426630
   H ( 11)  2.502864  2.452064  3.374929  3.857719
   O ( 12)  3.237891  3.866843  5.150611  6.130426  3.183721
   H ( 13)  2.548266  3.437250  4.445525  5.476676  2.531692  0.963055
   H ( 14)  3.520395  2.548191  1.886940  0.970282  4.390768  6.352983
             H ( 13)
   H ( 14)  5.808609
 
 A cutoff of  1.0D-14 yielded   8947 shell pairs
 There are     61929 function pairs (     78886 Cartesian)
 
 -------------------------------------------------------
 OpenMP Integral Computing Module                       
 Release: version 1.0, May 2013, Q-Chem Inc. Pittsburgh 
 -------------------------------------------------------
 Integral Job Info:
 Integral job number is                      11
 Integral operator is                         1
 short-range coefficients              16700000
 long-range coefficients              100000000
 Omega coefficients                         300
 if combine SR and LR in K                    1
 Integral screening is                        0
 Integral computing path is                   2
 max size of driver memory is            800000
 size of driver memory is                776718
 size of scratch memory is              4473992
 max col of scratch BK array              10000
 max len of scratch array in speh3          662
 max len of scratch index in speh4           32
 max int batch size is                      520
 min int batch size is                       52
 fixed nKL is                                52
 max L of basis functions is                  3
 order of int derivative is                   0
 number of shells is                        139
 number of basis is                         413
 number of cartesian basis is               413
 number of contracted shell pairs          8947
 number of primitive shell pairs          18318
 maxK2 (contraction) of shell pair           36
 max number of K2 of shell pair               1
 max number of CS2 of shell pair           1460
 max number of PS2 of shell pair           2070
 mem total for path MDJ                  688060
 -------------------------------------------------------
 Smallest overlap matrix eigenvalue = 5.53E-06
 Guess MOs from SCF MO coefficient file
 Reading MOs from coefficient file
 Reading MOs from coefficient file
 Long-range K will be added via erf
 Coulomb attenuation parameter = 0.3 bohr**(-1)
 A restricted hybrid HF-DFT SCF calculation will be
 performed using Pulay DIIS extrapolation
 Polarizable Continuum solvation model will be applied
 Exchange:     0.1670 Hartree-Fock + 1.0000 wB97X-V + LR-HF
 Correlation:  1.0000 wB97X-V
 Using SG-2 standard quadrature grid
 Nonlocal Correlation:  VV10 with C = 0.0100 and b = 6.00
 Grid used for NLC:  SG-1 standard quadrature
 SCF converges when DIIS error is below 1.0E-08
Using Q-Chem read-in guess as SCF_GUESS READ specified.

 using 16 threads for integral computing
 -------------------------------------------------------
 OpenMP Integral computing Module                
 Release: version 1.0, May 2013, Q-Chem Inc. Pittsburgh 
 -------------------------------------------------------
 using 16 threads for integral computing
 -------------------------------------------------------
 OpenMP Integral computing Module                
 Release: version 1.0, May 2013, Q-Chem Inc. Pittsburgh 
 -------------------------------------------------------
 -------------------------------------------------------
 OpenMP BLAS3 based DFT computing Module                
 Release: version 1.0, May 2013, Q-Chem Inc. Pittsburgh 
 -------------------------------------------------------
 -------------------------------------------------------
 OpenMP BLAS3 based DFT computing Module                
 Release: version 1.0, May 2013, Q-Chem Inc. Pittsburgh 
 -------------------------------------------------------
 -------------------------------------------------------
 OpenMP BLAS3 based DFT computing Module                
 Release: version 1.0, May 2013, Q-Chem Inc. Pittsburgh 
 -------------------------------------------------------
 ---------------------------------------
  Cycle       Energy         DIIS Error
 ---------------------------------------
    1    -493.9217930791      5.39E-04
    2    -494.2594201751      6.17E-04
    3    -494.2680038331      2.89E-04
    4    -494.2694013352      2.04E-04
    5    -494.2703125687      1.54E-04
    6    -494.2707890517      1.19E-04
    7    -494.2711164870      8.85E-05
    8    -494.2712881876      6.69E-05
    9    -494.2713891243      5.00E-05
   10    -494.2714452629      3.74E-05
   11    -494.2714740667      2.89E-05
   12    -494.2714916159      2.21E-05
   13    -494.2715013776      1.72E-05
   14    -494.2715071164      1.36E-05
   15    -494.2715101408      1.12E-05
   16    -494.2715126494      8.66E-06
   17    -494.2715164494      7.61E-09 Convergence criterion met
 ---------------------------------------

************** Final PCM Free Energy Summary **************
 G_electrostatic  =      -0.34972464 hartree =    -219.45552470 kcal/mol
 G_cavitation     =       0.00000000 hartree =       0.00000000 kcal/mol
 G_dispersion     =       0.00000000 hartree =       0.00000000 kcal/mol
 G_repulsion      =       0.00000000 hartree =       0.00000000 kcal/mol
 --------------------------------------------------
 Non-electrostatic Free Energy =       0.00000000 hartree =       0.00000000 kcal/mol
 Total                         =      -0.34972464 hartree =    -219.45552470 kcal/mol
 --------------------------------------------------
 SCF Energy (H0 + V/2)                       =    -494.27151645 
 Solute Internal Energy (H0)                 =    -493.92179181 
 Total Free Energy (H0 + V/2 + non-elec)     =    -494.27151645 hartree
                                             = -310160.05781750 kcal/mol
***********************************************************

 SCF time:  CPU 1960.99 s  wall 141.88 s
 SCF   energy in the final basis set = -494.27151645
 Total energy in the final basis set = -494.27151645
 
 --------------------------------------------------------------
 
                    Orbital Energies (a.u.)
 --------------------------------------------------------------
 
 Alpha MOs
 -- Occupied --
-19.270 -19.266 -19.141 -19.141 -19.092 -10.343 -10.308 -10.250
 -1.258  -1.145  -1.051  -1.035  -0.965  -0.874  -0.750  -0.644
 -0.605  -0.592  -0.584  -0.532  -0.530  -0.522  -0.488  -0.462
 -0.446  -0.445  -0.405  -0.383  -0.349  -0.337  -0.332  -0.312
 -0.312
 -- Virtual --
  0.060   0.075   0.080   0.087   0.101   0.111   0.116   0.118
  0.125   0.138   0.143   0.150   0.159   0.162   0.162   0.165
  0.168   0.178   0.186   0.199   0.212   0.217   0.228   0.237
  0.241   0.254   0.263   0.265   0.272   0.280   0.298   0.307
  0.318   0.322   0.326   0.339   0.347   0.357   0.363   0.367
  0.378   0.382   0.383   0.389   0.393   0.397   0.406   0.410
  0.420   0.425   0.438   0.449   0.451   0.458   0.474   0.480
  0.486   0.490   0.497   0.505   0.507   0.522   0.524   0.535
  0.540   0.552   0.560   0.565   0.574   0.577   0.581   0.587
  0.597   0.605   0.613   0.621   0.626   0.633   0.638   0.663
  0.666   0.669   0.678   0.694   0.698   0.704   0.716   0.718
  0.727   0.743   0.749   0.756   0.761   0.774   0.777   0.788
  0.795   0.815   0.823   0.828   0.835   0.849   0.856   0.868
  0.878   0.893   0.903   0.917   0.920   0.934   0.952   0.961
  0.973   0.996   1.005   1.028   1.039   1.043   1.073   1.083
  1.091   1.110   1.122   1.146   1.163   1.181   1.193   1.218
  1.233   1.240   1.261   1.287   1.304   1.320   1.347   1.354
  1.387   1.390   1.421   1.442   1.463   1.482   1.515   1.531
  1.549   1.626   1.654   1.713   1.730   1.760   1.773   1.805
  1.873   1.878   1.901   1.922   1.937   1.944   1.947   1.952
  1.964   1.983   1.994   2.000   2.033   2.047   2.056   2.090
  2.109   2.115   2.125   2.167   2.202   2.208   2.236   2.258
  2.269   2.303   2.323   2.354   2.356   2.367   2.412   2.423
  2.461   2.471   2.494   2.508   2.542   2.548   2.635   2.636
  2.659   2.703   2.715   2.733   2.759   2.783   2.831   2.843
  2.851   2.890   2.904   2.947   2.967   2.993   3.015   3.054
  3.065   3.084   3.101   3.129   3.149   3.169   3.183   3.216
  3.246   3.267   3.308   3.320   3.344   3.369   3.406   3.431
  3.438   3.487   3.502   3.508   3.530   3.544   3.565   3.578
  3.590   3.637   3.642   3.656   3.697   3.703   3.731   3.755
  3.771   3.809   3.818   3.835   3.957   4.031   4.080   4.111
  4.120   4.144   4.216   4.256   4.316   4.367   4.400   4.561
  4.645   4.732   4.760   4.776   4.878   4.892   4.951   5.020
  5.058   5.102   5.199   5.222   5.323   5.347   5.349   5.355
  5.365   5.370   5.374   5.375   5.384   5.501   5.508   5.580
  5.668   5.674   5.688   5.714   5.718   5.775   5.911   5.997
  6.008   6.109   6.221   6.254   6.303   6.330   6.340   6.435
  6.584   6.615   6.623   6.624   6.631   6.642   6.668   6.694
  6.714   6.726   6.763   6.773   6.781   6.865   6.951   6.974
  7.025   7.043   7.059   7.229   7.268   7.281   7.369   7.394
  7.410   7.417   7.494   8.281  22.789  22.807  23.732  43.943
 44.075  44.312  44.446  44.592
 --------------------------------------------------------------
 
          Ground-State Mulliken Net Atomic Charges

     Atom                 Charge (a.u.)
  ----------------------------------------
      1 C                    -0.024992
      2 C                     0.156035
      3 O                    -0.706227
      4 O                    -0.715506
      5 C                    -0.154709
      6 H                     0.166944
      7 H                     0.161905
      8 H                     0.180142
      9 O                    -0.247890
     10 O                    -0.379200
     11 H                     0.213513
     12 O                    -1.124319
     13 H                     0.114270
     14 H                     0.360034
  ----------------------------------------
  Sum of atomic charges =    -2.000000

 -----------------------------------------------------------------
                    Cartesian Multipole Moments
 -----------------------------------------------------------------
    Charge (ESU x 10^10)
                -9.6064
    Dipole Moment (Debye)
         X      15.5127      Y      -9.4093      Z       6.7189
       Tot      19.3474
    Quadrupole Moments (Debye-Ang)
        XX    -118.2144     XY     -21.3917     YY     -88.3859
        XZ     -21.2257     YZ     -10.8075     ZZ     -66.7480
    Octopole Moments (Debye-Ang^2)
       XXX     257.9195    XXY      26.5007    XYY      38.3141
       YYY    -174.8144    XXZ      62.8232    XYZ       7.6808
       YYZ      -8.7895    XZZ      40.4900    YZZ     -38.4624
       ZZZ     -18.7007
    Hexadecapole Moments (Debye-Ang^3)
      XXXX   -1760.3482   XXXY    -233.1432   XXYY    -316.4263
      XYYY     -66.6816   YYYY   -1035.9547   XXXZ    -411.8060
      XXYZ     -92.1341   XYYZ     -63.9076   YYYZ    -107.5491
      XXZZ    -307.4398   XYZZ     -40.6870   YYZZ    -224.3155
      XZZZ    -200.4844   YZZZ     -51.9716   ZZZZ    -376.4741
 -----------------------------------------------------------------
 Calculating analytic gradient of the SCF energy
 Gradient of SCF Energy
            1           2           3           4           5           6
    1  -0.0268112   0.0026445   0.0018408  -0.0188303  -0.0422444  -0.0271241
    2  -0.0024779   0.0246311  -0.0087699  -0.0551554  -0.0211385  -0.0005258
    3   0.1056813  -0.0650074   0.0650974  -0.0264641  -0.0605184  -0.0599253
            7           8           9          10          11          12
    1   0.0305860   0.0164684  -0.0067450   0.0112008   0.0705929   0.0744781
    2  -0.0085313   0.0658944  -0.0058367  -0.0322874   0.0056120   0.0480959
    3   0.0753322  -0.0302944  -0.0294923   0.0248896   0.0000160   0.0191232
           13          14
    1  -0.0760281  -0.0100282
    2  -0.0470179   0.0375074
    3  -0.0203612   0.0019235
 Max gradient component =       1.057E-01
 RMS gradient           =       4.183E-02
 Computing fast CPCM-ISWIG gradient
 Updating gradient with PCM contributions...
 -- total gradient after adding PCM contribution --
---------------------------------------------------
  Atom         X              Y              Z     
---------------------------------------------------
   1       0.000004       0.000003      -0.000001
   2      -0.000003       0.000001       0.000005
   3       0.000001       0.000001      -0.000004
   4      -0.000001      -0.000002      -0.000002
   5      -0.000001      -0.000001       0.000000
   6      -0.000003      -0.000004       0.000000
   7       0.000001      -0.000001       0.000001
   8       0.000001      -0.000001      -0.000002
   9       0.000003       0.000002       0.000002
  10       0.000000       0.000003      -0.000004
  11      -0.000001       0.000004       0.000000
  12      -0.000000      -0.000002       0.000000
  13      -0.000000      -0.000001       0.000001
  14      -0.000002      -0.000001       0.000002
---------------------------------------------------
 Number of fixed atoms: 0
 Gradient time:  CPU 397.19 s  wall 29.32 s
 ######################################################
 ######################################################
 # Starting finite difference calculation for IDERIV  #
 Finite diff step size:  1.88973e-03 a.u.
 ----------------------------------------------------------------
             Standard Nuclear Orientation (Angstroms)
    I     Atom           X                Y                Z
 ----------------------------------------------------------------
    1      C      -0.4283337993     0.5481844110     1.0011154516
    2      C      -0.1689358101     1.8610298368     0.2422744403
    3      O      -0.3118421386     1.8404834791    -1.0074259891
    4      O       0.1420396446     2.8680820527     0.9300893199
    5      C       0.1354849877    -0.6751569239     0.3077341479
    6      H      -0.0440372527     0.6232054298     2.0202054027
    7      H      -0.2089128971    -0.7263305227    -0.7284435130
    8      H      -0.1464932031    -1.5991597716     0.8266084052
    9      O       1.5610902913    -0.6341128481     0.1740092772
   10      O       2.1370841906    -0.7503413033     1.4740079336
   11      H      -1.5169627487     0.4193360870     1.0717738824
   12      O      -3.4191426365    -0.9032429538    -1.1119323313
   13      H      -2.6941576462    -0.2714002003    -1.0604926096
   14      H       2.2967978291    -1.7049383132     1.5424420735
 ----------------------------------------------------------------
 Nuclear Repulsion Energy =   368.0031538405 hartrees
 There are       33 alpha and       33 beta electrons
 Discretize the solute cavity surface with Lebedev spheres
	Using 110 Lebedev grid points for each H atom
	Using 110 Lebedev grid points for other atoms
	Atomic van der Waals radii will be scaled by 1.20
 Remove points where switching function is < 1.0e-08
 Keep 931 surface tesserae and discard 609 interior tesserae
 Molecular Surface Area = 181.044 Angst**2

                       Distance Matrix (Angstroms)
             C (  1)   C (  2)   O (  3)   O (  4)   C (  5)   H (  6)
   C (  2)  1.538405
   O (  3)  2.391202  1.258013
   O (  4)  2.390041  1.258550  2.239628
   C (  5)  1.515003  2.555230  2.873707  3.597487
   H (  6)  1.091722  2.169988  3.274147  2.502489  2.156509
   H (  7)  2.159608  2.763752  2.583981  3.974129  1.093112  3.066513
   H (  8)  2.172780  3.509254  3.901560  4.477746  1.096596  2.524694
   O (  9)  2.457588  3.037003  3.320737  3.853665  1.432452  2.750586
   O ( 10)  2.913960  3.695153  4.343631  4.167618  2.317811  2.634816
   H ( 11)  1.098502  2.140964  2.791961  2.961203  2.124207  1.763688
   O ( 12)  3.939105  4.476486  4.146598  5.574474  3.834430  4.850945
   H ( 13)  3.171105  3.552634  3.184069  4.675765  3.168902  4.161028
   H ( 14)  3.577141  4.526191  5.086929  5.092197  2.693738  3.335869
             H (  7)   H (  8)   O (  9)   O ( 10)   H ( 11)   O ( 12)
   H (  8)  1.784352
   O (  9)  1.988928  2.067134
   O ( 10)  3.217930  2.520783  1.426630
   H ( 11)  2.502864  2.452064  3.374929  3.857719
   O ( 12)  3.237891  3.866843  5.150611  6.130426  3.183721
   H ( 13)  2.548266  3.437250  4.445525  5.476676  2.531692  0.963055
   H ( 14)  3.520395  2.548191  1.886940  0.970282  4.390768  6.352983
             H ( 13)
   H ( 14)  5.808609
 
 Requested basis set is def2-TZVPD
 There are 139 shells and 365 basis functions
 A cutoff of  1.0D-14 yielded   8947 shell pairs
 There are     61929 function pairs (     78886 Cartesian)
 Smallest overlap matrix eigenvalue = 5.53E-06
 Guess MOs from SCF MO coefficient file
 Reading MOs from coefficient file
 Reading MOs from coefficient file
 Long-range K will be added via erf
 Coulomb attenuation parameter = 0.3 bohr**(-1)
 A restricted hybrid HF-DFT SCF calculation will be
 performed using Pulay DIIS extrapolation
 Polarizable Continuum solvation model will be applied
 Exchange:     0.1670 Hartree-Fock + 1.0000 wB97X-V + LR-HF
 Correlation:  1.0000 wB97X-V
 Using SG-2 standard quadrature grid
 Nonlocal Correlation:  VV10 with C = 0.0100 and b = 6.00
 Grid used for NLC:  SG-1 standard quadrature
 SCF converges when DIIS error is below 1.0E-08
Using Q-Chem read-in guess as SCF_GUESS READ specified.

 using 16 threads for integral computing
 -------------------------------------------------------
 OpenMP Integral computing Module                
 Release: version 1.0, May 2013, Q-Chem Inc. Pittsburgh 
 -------------------------------------------------------
 using 16 threads for integral computing
 -------------------------------------------------------
 OpenMP Integral computing Module                
 Release: version 1.0, May 2013, Q-Chem Inc. Pittsburgh 
 -------------------------------------------------------
 -------------------------------------------------------
 OpenMP BLAS3 based DFT computing Module                
 Release: version 1.0, May 2013, Q-Chem Inc. Pittsburgh 
 -------------------------------------------------------
 -------------------------------------------------------
 OpenMP BLAS3 based DFT computing Module                
 Release: version 1.0, May 2013, Q-Chem Inc. Pittsburgh 
 -------------------------------------------------------
 -------------------------------------------------------
 OpenMP BLAS3 based DFT computing Module                
 Release: version 1.0, May 2013, Q-Chem Inc. Pittsburgh 
 -------------------------------------------------------
 ---------------------------------------
  Cycle       Energy         DIIS Error
 ---------------------------------------
    1    -493.9217877769      5.40E-04
    2    -494.2594171625      6.17E-04
    3    -494.2680037921      2.89E-04
    4    -494.2694020681      2.04E-04
    5    -494.2703171458      1.53E-04
    6    -494.2708089341      1.17E-04
    7    -494.2711659860      8.27E-05
    8    -494.2713568391      5.58E-05
    9    -494.2714640102      3.18E-05
   10    -494.2715084938      1.18E-05
   11    -494.2715146481      4.05E-06
   12    -494.2715154425      7.20E-07
   13    -494.2715154661      1.91E-07
   14    -494.2715154679      2.21E-08
   15    -494.2715154679      1.13E-08
   16    -494.2715154679      3.03E-09 Convergence criterion met
 ---------------------------------------

************** Final PCM Free Energy Summary **************
 G_electrostatic  =      -0.34972935 hartree =    -219.45847978 kcal/mol
 G_cavitation     =       0.00000000 hartree =       0.00000000 kcal/mol
 G_dispersion     =       0.00000000 hartree =       0.00000000 kcal/mol
 G_repulsion      =       0.00000000 hartree =       0.00000000 kcal/mol
 --------------------------------------------------
 Non-electrostatic Free Energy =       0.00000000 hartree =       0.00000000 kcal/mol
 Total                         =      -0.34972935 hartree =    -219.45847978 kcal/mol
 --------------------------------------------------
 SCF Energy (H0 + V/2)                       =    -494.27151547 
 Solute Internal Energy (H0)                 =    -493.92178612 
 Total Free Energy (H0 + V/2 + non-elec)     =    -494.27151547 hartree
                                             = -310160.05720166 kcal/mol
***********************************************************

 SCF time:  CPU 1833.71 s  wall 132.99 s
 SCF   energy in the final basis set = -494.27151547
 Total energy in the final basis set = -494.27151547
 
 --------------------------------------------------------------
 
                    Orbital Energies (a.u.)
 --------------------------------------------------------------
 
 Alpha MOs
 -- Occupied --
-19.270 -19.266 -19.141 -19.141 -19.092 -10.343 -10.308 -10.250
 -1.258  -1.145  -1.051  -1.035  -0.965  -0.874  -0.750  -0.644
 -0.605  -0.592  -0.584  -0.532  -0.530  -0.522  -0.488  -0.461
 -0.446  -0.445  -0.405  -0.383  -0.349  -0.337  -0.332  -0.312
 -0.312
 -- Virtual --
  0.060   0.075   0.080   0.087   0.101   0.111   0.116   0.118
  0.125   0.138   0.143   0.150   0.159   0.162   0.162   0.165
  0.168   0.178   0.186   0.199   0.212   0.217   0.228   0.237
  0.241   0.254   0.263   0.265   0.272   0.280   0.298   0.307
  0.318   0.322   0.326   0.339   0.347   0.357   0.363   0.367
  0.378   0.382   0.383   0.389   0.393   0.397   0.406   0.410
  0.420   0.425   0.438   0.449   0.451   0.458   0.474   0.480
  0.486   0.490   0.497   0.505   0.507   0.522   0.524   0.535
  0.541   0.552   0.560   0.565   0.574   0.577   0.581   0.587
  0.597   0.605   0.613   0.621   0.626   0.633   0.638   0.663
  0.666   0.669   0.678   0.694   0.698   0.704   0.716   0.718
  0.727   0.743   0.749   0.756   0.761   0.774   0.777   0.788
  0.795   0.815   0.823   0.828   0.835   0.849   0.856   0.868
  0.878   0.893   0.903   0.918   0.920   0.934   0.952   0.961
  0.973   0.996   1.005   1.028   1.039   1.043   1.073   1.083
  1.091   1.110   1.122   1.146   1.163   1.181   1.193   1.218
  1.233   1.240   1.261   1.287   1.304   1.320   1.347   1.354
  1.387   1.390   1.421   1.442   1.463   1.482   1.515   1.531
  1.549   1.626   1.654   1.713   1.730   1.760   1.773   1.805
  1.873   1.878   1.901   1.922   1.937   1.944   1.947   1.952
  1.964   1.983   1.994   2.000   2.033   2.047   2.056   2.090
  2.109   2.115   2.125   2.167   2.202   2.208   2.236   2.258
  2.269   2.303   2.324   2.354   2.356   2.367   2.412   2.423
  2.461   2.471   2.494   2.508   2.542   2.548   2.635   2.636
  2.659   2.703   2.715   2.733   2.759   2.783   2.831   2.843
  2.851   2.890   2.904   2.947   2.967   2.993   3.015   3.054
  3.065   3.084   3.101   3.129   3.149   3.169   3.183   3.216
  3.246   3.267   3.308   3.320   3.344   3.368   3.406   3.431
  3.438   3.487   3.502   3.508   3.530   3.544   3.566   3.578
  3.590   3.637   3.642   3.656   3.697   3.703   3.731   3.756
  3.771   3.809   3.818   3.835   3.957   4.031   4.080   4.112
  4.120   4.144   4.216   4.256   4.316   4.367   4.400   4.560
  4.645   4.731   4.760   4.776   4.878   4.893   4.951   5.020
  5.058   5.102   5.199   5.222   5.323   5.347   5.349   5.355
  5.365   5.370   5.374   5.375   5.384   5.501   5.508   5.580
  5.668   5.674   5.688   5.714   5.718   5.775   5.911   5.997
  6.008   6.109   6.221   6.254   6.303   6.330   6.340   6.435
  6.584   6.615   6.623   6.624   6.631   6.642   6.668   6.694
  6.714   6.726   6.763   6.773   6.781   6.865   6.951   6.974
  7.026   7.043   7.059   7.229   7.268   7.281   7.370   7.394
  7.410   7.417   7.494   8.281  22.789  22.807  23.732  43.943
 44.075  44.312  44.446  44.592
 --------------------------------------------------------------
 
          Ground-State Mulliken Net Atomic Charges

     Atom                 Charge (a.u.)
  ----------------------------------------
      1 C                    -0.024558
      2 C                     0.155825
      3 O                    -0.706251
      4 O                    -0.715527
      5 C                    -0.154560
      6 H                     0.167367
      7 H                     0.161986
      8 H                     0.180077
      9 O                    -0.247970
     10 O                    -0.379192
     11 H                     0.212820
     12 O                    -1.124333
     13 H                     0.114288
     14 H                     0.360028
  ----------------------------------------
  Sum of atomic charges =    -2.000000

 -----------------------------------------------------------------
                    Cartesian Multipole Moments
 -----------------------------------------------------------------
    Charge (ESU x 10^10)
                -9.6064
    Dipole Moment (Debye)
         X      15.5130      Y      -9.4098      Z       6.7193
       Tot      19.3480
    Quadrupole Moments (Debye-Ang)
        XX    -118.2180     XY     -21.3899     YY     -88.3870
        XZ     -21.2259     YZ     -10.8072     ZZ     -66.7458
    Octopole Moments (Debye-Ang^2)
       XXX     257.9085    XXY      26.5016    XYY      38.3129
       YYY    -174.8231    XXZ      62.8206    XYZ       7.6802
       YYZ      -8.7904    XZZ      40.4851    YZZ     -38.4614
       ZZZ     -18.6949
    Hexadecapole Moments (Debye-Ang^3)
      XXXX   -1760.3498   XXXY    -233.1430   XXYY    -316.4267
      XYYY     -66.6739   YYYY   -1035.9802   XXXZ    -411.8161
      XXYZ     -92.1340   XYYZ     -63.9129   YYYZ    -107.5538
      XXZZ    -307.4412   XYZZ     -40.6881   YYZZ    -224.3144
      XZZZ    -200.5016   YZZZ     -51.9675   ZZZZ    -376.4514
 -----------------------------------------------------------------
 Calculating analytic gradient of the SCF energy
 Gradient of SCF Energy
            1           2           3           4           5           6
    1  -0.0258689   0.0024910   0.0018666  -0.0188052  -0.0423439  -0.0271781
    2  -0.0024740   0.0246028  -0.0087696  -0.0551665  -0.0210084  -0.0005282
    3   0.1058351  -0.0650581   0.0650937  -0.0264652  -0.0604697  -0.0601398
            7           8           9          10          11          12
    1   0.0305764   0.0164746  -0.0067784   0.0112013   0.0699466   0.0744796
    2  -0.0085710   0.0658753  -0.0057966  -0.0322874   0.0055398   0.0480980
    3   0.0752871  -0.0302997  -0.0294704   0.0248959   0.0001037   0.0191232
           13          14
    1  -0.0760306  -0.0100310
    2  -0.0470201   0.0375059
    3  -0.0203617   0.0019259
 Max gradient component =       1.058E-01
 RMS gradient           =       4.180E-02
 Computing fast CPCM-ISWIG gradient
 Updating gradient with PCM contributions...
 -- total gradient after adding PCM contribution --
---------------------------------------------------
  Atom         X              Y              Z     
---------------------------------------------------
   1       0.001034       0.000029       0.000074
   2      -0.000183      -0.000011       0.000027
   3       0.000041       0.000000      -0.000012
   4       0.000038      -0.000035      -0.000006
   5      -0.000153       0.000061       0.000022
   6      -0.000158      -0.000015      -0.000170
   7       0.000012      -0.000016      -0.000006
   8       0.000009      -0.000009      -0.000006
   9      -0.000066       0.000060       0.000043
  10       0.000003       0.000006      -0.000001
  11      -0.000574      -0.000065       0.000033
  12       0.000000      -0.000002       0.000000
  13      -0.000001      -0.000002       0.000001
  14      -0.000003      -0.000002       0.000002
---------------------------------------------------
 Number of fixed atoms: 0
 Gradient time:  CPU 397.70 s  wall 29.47 s
 ----------------------------------------------------------------
             Standard Nuclear Orientation (Angstroms)
    I     Atom           X                Y                Z
 ----------------------------------------------------------------
    1      C      -0.4303337993     0.5481844110     1.0011154516
    2      C      -0.1689358101     1.8610298368     0.2422744403
    3      O      -0.3118421386     1.8404834791    -1.0074259891
    4      O       0.1420396446     2.8680820527     0.9300893199
    5      C       0.1354849877    -0.6751569239     0.3077341479
    6      H      -0.0440372527     0.6232054298     2.0202054027
    7      H      -0.2089128971    -0.7263305227    -0.7284435130
    8      H      -0.1464932031    -1.5991597716     0.8266084052
    9      O       1.5610902913    -0.6341128481     0.1740092772
   10      O       2.1370841906    -0.7503413033     1.4740079336
   11      H      -1.5169627487     0.4193360870     1.0717738824
   12      O      -3.4191426365    -0.9032429538    -1.1119323313
   13      H      -2.6941576462    -0.2714002003    -1.0604926096
   14      H       2.2967978291    -1.7049383132     1.5424420735
 ----------------------------------------------------------------
 Nuclear Repulsion Energy =   367.9852052812 hartrees
 There are       33 alpha and       33 beta electrons
 Discretize the solute cavity surface with Lebedev spheres
	Using 110 Lebedev grid points for each H atom
	Using 110 Lebedev grid points for other atoms
	Atomic van der Waals radii will be scaled by 1.20
 Remove points where switching function is < 1.0e-08
 Keep 933 surface tesserae and discard 607 interior tesserae
 Molecular Surface Area = 181.051 Angst**2

                       Distance Matrix (Angstroms)
             C (  1)   C (  2)   O (  3)   O (  4)   C (  5)   H (  6)
   C (  2)  1.538744
   O (  3)  2.391300  1.258013
   O (  4)  2.390519  1.258550  2.239628
   C (  5)  1.515748  2.555230  2.873707  3.597487
   H (  6)  1.092427  2.169988  3.274147  2.502489  2.156509
   H (  7)  2.159812  2.763752  2.583981  3.974129  1.093112  3.066513
   H (  8)  2.173041  3.509254  3.901560  4.477746  1.096596  2.524694
   O (  9)  2.459207  3.037003  3.320737  3.853665  1.432452  2.750586
   O ( 10)  2.915721  3.695153  4.343631  4.167618  2.317811  2.634816
   H ( 11)  1.096520  2.140964  2.791961  2.961203  2.124207  1.763688
   O ( 12)  3.937587  4.476486  4.146598  5.574474  3.834430  4.850945
   H ( 13)  3.169676  3.552634  3.184069  4.675765  3.168902  4.161028
   H ( 14)  3.578665  4.526191  5.086929  5.092197  2.693738  3.335869
             H (  7)   H (  8)   O (  9)   O ( 10)   H ( 11)   O ( 12)
   H (  8)  1.784352
   O (  9)  1.988928  2.067134
   O ( 10)  3.217930  2.520783  1.426630
   H ( 11)  2.502864  2.452064  3.374929  3.857719
   O ( 12)  3.237891  3.866843  5.150611  6.130426  3.183721
   H ( 13)  2.548266  3.437250  4.445525  5.476676  2.531692  0.963055
   H ( 14)  3.520395  2.548191  1.886940  0.970282  4.390768  6.352983
             H ( 13)
   H ( 14)  5.808609
 
 Requested basis set is def2-TZVPD
 There are 139 shells and 365 basis functions
 A cutoff of  1.0D-14 yielded   8947 shell pairs
 There are     61929 function pairs (     78886 Cartesian)
 Smallest overlap matrix eigenvalue = 5.53E-06
 Guess MOs from SCF MO coefficient file
 Reading MOs from coefficient file
 Reading MOs from coefficient file
 Long-range K will be added via erf
 Coulomb attenuation parameter = 0.3 bohr**(-1)
 A restricted hybrid HF-DFT SCF calculation will be
 performed using Pulay DIIS extrapolation
 Polarizable Continuum solvation model will be applied
 Exchange:     0.1670 Hartree-Fock + 1.0000 wB97X-V + LR-HF
 Correlation:  1.0000 wB97X-V
 Using SG-2 standard quadrature grid
 Nonlocal Correlation:  VV10 with C = 0.0100 and b = 6.00
 Grid used for NLC:  SG-1 standard quadrature
 SCF converges when DIIS error is below 1.0E-08
Using Q-Chem read-in guess as SCF_GUESS READ specified.

 using 16 threads for integral computing
 -------------------------------------------------------
 OpenMP Integral computing Module                
 Release: version 1.0, May 2013, Q-Chem Inc. Pittsburgh 
 -------------------------------------------------------
 using 16 threads for integral computing
 -------------------------------------------------------
 OpenMP Integral computing Module                
 Release: version 1.0, May 2013, Q-Chem Inc. Pittsburgh 
 -------------------------------------------------------
 -------------------------------------------------------
 OpenMP BLAS3 based DFT computing Module                
 Release: version 1.0, May 2013, Q-Chem Inc. Pittsburgh 
 -------------------------------------------------------
 -------------------------------------------------------
 OpenMP BLAS3 based DFT computing Module                
 Release: version 1.0, May 2013, Q-Chem Inc. Pittsburgh 
 -------------------------------------------------------
 -------------------------------------------------------
 OpenMP BLAS3 based DFT computing Module                
 Release: version 1.0, May 2013, Q-Chem Inc. Pittsburgh 
 -------------------------------------------------------
 ---------------------------------------
  Cycle       Energy         DIIS Error
 ---------------------------------------
    1    -493.9217948633      5.41E-04
    2    -494.2594223369      6.17E-04
    3    -494.2680090189      2.89E-04
    4    -494.2694091367      2.04E-04
    5    -494.2703411319      1.52E-04
    6    -494.2708779362      1.12E-04
    7    -494.2712752298      6.85E-05
    8    -494.2714488678      3.62E-05
    9    -494.2715067691      1.31E-05
   10    -494.2715151397      2.68E-06
   11    -494.2715154678      5.51E-07
   12    -494.2715154817      8.21E-08
   13    -494.2715154820      2.37E-08
   14    -494.2715154820      1.03E-08
   15    -494.2715154820      5.07E-09 Convergence criterion met
 ---------------------------------------

************** Final PCM Free Energy Summary **************
 G_electrostatic  =      -0.34972001 hartree =    -219.45262144 kcal/mol
 G_cavitation     =       0.00000000 hartree =       0.00000000 kcal/mol
 G_dispersion     =       0.00000000 hartree =       0.00000000 kcal/mol
 G_repulsion      =       0.00000000 hartree =       0.00000000 kcal/mol
 --------------------------------------------------
 Non-electrostatic Free Energy =       0.00000000 hartree =       0.00000000 kcal/mol
 Total                         =      -0.34972001 hartree =    -219.45262144 kcal/mol
 --------------------------------------------------
 SCF Energy (H0 + V/2)                       =    -494.27151548 
 Solute Internal Energy (H0)                 =    -493.92179547 
 Total Free Energy (H0 + V/2 + non-elec)     =    -494.27151548 hartree
                                             = -310160.05721047 kcal/mol
***********************************************************

 SCF time:  CPU 1712.95 s  wall 124.04 s
 SCF   energy in the final basis set = -494.27151548
 Total energy in the final basis set = -494.27151548
 
 --------------------------------------------------------------
 
                    Orbital Energies (a.u.)
 --------------------------------------------------------------
 
 Alpha MOs
 -- Occupied --
-19.270 -19.266 -19.141 -19.141 -19.092 -10.343 -10.308 -10.250
 -1.258  -1.145  -1.051  -1.035  -0.965  -0.874  -0.750  -0.644
 -0.605  -0.592  -0.584  -0.532  -0.530  -0.522  -0.488  -0.462
 -0.446  -0.445  -0.405  -0.383  -0.349  -0.337  -0.332  -0.312
 -0.312
 -- Virtual --
  0.060   0.075   0.080   0.087   0.101   0.111   0.116   0.118
  0.125   0.138   0.143   0.150   0.159   0.162   0.162   0.165
  0.168   0.178   0.186   0.199   0.212   0.217   0.228   0.237
  0.241   0.254   0.264   0.265   0.272   0.280   0.298   0.307
  0.318   0.322   0.326   0.339   0.347   0.357   0.363   0.367
  0.378   0.382   0.383   0.389   0.393   0.397   0.406   0.410
  0.420   0.425   0.438   0.449   0.451   0.458   0.474   0.480
  0.486   0.490   0.497   0.505   0.507   0.522   0.524   0.535
  0.540   0.552   0.560   0.565   0.574   0.577   0.581   0.587
  0.597   0.605   0.613   0.621   0.626   0.633   0.638   0.663
  0.666   0.669   0.678   0.694   0.698   0.704   0.716   0.718
  0.727   0.743   0.749   0.756   0.761   0.774   0.777   0.788
  0.795   0.815   0.823   0.828   0.835   0.849   0.856   0.868
  0.878   0.893   0.903   0.917   0.920   0.934   0.952   0.961
  0.973   0.996   1.005   1.028   1.039   1.043   1.073   1.083
  1.091   1.110   1.122   1.146   1.163   1.181   1.193   1.218
  1.233   1.240   1.260   1.287   1.304   1.320   1.347   1.354
  1.387   1.390   1.421   1.442   1.463   1.482   1.515   1.530
  1.549   1.626   1.654   1.713   1.730   1.760   1.773   1.805
  1.873   1.878   1.901   1.922   1.937   1.944   1.947   1.952
  1.964   1.983   1.994   2.000   2.033   2.047   2.056   2.090
  2.109   2.115   2.125   2.167   2.202   2.208   2.236   2.258
  2.269   2.303   2.323   2.354   2.356   2.367   2.412   2.424
  2.461   2.471   2.494   2.508   2.542   2.548   2.635   2.636
  2.659   2.703   2.715   2.733   2.758   2.783   2.831   2.842
  2.850   2.890   2.904   2.947   2.967   2.993   3.015   3.054
  3.065   3.084   3.101   3.129   3.149   3.169   3.183   3.216
  3.246   3.267   3.308   3.320   3.344   3.369   3.406   3.431
  3.438   3.487   3.502   3.508   3.530   3.544   3.565   3.578
  3.590   3.637   3.642   3.656   3.697   3.703   3.731   3.755
  3.771   3.809   3.817   3.835   3.957   4.031   4.080   4.111
  4.120   4.144   4.216   4.256   4.315   4.366   4.400   4.561
  4.644   4.732   4.759   4.776   4.878   4.892   4.951   5.020
  5.058   5.102   5.199   5.221   5.323   5.347   5.349   5.355
  5.365   5.370   5.374   5.375   5.384   5.501   5.508   5.580
  5.668   5.674   5.688   5.714   5.718   5.775   5.911   5.997
  6.007   6.109   6.221   6.254   6.303   6.330   6.340   6.435
  6.583   6.615   6.623   6.624   6.631   6.642   6.668   6.694
  6.714   6.726   6.763   6.773   6.781   6.865   6.951   6.974
  7.025   7.043   7.059   7.229   7.268   7.281   7.369   7.394
  7.410   7.417   7.494   8.281  22.788  22.807  23.732  43.943
 44.075  44.311  44.446  44.591
 --------------------------------------------------------------
 
          Ground-State Mulliken Net Atomic Charges

     Atom                 Charge (a.u.)
  ----------------------------------------
      1 C                    -0.025439
      2 C                     0.156246
      3 O                    -0.706202
      4 O                    -0.715484
      5 C                    -0.154855
      6 H                     0.166523
      7 H                     0.161825
      8 H                     0.180208
      9 O                    -0.247810
     10 O                    -0.379209
     11 H                     0.214212
     12 O                    -1.124305
     13 H                     0.114251
     14 H                     0.360039
  ----------------------------------------
  Sum of atomic charges =    -2.000000

 -----------------------------------------------------------------
                    Cartesian Multipole Moments
 -----------------------------------------------------------------
    Charge (ESU x 10^10)
                -9.6064
    Dipole Moment (Debye)
         X      15.5124      Y      -9.4087      Z       6.7186
       Tot      19.3468
    Quadrupole Moments (Debye-Ang)
        XX    -118.2108     XY     -21.3935     YY     -88.3848
        XZ     -21.2256     YZ     -10.8078     ZZ     -66.7502
    Octopole Moments (Debye-Ang^2)
       XXX     257.9305    XXY      26.4998    XYY      38.3153
       YYY    -174.8059    XXZ      62.8256    XYZ       7.6814
       YYZ      -8.7885    XZZ      40.4948    YZZ     -38.4634
       ZZZ     -18.7066
    Hexadecapole Moments (Debye-Ang^3)
      XXXX   -1760.3464   XXXY    -233.1433   XXYY    -316.4257
      XYYY     -66.6893   YYYY   -1035.9290   XXXZ    -411.7958
      XXYZ     -92.1342   XYYZ     -63.9023   YYYZ    -107.5442
      XXZZ    -307.4383   XYZZ     -40.6859   YYZZ    -224.3165
      XZZZ    -200.4670   YZZZ     -51.9756   ZZZZ    -376.4967
 -----------------------------------------------------------------
 Calculating analytic gradient of the SCF energy
 Gradient of SCF Energy
            1           2           3           4           5           6
    1  -0.0277573   0.0027983   0.0018150  -0.0188555  -0.0421452  -0.0270700
    2  -0.0024826   0.0246605  -0.0087703  -0.0551446  -0.0212690  -0.0005235
    3   0.1055278  -0.0649571   0.0651015  -0.0264629  -0.0605666  -0.0597112
            7           8           9          10          11          12
    1   0.0305957   0.0164622  -0.0067117   0.0112003   0.0712427   0.0744770
    2  -0.0084916   0.0659138  -0.0058768  -0.0322876   0.0056848   0.0480940
    3   0.0753773  -0.0302893  -0.0295142   0.0248833  -0.0000719   0.0191234
           13          14
    1  -0.0760260  -0.0100255
    2  -0.0470160   0.0375091
    3  -0.0203610   0.0019211
 Max gradient component =       1.055E-01
 RMS gradient           =       4.185E-02
 Computing fast CPCM-ISWIG gradient
 Updating gradient with PCM contributions...
 -- total gradient after adding PCM contribution --
---------------------------------------------------
  Atom         X              Y              Z     
---------------------------------------------------
   1      -0.001029      -0.000023      -0.000075
   2       0.000177       0.000013      -0.000017
   3      -0.000038       0.000001       0.000004
   4      -0.000039       0.000031       0.000002
   5       0.000152      -0.000062      -0.000022
   6       0.000151       0.000008       0.000170
   7      -0.000009       0.000014       0.000009
   8      -0.000007       0.000007       0.000003
   9       0.000072      -0.000057      -0.000038
  10      -0.000003      -0.000001      -0.000008
  11       0.000575       0.000073      -0.000032
  12      -0.000001      -0.000002       0.000000
  13       0.000000      -0.000001       0.000002
  14      -0.000001      -0.000000       0.000002
---------------------------------------------------
 Number of fixed atoms: 0
 Gradient time:  CPU 397.27 s  wall 29.39 s
 ----------------------------------------------------------------
             Standard Nuclear Orientation (Angstroms)
    I     Atom           X                Y                Z
 ----------------------------------------------------------------
    1      C      -0.4293337993     0.5491844110     1.0011154516
    2      C      -0.1689358101     1.8610298368     0.2422744403
    3      O      -0.3118421386     1.8404834791    -1.0074259891
    4      O       0.1420396446     2.8680820527     0.9300893199
    5      C       0.1354849877    -0.6751569239     0.3077341479
    6      H      -0.0440372527     0.6232054298     2.0202054027
    7      H      -0.2089128971    -0.7263305227    -0.7284435130
    8      H      -0.1464932031    -1.5991597716     0.8266084052
    9      O       1.5610902913    -0.6341128481     0.1740092772
   10      O       2.1370841906    -0.7503413033     1.4740079336
   11      H      -1.5169627487     0.4193360870     1.0717738824
   12      O      -3.4191426365    -0.9032429538    -1.1119323313
   13      H      -2.6941576462    -0.2714002003    -1.0604926096
   14      H       2.2967978291    -1.7049383132     1.5424420735
 ----------------------------------------------------------------
 Nuclear Repulsion Energy =   367.9956848860 hartrees
 There are       33 alpha and       33 beta electrons
 Discretize the solute cavity surface with Lebedev spheres
	Using 110 Lebedev grid points for each H atom
	Using 110 Lebedev grid points for other atoms
	Atomic van der Waals radii will be scaled by 1.20
 Remove points where switching function is < 1.0e-08
 Keep 932 surface tesserae and discard 608 interior tesserae
 Molecular Surface Area = 181.047 Angst**2

                       Distance Matrix (Angstroms)
             C (  1)   C (  2)   O (  3)   O (  4)   C (  5)   H (  6)
   C (  2)  1.537721
   O (  3)  2.390710  1.258013
   O (  4)  2.389309  1.258550  2.239628
   C (  5)  1.516183  2.555230  2.873707  3.597487
   H (  6)  1.092006  2.169988  3.274147  2.502489  2.156509
   H (  7)  2.160300  2.763752  2.583981  3.974129  1.093112  3.066513
   H (  8)  2.173898  3.509254  3.901560  4.477746  1.096596  2.524694
   O (  9)  2.458879  3.037003  3.320737  3.853665  1.432452  2.750586
   O ( 10)  2.915287  3.695153  4.343631  4.167618  2.317811  2.634816
   H ( 11)  1.097629  2.140964  2.791961  2.961203  2.124207  1.763688
   O ( 12)  3.938715  4.476486  4.146598  5.574474  3.834430  4.850945
   H ( 13)  3.170649  3.552634  3.184069  4.675765  3.168902  4.161028
   H ( 14)  3.578533  4.526191  5.086929  5.092197  2.693738  3.335869
             H (  7)   H (  8)   O (  9)   O ( 10)   H ( 11)   O ( 12)
   H (  8)  1.784352
   O (  9)  1.988928  2.067134
   O ( 10)  3.217930  2.520783  1.426630
   H ( 11)  2.502864  2.452064  3.374929  3.857719
   O ( 12)  3.237891  3.866843  5.150611  6.130426  3.183721
   H ( 13)  2.548266  3.437250  4.445525  5.476676  2.531692  0.963055
   H ( 14)  3.520395  2.548191  1.886940  0.970282  4.390768  6.352983
             H ( 13)
   H ( 14)  5.808609
 
 Requested basis set is def2-TZVPD
 There are 139 shells and 365 basis functions
 A cutoff of  1.0D-14 yielded   8947 shell pairs
 There are     61929 function pairs (     78886 Cartesian)
 Smallest overlap matrix eigenvalue = 5.53E-06
 Guess MOs from SCF MO coefficient file
 Reading MOs from coefficient file
 Reading MOs from coefficient file
 Long-range K will be added via erf
 Coulomb attenuation parameter = 0.3 bohr**(-1)
 A restricted hybrid HF-DFT SCF calculation will be
 performed using Pulay DIIS extrapolation
 Polarizable Continuum solvation model will be applied
 Exchange:     0.1670 Hartree-Fock + 1.0000 wB97X-V + LR-HF
 Correlation:  1.0000 wB97X-V
 Using SG-2 standard quadrature grid
 Nonlocal Correlation:  VV10 with C = 0.0100 and b = 6.00
 Grid used for NLC:  SG-1 standard quadrature
 SCF converges when DIIS error is below 1.0E-08
Using Q-Chem read-in guess as SCF_GUESS READ specified.

 using 16 threads for integral computing
 -------------------------------------------------------
 OpenMP Integral computing Module                
 Release: version 1.0, May 2013, Q-Chem Inc. Pittsburgh 
 -------------------------------------------------------
 using 16 threads for integral computing
 -------------------------------------------------------
 OpenMP Integral computing Module                
 Release: version 1.0, May 2013, Q-Chem Inc. Pittsburgh 
 -------------------------------------------------------
 -------------------------------------------------------
 OpenMP BLAS3 based DFT computing Module                
 Release: version 1.0, May 2013, Q-Chem Inc. Pittsburgh 
 -------------------------------------------------------
 -------------------------------------------------------
 OpenMP BLAS3 based DFT computing Module                
 Release: version 1.0, May 2013, Q-Chem Inc. Pittsburgh 
 -------------------------------------------------------
 -------------------------------------------------------
 OpenMP BLAS3 based DFT computing Module                
 Release: version 1.0, May 2013, Q-Chem Inc. Pittsburgh 
 -------------------------------------------------------
 ---------------------------------------
  Cycle       Energy         DIIS Error
 ---------------------------------------
    1    -493.9216126917      5.40E-04
    2    -494.2594204751      6.17E-04
    3    -494.2680057926      2.89E-04
    4    -494.2694042097      2.04E-04
    5    -494.2703236741      1.53E-04
    6    -494.2708310678      1.16E-04
    7    -494.2712078733      7.76E-05
    8    -494.2713999726      4.76E-05
    9    -494.2714898194      2.25E-05
   10    -494.2715137477      6.11E-06
   11    -494.2715154552      1.71E-06
   12    -494.2715155959      2.74E-07
   13    -494.2715155992      7.34E-08
   14    -494.2715155994      8.51E-09 Convergence criterion met
 ---------------------------------------

************** Final PCM Free Energy Summary **************
 G_electrostatic  =      -0.34973215 hartree =    -219.46023613 kcal/mol
 G_cavitation     =       0.00000000 hartree =       0.00000000 kcal/mol
 G_dispersion     =       0.00000000 hartree =       0.00000000 kcal/mol
 G_repulsion      =       0.00000000 hartree =       0.00000000 kcal/mol
 --------------------------------------------------
 Non-electrostatic Free Energy =       0.00000000 hartree =       0.00000000 kcal/mol
 Total                         =      -0.34973215 hartree =    -219.46023613 kcal/mol
 --------------------------------------------------
 SCF Energy (H0 + V/2)                       =    -494.27151560 
 Solute Internal Energy (H0)                 =    -493.92178345 
 Total Free Energy (H0 + V/2 + non-elec)     =    -494.27151560 hartree
                                             = -310160.05728415 kcal/mol
***********************************************************

 SCF time:  CPU 1619.14 s  wall 116.85 s
 SCF   energy in the final basis set = -494.27151560
 Total energy in the final basis set = -494.27151560
 
 --------------------------------------------------------------
 
                    Orbital Energies (a.u.)
 --------------------------------------------------------------
 
 Alpha MOs
 -- Occupied --
-19.270 -19.266 -19.141 -19.141 -19.092 -10.343 -10.308 -10.250
 -1.258  -1.145  -1.051  -1.035  -0.965  -0.874  -0.750  -0.644
 -0.605  -0.592  -0.584  -0.532  -0.530  -0.522  -0.488  -0.461
 -0.446  -0.445  -0.405  -0.383  -0.349  -0.337  -0.331  -0.312
 -0.312
 -- Virtual --
  0.060   0.075   0.080   0.087   0.101   0.111   0.116   0.118
  0.125   0.138   0.143   0.150   0.159   0.162   0.162   0.165
  0.168   0.178   0.186   0.199   0.212   0.217   0.228   0.237
  0.241   0.254   0.264   0.265   0.273   0.280   0.298   0.307
  0.318   0.322   0.326   0.339   0.347   0.357   0.363   0.367
  0.378   0.382   0.383   0.389   0.393   0.397   0.406   0.410
  0.420   0.425   0.438   0.449   0.451   0.458   0.474   0.480
  0.486   0.490   0.497   0.505   0.507   0.522   0.524   0.535
  0.540   0.552   0.560   0.565   0.574   0.577   0.581   0.587
  0.597   0.605   0.613   0.621   0.626   0.633   0.638   0.663
  0.666   0.669   0.678   0.694   0.698   0.704   0.716   0.718
  0.727   0.743   0.750   0.756   0.761   0.774   0.777   0.788
  0.795   0.815   0.823   0.828   0.835   0.849   0.856   0.868
  0.878   0.893   0.903   0.917   0.920   0.934   0.952   0.961
  0.973   0.996   1.005   1.028   1.039   1.043   1.073   1.083
  1.091   1.110   1.122   1.146   1.163   1.181   1.193   1.218
  1.233   1.240   1.261   1.287   1.304   1.320   1.347   1.354
  1.387   1.390   1.421   1.442   1.463   1.482   1.515   1.531
  1.549   1.626   1.654   1.713   1.730   1.760   1.773   1.805
  1.873   1.878   1.901   1.922   1.937   1.944   1.947   1.952
  1.964   1.983   1.994   2.000   2.033   2.047   2.056   2.090
  2.109   2.115   2.125   2.167   2.202   2.208   2.236   2.258
  2.269   2.303   2.324   2.354   2.356   2.367   2.412   2.423
  2.461   2.471   2.494   2.508   2.542   2.548   2.635   2.636
  2.659   2.703   2.715   2.733   2.759   2.783   2.831   2.843
  2.851   2.890   2.904   2.947   2.967   2.993   3.015   3.054
  3.065   3.084   3.101   3.129   3.149   3.169   3.183   3.216
  3.245   3.267   3.308   3.320   3.344   3.369   3.406   3.431
  3.438   3.487   3.502   3.508   3.530   3.544   3.565   3.578
  3.590   3.637   3.642   3.656   3.697   3.703   3.731   3.756
  3.771   3.809   3.818   3.835   3.957   4.031   4.080   4.112
  4.120   4.144   4.216   4.256   4.316   4.366   4.400   4.561
  4.645   4.731   4.760   4.776   4.878   4.892   4.951   5.020
  5.058   5.102   5.199   5.222   5.323   5.347   5.349   5.355
  5.365   5.370   5.374   5.375   5.384   5.501   5.508   5.580
  5.668   5.674   5.688   5.715   5.718   5.775   5.911   5.997
  6.008   6.109   6.221   6.254   6.303   6.330   6.340   6.435
  6.584   6.615   6.623   6.624   6.631   6.642   6.668   6.694
  6.714   6.726   6.763   6.773   6.781   6.865   6.952   6.974
  7.025   7.043   7.059   7.229   7.268   7.281   7.370   7.394
  7.410   7.417   7.494   8.281  22.788  22.807  23.733  43.943
 44.075  44.312  44.446  44.592
 --------------------------------------------------------------
 
          Ground-State Mulliken Net Atomic Charges

     Atom                 Charge (a.u.)
  ----------------------------------------
      1 C                    -0.024034
      2 C                     0.155688
      3 O                    -0.706298
      4 O                    -0.715531
      5 C                    -0.155535
      6 H                     0.166973
      7 H                     0.161994
      8 H                     0.180447
      9 O                    -0.247886
     10 O                    -0.379199
     11 H                     0.213412
     12 O                    -1.124317
     13 H                     0.114266
     14 H                     0.360022
  ----------------------------------------
  Sum of atomic charges =    -2.000000

 -----------------------------------------------------------------
                    Cartesian Multipole Moments
 -----------------------------------------------------------------
    Charge (ESU x 10^10)
                -9.6064
    Dipole Moment (Debye)
         X      15.5126      Y      -9.4110      Z       6.7194
       Tot      19.3484
    Quadrupole Moments (Debye-Ang)
        XX    -118.2148     XY     -21.3915     YY     -88.3893
        XZ     -21.2257     YZ     -10.8090     ZZ     -66.7475
    Octopole Moments (Debye-Ang^2)
       XXX     257.9195    XXY      26.4941    XYY      38.3124
       YYY    -174.8475    XXZ      62.8226    XYZ       7.6817
       YYZ      -8.7917    XZZ      40.4897    YZZ     -38.4705
       ZZZ     -18.6979
    Hexadecapole Moments (Debye-Ang^3)
      XXXX   -1760.3509   XXXY    -233.1338   XXYY    -316.4345
      XYYY     -66.6830   YYYY   -1036.0405   XXXZ    -411.8044
      XXYZ     -92.1411   XYYZ     -63.9074   YYYZ    -107.5750
      XXZZ    -307.4401   XYZZ     -40.6835   YYZZ    -224.3264
      XZZZ    -200.4842   YZZZ     -51.9921   ZZZZ    -376.4659
 -----------------------------------------------------------------
 Calculating analytic gradient of the SCF energy
 Gradient of SCF Energy
            1           2           3           4           5           6
    1  -0.0267704   0.0026456   0.0018339  -0.0188525  -0.0422230  -0.0271513
    2  -0.0018992   0.0243374  -0.0087515  -0.0551946  -0.0214940  -0.0005165
    3   0.1056850  -0.0650022   0.0651186  -0.0264452  -0.0605181  -0.0599674
            7           8           9          10          11          12
    1   0.0306059   0.0164886  -0.0067312   0.0111992   0.0705380   0.0744793
    2  -0.0085422   0.0658982  -0.0058306  -0.0322838   0.0056932   0.0480977
    3   0.0753414  -0.0303192  -0.0294935   0.0248872   0.0000291   0.0191216
           13          14
    1  -0.0760303  -0.0100319
    2  -0.0470193   0.0375053
    3  -0.0203606   0.0019233
 Max gradient component =       1.057E-01
 RMS gradient           =       4.183E-02
 Computing fast CPCM-ISWIG gradient
 Updating gradient with PCM contributions...
 -- total gradient after adding PCM contribution --
---------------------------------------------------
  Atom         X              Y              Z     
---------------------------------------------------
   1       0.000031       0.000897       0.000046
   2      -0.000016      -0.000256       0.000070
   3      -0.000005       0.000001       0.000020
   4      -0.000035      -0.000092       0.000012
   5       0.000062      -0.000328      -0.000089
   6      -0.000015      -0.000099      -0.000029
   7       0.000002      -0.000004      -0.000003
   8       0.000020      -0.000043      -0.000032
   9       0.000014       0.000015       0.000005
  10       0.000002       0.000002      -0.000006
  11      -0.000056      -0.000087       0.000004
  12      -0.000000      -0.000002      -0.000000
  13      -0.000001      -0.000001       0.000001
  14      -0.000002      -0.000002       0.000002
---------------------------------------------------
 Number of fixed atoms: 0
 Gradient time:  CPU 396.28 s  wall 29.07 s
 ----------------------------------------------------------------
             Standard Nuclear Orientation (Angstroms)
    I     Atom           X                Y                Z
 ----------------------------------------------------------------
    1      C      -0.4293337993     0.5471844110     1.0011154516
    2      C      -0.1689358101     1.8610298368     0.2422744403
    3      O      -0.3118421386     1.8404834791    -1.0074259891
    4      O       0.1420396446     2.8680820527     0.9300893199
    5      C       0.1354849877    -0.6751569239     0.3077341479
    6      H      -0.0440372527     0.6232054298     2.0202054027
    7      H      -0.2089128971    -0.7263305227    -0.7284435130
    8      H      -0.1464932031    -1.5991597716     0.8266084052
    9      O       1.5610902913    -0.6341128481     0.1740092772
   10      O       2.1370841906    -0.7503413033     1.4740079336
   11      H      -1.5169627487     0.4193360870     1.0717738824
   12      O      -3.4191426365    -0.9032429538    -1.1119323313
   13      H      -2.6941576462    -0.2714002003    -1.0604926096
   14      H       2.2967978291    -1.7049383132     1.5424420735
 ----------------------------------------------------------------
 Nuclear Repulsion Energy =   367.9926888715 hartrees
 There are       33 alpha and       33 beta electrons
 Discretize the solute cavity surface with Lebedev spheres
	Using 110 Lebedev grid points for each H atom
	Using 110 Lebedev grid points for other atoms
	Atomic van der Waals radii will be scaled by 1.20
 Remove points where switching function is < 1.0e-08
 Keep 933 surface tesserae and discard 607 interior tesserae
 Molecular Surface Area = 181.048 Angst**2

                       Distance Matrix (Angstroms)
             C (  1)   C (  2)   O (  3)   O (  4)   C (  5)   H (  6)
   C (  2)  1.539427
   O (  3)  2.391791  1.258013
   O (  4)  2.391250  1.258550  2.239628
   C (  5)  1.514568  2.555230  2.873707  3.597487
   H (  6)  1.092143  2.169988  3.274147  2.502489  2.156509
   H (  7)  2.159120  2.763752  2.583981  3.974129  1.093112  3.066513
   H (  8)  2.171922  3.509254  3.901560  4.477746  1.096596  2.524694
   O (  9)  2.457917  3.037003  3.320737  3.853665  1.432452  2.750586
   O ( 10)  2.914396  3.695153  4.343631  4.167618  2.317811  2.634816
   H ( 11)  1.097394  2.140964  2.791961  2.961203  2.124207  1.763688
   O ( 12)  3.937978  4.476486  4.146598  5.574474  3.834430  4.850945
   H ( 13)  3.170132  3.552634  3.184069  4.675765  3.168902  4.161028
   H ( 14)  3.577273  4.526191  5.086929  5.092197  2.693738  3.335869
             H (  7)   H (  8)   O (  9)   O ( 10)   H ( 11)   O ( 12)
   H (  8)  1.784352
   O (  9)  1.988928  2.067134
   O ( 10)  3.217930  2.520783  1.426630
   H ( 11)  2.502864  2.452064  3.374929  3.857719
   O ( 12)  3.237891  3.866843  5.150611  6.130426  3.183721
   H ( 13)  2.548266  3.437250  4.445525  5.476676  2.531692  0.963055
   H ( 14)  3.520395  2.548191  1.886940  0.970282  4.390768  6.352983
             H ( 13)
   H ( 14)  5.808609
 
 Requested basis set is def2-TZVPD
 There are 139 shells and 365 basis functions
 A cutoff of  1.0D-14 yielded   8947 shell pairs
 There are     61929 function pairs (     78886 Cartesian)
 Smallest overlap matrix eigenvalue = 5.53E-06
 Guess MOs from SCF MO coefficient file
 Reading MOs from coefficient file
 Reading MOs from coefficient file
 Long-range K will be added via erf
 Coulomb attenuation parameter = 0.3 bohr**(-1)
 A restricted hybrid HF-DFT SCF calculation will be
 performed using Pulay DIIS extrapolation
 Polarizable Continuum solvation model will be applied
 Exchange:     0.1670 Hartree-Fock + 1.0000 wB97X-V + LR-HF
 Correlation:  1.0000 wB97X-V
 Using SG-2 standard quadrature grid
 Nonlocal Correlation:  VV10 with C = 0.0100 and b = 6.00
 Grid used for NLC:  SG-1 standard quadrature
 SCF converges when DIIS error is below 1.0E-08
Using Q-Chem read-in guess as SCF_GUESS READ specified.

 using 16 threads for integral computing
 -------------------------------------------------------
 OpenMP Integral computing Module                
 Release: version 1.0, May 2013, Q-Chem Inc. Pittsburgh 
 -------------------------------------------------------
 using 16 threads for integral computing
 -------------------------------------------------------
 OpenMP Integral computing Module                
 Release: version 1.0, May 2013, Q-Chem Inc. Pittsburgh 
 -------------------------------------------------------
 -------------------------------------------------------
 OpenMP BLAS3 based DFT computing Module                
 Release: version 1.0, May 2013, Q-Chem Inc. Pittsburgh 
 -------------------------------------------------------
 -------------------------------------------------------
 OpenMP BLAS3 based DFT computing Module                
 Release: version 1.0, May 2013, Q-Chem Inc. Pittsburgh 
 -------------------------------------------------------
 -------------------------------------------------------
 OpenMP BLAS3 based DFT computing Module                
 Release: version 1.0, May 2013, Q-Chem Inc. Pittsburgh 
 -------------------------------------------------------
 ---------------------------------------
  Cycle       Energy         DIIS Error
 ---------------------------------------
    1    -493.9221486125      5.41E-04
    2    -494.2594130055      6.18E-04
    3    -494.2680077234      2.89E-04
    4    -494.2694089594      2.04E-04
    5    -494.2703395194      1.52E-04
    6    -494.2708742001      1.12E-04
    7    -494.2712748252      6.86E-05
    8    -494.2714490838      3.61E-05
    9    -494.2715069379      1.31E-05
   10    -494.2715152661      2.69E-06
   11    -494.2715155960      5.69E-07
   12    -494.2715156109      8.81E-08
   13    -494.2715156111      2.39E-08
   14    -494.2715156112      9.15E-09 Convergence criterion met
 ---------------------------------------

************** Final PCM Free Energy Summary **************
 G_electrostatic  =      -0.34971721 hartree =    -219.45085922 kcal/mol
 G_cavitation     =       0.00000000 hartree =       0.00000000 kcal/mol
 G_dispersion     =       0.00000000 hartree =       0.00000000 kcal/mol
 G_repulsion      =       0.00000000 hartree =       0.00000000 kcal/mol
 --------------------------------------------------
 Non-electrostatic Free Energy =       0.00000000 hartree =       0.00000000 kcal/mol
 Total                         =      -0.34971721 hartree =    -219.45085922 kcal/mol
 --------------------------------------------------
 SCF Energy (H0 + V/2)                       =    -494.27151561 
 Solute Internal Energy (H0)                 =    -493.92179840 
 Total Free Energy (H0 + V/2 + non-elec)     =    -494.27151561 hartree
                                             = -310160.05729153 kcal/mol
***********************************************************

 SCF time:  CPU 1602.03 s  wall 115.85 s
 SCF   energy in the final basis set = -494.27151561
 Total energy in the final basis set = -494.27151561
 
 --------------------------------------------------------------
 
                    Orbital Energies (a.u.)
 --------------------------------------------------------------
 
 Alpha MOs
 -- Occupied --
-19.270 -19.266 -19.141 -19.141 -19.092 -10.343 -10.308 -10.250
 -1.258  -1.145  -1.051  -1.036  -0.965  -0.874  -0.750  -0.644
 -0.605  -0.592  -0.583  -0.532  -0.530  -0.522  -0.488  -0.462
 -0.446  -0.445  -0.405  -0.383  -0.349  -0.337  -0.332  -0.312
 -0.312
 -- Virtual --
  0.060   0.075   0.080   0.087   0.101   0.111   0.116   0.118
  0.125   0.138   0.143   0.150   0.159   0.162   0.162   0.165
  0.168   0.178   0.186   0.199   0.212   0.217   0.228   0.237
  0.241   0.254   0.263   0.265   0.272   0.280   0.298   0.307
  0.318   0.322   0.326   0.339   0.347   0.357   0.363   0.367
  0.378   0.382   0.383   0.389   0.393   0.397   0.406   0.410
  0.420   0.425   0.438   0.449   0.451   0.458   0.474   0.480
  0.486   0.490   0.497   0.505   0.507   0.522   0.524   0.535
  0.541   0.552   0.560   0.565   0.574   0.577   0.581   0.587
  0.597   0.605   0.613   0.621   0.626   0.633   0.638   0.663
  0.666   0.669   0.678   0.694   0.698   0.704   0.716   0.718
  0.727   0.743   0.749   0.756   0.761   0.774   0.777   0.788
  0.795   0.815   0.823   0.828   0.835   0.849   0.856   0.868
  0.878   0.893   0.903   0.917   0.920   0.934   0.952   0.961
  0.973   0.996   1.005   1.028   1.039   1.043   1.073   1.083
  1.091   1.110   1.122   1.146   1.163   1.181   1.193   1.218
  1.233   1.240   1.260   1.287   1.304   1.320   1.347   1.354
  1.387   1.390   1.421   1.442   1.463   1.482   1.515   1.531
  1.549   1.626   1.654   1.713   1.730   1.760   1.773   1.805
  1.873   1.878   1.901   1.922   1.937   1.944   1.947   1.952
  1.964   1.983   1.994   2.000   2.033   2.047   2.056   2.090
  2.109   2.115   2.125   2.167   2.202   2.208   2.236   2.258
  2.269   2.303   2.323   2.354   2.356   2.367   2.412   2.424
  2.461   2.471   2.494   2.508   2.542   2.548   2.635   2.636
  2.659   2.703   2.715   2.733   2.758   2.783   2.831   2.842
  2.851   2.890   2.904   2.947   2.967   2.993   3.015   3.054
  3.065   3.084   3.101   3.129   3.149   3.169   3.184   3.216
  3.246   3.267   3.308   3.320   3.344   3.369   3.406   3.431
  3.438   3.487   3.502   3.508   3.530   3.544   3.566   3.578
  3.590   3.637   3.642   3.656   3.697   3.703   3.731   3.755
  3.771   3.809   3.818   3.835   3.957   4.031   4.080   4.111
  4.120   4.144   4.215   4.256   4.316   4.367   4.400   4.561
  4.645   4.732   4.760   4.776   4.878   4.893   4.951   5.020
  5.058   5.102   5.199   5.222   5.323   5.347   5.349   5.355
  5.365   5.370   5.374   5.375   5.384   5.501   5.507   5.580
  5.668   5.674   5.688   5.714   5.718   5.775   5.911   5.997
  6.007   6.110   6.221   6.254   6.303   6.330   6.340   6.435
  6.584   6.615   6.623   6.624   6.631   6.642   6.668   6.694
  6.714   6.726   6.763   6.773   6.781   6.865   6.951   6.974
  7.025   7.043   7.059   7.229   7.268   7.281   7.369   7.394
  7.410   7.417   7.494   8.281  22.789  22.807  23.732  43.943
 44.075  44.311  44.446  44.592
 --------------------------------------------------------------
 
          Ground-State Mulliken Net Atomic Charges

     Atom                 Charge (a.u.)
  ----------------------------------------
      1 C                    -0.025955
      2 C                     0.156382
      3 O                    -0.706155
      4 O                    -0.715480
      5 C                    -0.153882
      6 H                     0.166917
      7 H                     0.161818
      8 H                     0.179838
      9 O                    -0.247895
     10 O                    -0.379202
     11 H                     0.213614
     12 O                    -1.124320
     13 H                     0.114273
     14 H                     0.360046
  ----------------------------------------
  Sum of atomic charges =    -2.000000

 -----------------------------------------------------------------
                    Cartesian Multipole Moments
 -----------------------------------------------------------------
    Charge (ESU x 10^10)
                -9.6064
    Dipole Moment (Debye)
         X      15.5127      Y      -9.4075      Z       6.7184
       Tot      19.3464
    Quadrupole Moments (Debye-Ang)
        XX    -118.2140     XY     -21.3919     YY     -88.3825
        XZ     -21.2257     YZ     -10.8060     ZZ     -66.7485
    Octopole Moments (Debye-Ang^2)
       XXX     257.9195    XXY      26.5073    XYY      38.3158
       YYY    -174.7814    XXZ      62.8236    XYZ       7.6800
       YYZ      -8.7872    XZZ      40.4902    YZZ     -38.4544
       ZZZ     -18.7036
    Hexadecapole Moments (Debye-Ang^3)
      XXXX   -1760.3449   XXXY    -233.1525   XXYY    -316.4179
      XYYY     -66.6802   YYYY   -1035.8689   XXXZ    -411.8072
      XXYZ     -92.1270   XYYZ     -63.9078   YYYZ    -107.5231
      XXZZ    -307.4393   XYZZ     -40.6905   YYZZ    -224.3044
      XZZZ    -200.4843   YZZZ     -51.9509   ZZZZ    -376.4822
 -----------------------------------------------------------------
 Calculating analytic gradient of the SCF energy
 Gradient of SCF Energy
            1           2           3           4           5           6
    1  -0.0268508   0.0026429   0.0018477  -0.0188082  -0.0422667  -0.0270967
    2  -0.0030571   0.0249240  -0.0087883  -0.0551165  -0.0207812  -0.0005348
    3   0.1056756  -0.0650123   0.0650765  -0.0264827  -0.0605182  -0.0598829
            7           8           9          10          11          12
    1   0.0305663   0.0164483  -0.0067590   0.0112023   0.0706475   0.0744771
    2  -0.0085205   0.0658907  -0.0058428  -0.0322913   0.0055306   0.0480943
    3   0.0753231  -0.0302697  -0.0294913   0.0248920   0.0000032   0.0191250
           13          14
    1  -0.0760262  -0.0100245
    2  -0.0470168   0.0375097
    3  -0.0203620   0.0019238
 Max gradient component =       1.057E-01
 RMS gradient           =       4.183E-02
 Computing fast CPCM-ISWIG gradient
 Updating gradient with PCM contributions...
 -- total gradient after adding PCM contribution --
---------------------------------------------------
  Atom         X              Y              Z     
---------------------------------------------------
   1      -0.000021      -0.000890      -0.000050
   2       0.000010       0.000256      -0.000059
   3       0.000008       0.000000      -0.000027
   4       0.000034       0.000087      -0.000015
   5      -0.000063       0.000328       0.000090
   6       0.000008       0.000092       0.000030
   7       0.000001       0.000002       0.000006
   8      -0.000018       0.000042       0.000029
   9      -0.000008      -0.000011      -0.000001
  10      -0.000001       0.000003      -0.000003
  11       0.000054       0.000095      -0.000004
  12       0.000000      -0.000002       0.000001
  13      -0.000000      -0.000001       0.000001
  14      -0.000002      -0.000001       0.000003
---------------------------------------------------
 Number of fixed atoms: 0
 Gradient time:  CPU 397.00 s  wall 29.78 s
 ----------------------------------------------------------------
             Standard Nuclear Orientation (Angstroms)
    I     Atom           X                Y                Z
 ----------------------------------------------------------------
    1      C      -0.4293337993     0.5481844110     1.0021154516
[...]
 Red. Mass:       1.1213                 2.7079                 1.1853
 IR Active:          YES                    YES                    YES
 IR Intens:      120.798                  4.792                196.839
 Raman Active:       YES                    YES                    YES
               X      Y      Z        X      Y      Z        X      Y      Z
 C          0.024 -0.005  0.019   -0.117  0.023 -0.108    0.047 -0.002  0.002
 C          0.010 -0.011  0.007   -0.034  0.047 -0.057    0.014  0.005 -0.001
 O          0.010 -0.036  0.008   -0.005  0.172 -0.064   -0.006  0.011  0.001
 O          0.005  0.003 -0.011   -0.016 -0.024  0.040   -0.005  0.011 -0.000
 C          0.000  0.013 -0.030   -0.004 -0.072  0.130   -0.011 -0.019 -0.019
 H          0.073 -0.020  0.000   -0.337  0.096 -0.028    0.114 -0.010 -0.022
 H          0.003  0.066 -0.033   -0.024 -0.321  0.145   -0.007  0.013 -0.022
 H         -0.006 -0.008 -0.071    0.028  0.031  0.330   -0.037 -0.013 -0.028
 O          0.001  0.020 -0.010   -0.009 -0.089  0.050   -0.013 -0.034 -0.002
 O         -0.036  0.011  0.006    0.153 -0.049 -0.016   -0.076  0.016  0.040
 H          0.026  0.004  0.073   -0.128 -0.011 -0.318    0.049  0.024  0.078
 O          0.018 -0.025 -0.038    0.019 -0.014 -0.004   -0.005  0.002 -0.004
 H         -0.437  0.431  0.769   -0.289  0.315  0.291    0.056 -0.071  0.033
 H         -0.045  0.009  0.008    0.344 -0.022 -0.094    0.888  0.152 -0.374
 TransDip  -0.149  0.176  0.266   -0.036  0.018  0.058    0.426  0.005 -0.142

 Mode:                10                     11                     12
 Frequency:       261.19                 382.57                 460.74
 Force Cnst:      0.0425                 0.2274                 0.3127
 Red. Mass:       1.0572                 2.6375                 2.5005
 IR Active:          YES                    YES                    YES
 IR Intens:      129.048                  8.428                 10.420
 Raman Active:       YES                    YES                    YES
               X      Y      Z        X      Y      Z        X      Y      Z
 C         -0.011  0.004 -0.010    0.149 -0.021  0.003   -0.007  0.031  0.049
 C         -0.002  0.007 -0.005    0.028 -0.044 -0.087   -0.053 -0.044 -0.061
 O          0.002  0.014 -0.005    0.002  0.128 -0.092    0.026  0.032 -0.078
 O         -0.001  0.001  0.003   -0.031 -0.117  0.044   -0.004 -0.133  0.031
 C          0.001 -0.002  0.007   -0.009 -0.103  0.093   -0.115  0.098 -0.071
 H         -0.026  0.006 -0.004    0.505  0.106 -0.143    0.342  0.092 -0.088
 H          0.008 -0.026  0.005   -0.162 -0.360  0.154    0.121  0.474 -0.170
 H          0.004  0.005  0.021    0.203 -0.038  0.322   -0.353 -0.022 -0.416
 O          0.001 -0.001  0.002   -0.033  0.140 -0.004   -0.070 -0.012  0.107
 O          0.015 -0.003 -0.005   -0.092 -0.006  0.004    0.165  0.011  0.017
 H         -0.012  0.003 -0.018    0.166  0.068  0.411    0.016  0.069  0.415
 O         -0.031  0.023 -0.032   -0.002 -0.002 -0.001   -0.001 -0.000 -0.001
 H          0.464 -0.601  0.643    0.001 -0.003 -0.024    0.005 -0.007 -0.010
 H         -0.057 -0.013  0.026   -0.249 -0.036 -0.031    0.110  0.003  0.036
 TransDip   0.156 -0.210  0.252    0.026 -0.082  0.035   -0.058  0.085 -0.004

 Mode:                13                     14                     15
 Frequency:       555.62                 609.69                 687.44
 Force Cnst:      0.9594                 0.9368                 0.7007
 Red. Mass:       5.2745                 4.2774                 2.5168
 IR Active:          YES                    YES                    YES
 IR Intens:       30.088                 23.050                 11.626
 Raman Active:       YES                    YES                    YES
               X      Y      Z        X      Y      Z        X      Y      Z
 C         -0.024  0.200  0.085    0.152  0.143 -0.193    0.046 -0.076  0.160
 C         -0.134 -0.028 -0.064    0.276 -0.021 -0.043    0.174 -0.117 -0.028
 O          0.020 -0.064 -0.097   -0.136 -0.168  0.001   -0.029  0.134 -0.017
 O          0.003 -0.215  0.117   -0.083 -0.050  0.168   -0.074 -0.030 -0.095
 C          0.156  0.281  0.132   -0.066  0.059 -0.012    0.034  0.013  0.086
 H         -0.210  0.505  0.124   -0.196  0.015 -0.056   -0.442 -0.017  0.335
 H         -0.086  0.284  0.214   -0.012 -0.053 -0.023    0.013  0.507  0.066
 H          0.154  0.332  0.218   -0.164  0.156  0.105   -0.060 -0.182 -0.313
 O          0.126 -0.121 -0.139   -0.073  0.042  0.052   -0.027  0.005 -0.003
 O         -0.142 -0.004 -0.023    0.040 -0.001  0.002   -0.029  0.005 -0.028
 H          0.002 -0.134 -0.106    0.077  0.522 -0.592   -0.006  0.017 -0.414
 O         -0.000  0.001 -0.001    0.000 -0.000  0.000    0.000  0.000 -0.000
 H          0.007 -0.008  0.013   -0.003  0.003  0.008    0.006 -0.007  0.016
 H          0.066  0.034  0.001   -0.006 -0.011 -0.034   -0.018  0.008 -0.021
 TransDip   0.015  0.171  0.037    0.077  0.097 -0.092    0.074 -0.049  0.064

 Mode:                16                     17                     18
 Frequency:       866.84                 882.23                 966.52
 Force Cnst:      1.8051                 2.0094                 1.8325
 Red. Mass:       4.0773                 4.3817                 3.3295
 IR Active:          YES                    YES                    YES
 IR Intens:       32.213                 15.868                 28.571
 Raman Active:       YES                    YES                    YES
               X      Y      Z        X      Y      Z        X      Y      Z
 C          0.053 -0.072  0.066   -0.211  0.042  0.167    0.186 -0.065  0.031
 C         -0.070  0.226 -0.103    0.180  0.055 -0.083   -0.133  0.056 -0.002
 O         -0.019 -0.109 -0.180   -0.059 -0.026 -0.102    0.025 -0.006 -0.047
 O          0.069  0.095  0.189   -0.022  0.041  0.093    0.031 -0.004  0.011
 C          0.108 -0.162  0.083   -0.158 -0.118 -0.045   -0.127  0.023 -0.023
 H         -0.178  0.119  0.142    0.028  0.057  0.079   -0.286 -0.224  0.215
 H          0.232  0.399  0.007   -0.251 -0.040 -0.017   -0.491  0.056  0.092
 H         -0.043 -0.424 -0.448    0.199 -0.279 -0.161   -0.084  0.085  0.100
 O         -0.074  0.020  0.070    0.200 -0.002 -0.167   -0.062  0.044 -0.178
 O         -0.045  0.010 -0.084    0.038 -0.013  0.122    0.104 -0.015  0.213
 H          0.059 -0.278 -0.116   -0.256  0.537  0.385    0.173 -0.336 -0.472
 O          0.000  0.000  0.000    0.000 -0.000  0.000    0.000  0.000 -0.000
 H         -0.003  0.003 -0.003    0.000  0.000 -0.007    0.005 -0.007  0.010
 H         -0.046  0.013 -0.052    0.035 -0.015  0.105   -0.020 -0.053  0.006
 TransDip   0.070  0.117 -0.120   -0.083  0.096 -0.015   -0.169  0.011 -0.025

 Mode:                19                     20                     21
 Frequency:      1009.13                1059.18                1119.80
 Force Cnst:      1.3044                 2.4406                 1.8572
 Red. Mass:       2.1740                 3.6924                 2.5138
 IR Active:          YES                    YES                    YES
 IR Intens:       14.139                 26.451                 26.650
 Raman Active:       YES                    YES                    YES
               X      Y      Z        X      Y      Z        X      Y      Z
 C         -0.065 -0.148  0.051    0.123  0.020  0.129   -0.002 -0.100 -0.169
 C          0.130  0.027 -0.044   -0.113  0.034  0.006    0.035 -0.002 -0.009
 O         -0.034 -0.007 -0.092    0.019  0.008 -0.054   -0.004 -0.010  0.042
 O         -0.008  0.047  0.049    0.014 -0.033 -0.005    0.004  0.034  0.005
 C          0.019  0.182 -0.022   -0.204 -0.014 -0.100   -0.166  0.026  0.168
 H          0.139 -0.582  0.013   -0.298 -0.439  0.321    0.160  0.162 -0.253
 H         -0.035 -0.216  0.021   -0.199 -0.282 -0.071   -0.270  0.555  0.181
 H          0.079  0.350  0.317   -0.100  0.150  0.241   -0.324 -0.036 -0.056
 O         -0.033 -0.029  0.032    0.202  0.005  0.179    0.154  0.020  0.001
 O          0.001  0.001 -0.012   -0.060  0.007 -0.161   -0.033 -0.001 -0.040
 H         -0.012 -0.480  0.183    0.052  0.256 -0.337    0.060 -0.472  0.074
 O          0.000  0.000  0.000    0.000 -0.000 -0.000    0.000  0.000 -0.000
 H          0.000  0.000 -0.001    0.000 -0.001  0.004    0.003 -0.004  0.003
 H          0.021  0.004 -0.001    0.069  0.049  0.082    0.022  0.018  0.048
 TransDip   0.082  0.073  0.050   -0.114  0.019  0.117   -0.159  0.028 -0.035

 Mode:                22                     23                     24
 Frequency:      1223.10                1283.40                1346.21
 Force Cnst:      1.1706                 1.2344                 1.6780
 Red. Mass:       1.3281                 1.2720                 1.5715
 IR Active:          YES                    YES                    YES
 IR Intens:       24.025                  5.194                 55.426
 Raman Active:       YES                    YES                    YES
               X      Y      Z        X      Y      Z        X      Y      Z
 C         -0.004  0.048  0.048    0.006 -0.102 -0.031    0.010 -0.150  0.020
 C          0.060 -0.029 -0.012   -0.028 -0.001  0.002   -0.033 -0.090  0.039
 O         -0.010  0.001  0.012    0.003 -0.003 -0.001   -0.004  0.003 -0.061
 O         -0.007  0.015  0.009    0.011  0.019  0.008    0.025  0.075  0.039
 C         -0.016 -0.036 -0.119    0.017  0.063 -0.036    0.020  0.020 -0.018
 H         -0.103  0.659  0.036    0.059  0.203 -0.081   -0.064  0.548 -0.008
 H         -0.284 -0.171 -0.027   -0.544  0.186  0.148    0.147 -0.094 -0.051
 H          0.056  0.030  0.044    0.611 -0.117 -0.053   -0.504  0.310  0.217
 O         -0.007  0.004  0.047   -0.026 -0.023  0.050    0.016  0.004 -0.014
 O          0.009 -0.000 -0.010    0.006 -0.005 -0.014    0.000  0.010  0.010
 H          0.069 -0.635 -0.019   -0.051  0.387 -0.067   -0.057  0.409 -0.018
 O          0.000  0.000 -0.000    0.000  0.000 -0.000   -0.000 -0.000 -0.000
 H          0.002 -0.003  0.002    0.004 -0.005  0.003   -0.000  0.000  0.001
 H          0.020  0.003  0.028    0.077  0.014  0.144   -0.092 -0.018 -0.198
 TransDip   0.011 -0.135 -0.079    0.036  0.056 -0.030   -0.052 -0.231  0.030

 Mode:                25                     26                     27
 Frequency:      1392.57                1402.11                1443.28
 Force Cnst:      1.3816                 1.6381                 2.7236
 Red. Mass:       1.2092                 1.4142                 2.2192
 IR Active:          YES                    YES                    YES
 IR Intens:       16.169                168.175                142.934
 Raman Active:       YES                    YES                    YES
               X      Y      Z        X      Y      Z        X      Y      Z
 C          0.026 -0.044  0.007   -0.030  0.058 -0.006    0.017 -0.098 -0.015
 C         -0.006 -0.004 -0.010   -0.002 -0.053  0.049    0.037  0.203 -0.115
 O          0.001 -0.001  0.005   -0.005  0.005 -0.046    0.009 -0.015  0.116
 O          0.004  0.010  0.004    0.004  0.020  0.011   -0.029 -0.104 -0.050
 C         -0.063  0.056  0.034    0.099 -0.085 -0.038    0.071  0.015 -0.022
 H         -0.030  0.205  0.006    0.040 -0.224 -0.009   -0.472  0.131  0.171
 H          0.425 -0.273 -0.115   -0.361  0.338  0.097   -0.270 -0.164  0.097
 H          0.121 -0.079 -0.116   -0.353  0.209  0.237   -0.435  0.145 -0.047
 O         -0.017  0.032 -0.040   -0.018  0.043 -0.009   -0.002  0.016  0.000
 O         -0.010 -0.041 -0.021   -0.004 -0.033 -0.021   -0.001 -0.007 -0.005
 H          0.019 -0.012 -0.050   -0.023  0.029  0.056    0.005  0.204  0.496
 O         -0.000 -0.000  0.000   -0.000  0.000 -0.000   -0.000  0.000  0.000
 H         -0.002  0.003 -0.000    0.002 -0.002  0.000    0.000  0.001 -0.007
 H          0.332  0.060  0.722    0.268  0.046  0.597    0.063  0.011  0.134
 TransDip  -0.000 -0.022  0.127    0.176 -0.205  0.316    0.077  0.356 -0.117

 Mode:                28                     29                     30
 Frequency:      1450.12                1463.38                1593.45
 Force Cnst:      1.4718                 1.6484                14.8814
 Red. Mass:       1.1879                 1.3065                 9.9475
 IR Active:          YES                    YES                    YES
 IR Intens:       54.060                102.155               1270.976
 Raman Active:       YES                    YES                    YES
               X      Y      Z        X      Y      Z        X      Y      Z
 C          0.045  0.018 -0.070   -0.017 -0.039  0.044   -0.012 -0.057 -0.040
 C         -0.000 -0.051  0.042    0.013  0.086 -0.053    0.157  0.355  0.655
 O         -0.005  0.004 -0.036    0.004 -0.006  0.051   -0.035 -0.020 -0.283
 O          0.006  0.023  0.010   -0.012 -0.041 -0.019   -0.072 -0.226 -0.170
 C         -0.039 -0.014 -0.012   -0.034 -0.059 -0.040   -0.024  0.007  0.014
 H         -0.582 -0.028  0.181    0.201  0.135 -0.054    0.151  0.432 -0.116
 H          0.196  0.254 -0.100    0.333  0.507 -0.185    0.049 -0.069  0.002
 H          0.316  0.024  0.220    0.219  0.231  0.595    0.016 -0.058 -0.072
 O         -0.008 -0.008 -0.001   -0.011  0.001 -0.008    0.004  0.000 -0.002
 O          0.002  0.002  0.004    0.002 -0.002  0.003   -0.001  0.001 -0.000
 H          0.082 -0.028  0.583   -0.042  0.018 -0.230   -0.004 -0.060 -0.070
 O         -0.000 -0.000  0.000    0.000  0.000  0.000   -0.000 -0.000 -0.000
 H         -0.000  0.001 -0.005   -0.001  0.000  0.001   -0.001  0.002 -0.000
 H         -0.019 -0.004 -0.034    0.000 -0.001  0.016   -0.004  0.001 -0.010
 TransDip  -0.090 -0.065  0.208    0.073  0.286 -0.132    0.238  0.550  0.972

 Mode:                31                     32                     33
 Frequency:      3053.81                3068.61                3127.14
 Force Cnst:      5.8497                 5.9217                 6.3252
 Red. Mass:       1.0646                 1.0674                 1.0978
 IR Active:          YES                    YES                    YES
 IR Intens:       46.842                 33.886                  5.298
 Raman Active:       YES                    YES                    YES
               X      Y      Z        X      Y      Z        X      Y      Z
 C          0.027  0.003 -0.013   -0.058 -0.005  0.032   -0.045 -0.007 -0.053
 C          0.000  0.000 -0.000   -0.000  0.002 -0.001   -0.001 -0.001 -0.000
 O         -0.000  0.000  0.000   -0.000 -0.000  0.000    0.000 -0.000  0.000
 O         -0.000 -0.000  0.000   -0.000 -0.000 -0.000    0.000  0.000  0.000
 C         -0.024 -0.060  0.006   -0.012 -0.029  0.000    0.010 -0.014  0.055
 H          0.063  0.013  0.145   -0.133 -0.026 -0.316    0.254  0.051  0.667
 H          0.107  0.006  0.322    0.057  0.005  0.171   -0.185 -0.026 -0.550
 H          0.207  0.704 -0.404    0.093  0.322 -0.182    0.060  0.197 -0.108
 O         -0.002 -0.000  0.000   -0.000  0.000  0.000    0.001 -0.000  0.000
 O          0.000  0.000  0.000    0.000 -0.000  0.000   -0.001  0.000 -0.000
 H         -0.387 -0.049  0.020    0.829  0.095 -0.049    0.293  0.036 -0.028
 O          0.000  0.000  0.000   -0.000 -0.000 -0.000    0.000 -0.000 -0.000
 H         -0.000 -0.000 -0.000    0.000 -0.000  0.001   -0.000 -0.000  0.000
 H         -0.004  0.004 -0.003   -0.002  0.002 -0.002   -0.002  0.002 -0.000
 TransDip  -0.056 -0.212 -0.012   -0.144 -0.096  0.069   -0.056 -0.025 -0.041

 Mode:                34                     35                     36
 Frequency:      3140.66                3760.27                3843.63
 Force Cnst:      6.3869                 8.9008                 9.2866
 Red. Mass:       1.0990                 1.0684                 1.0669
 IR Active:          YES                    YES                    YES
 IR Intens:       36.094                 89.447                  3.686
 Raman Active:       YES                    YES                    YES
               X      Y      Z        X      Y      Z        X      Y      Z
 C         -0.034 -0.005 -0.045   -0.000 -0.000  0.000   -0.000 -0.000 -0.000
 C         -0.001 -0.002 -0.001   -0.000 -0.000  0.000    0.000  0.000 -0.000
 O          0.000  0.000  0.000   -0.000  0.000 -0.000   -0.000 -0.000  0.000
 O          0.000  0.000  0.001    0.000  0.000  0.000    0.000  0.000 -0.000
 C         -0.014  0.017 -0.068    0.001  0.000 -0.001   -0.000 -0.000  0.000
 H          0.209  0.047  0.550   -0.000  0.000 -0.000    0.000  0.000 -0.000
 H          0.226  0.036  0.682   -0.002  0.000  0.000   -0.000  0.000 -0.000
 H         -0.068 -0.242  0.130    0.000 -0.005  0.003    0.000  0.000 -0.000
 O         -0.001  0.000 -0.001   -0.001  0.001 -0.000    0.000 -0.000 -0.000
 O          0.000 -0.000  0.001    0.011 -0.063  0.004   -0.000 -0.000 -0.000
 H          0.211  0.023 -0.020   -0.001  0.000  0.000   -0.000 -0.000 -0.001
 O         -0.000  0.000 -0.000    0.000  0.000 -0.000   -0.047 -0.041 -0.003
 H          0.001 -0.000  0.001   -0.000 -0.000  0.000    0.752  0.654  0.054
 H          0.002 -0.001  0.002   -0.163  0.983 -0.058   -0.000  0.000 -0.000
 TransDip  -0.044  0.018 -0.186   -0.119  0.269 -0.073   -0.040 -0.046  0.006

 STANDARD THERMODYNAMIC QUANTITIES AT   298.15 K  AND     1.00 ATM

   This Molecule has  0 Imaginary Frequencies
   Zero point vibrational energy:       60.899 kcal/mol

   Atom    1 Element C  Has Mass   12.00000
   Atom    2 Element C  Has Mass   12.00000
   Atom    3 Element O  Has Mass   15.99491
   Atom    4 Element O  Has Mass   15.99491
   Atom    5 Element C  Has Mass   12.00000
   Atom    6 Element H  Has Mass    1.00783
   Atom    7 Element H  Has Mass    1.00783
   Atom    8 Element H  Has Mass    1.00783
   Atom    9 Element O  Has Mass   15.99491
   Atom   10 Element O  Has Mass   15.99491
   Atom   11 Element H  Has Mass    1.00783
   Atom   12 Element O  Has Mass   15.99491
   Atom   13 Element H  Has Mass    1.00783
   Atom   14 Element H  Has Mass    1.00783
   Molecular Mass:   122.021530 amu
   Principal axes and moments of inertia in amu*Bohr^2:
                             1           2           3
    Eigenvalues --     1039.99305  1499.99271  2215.13200
          X               0.91066    -0.00195    -0.41316
          Y              -0.00905     0.99965    -0.02468
          Z               0.41307     0.02621     0.91032
   Rotational Symmetry Number is   1
   The Molecule is an Asymmetric Top
   Translational Enthalpy:        0.889 kcal/mol
   Rotational Enthalpy:           0.889 kcal/mol
   Vibrational Enthalpy:         65.982 kcal/mol
   gas constant (RT):             0.592 kcal/mol
   Translational Entropy:        40.311  cal/mol.K
   Rotational Entropy:           29.625  cal/mol.K
   Vibrational Entropy:          37.298  cal/mol.K

   Total Enthalpy:               68.352 kcal/mol
   Total Entropy:               107.234  cal/mol.K
Archival summary:
1\1\c6-86\FREQ\ProcedureUnspecified\BasisUnspecified\536(2-,1)\lmgong\FriMar2017:45:282020FriMar2017:45:282020\0\\#,FREQ,ProcedureUnspecified,BasisUnspecified,\\-2,1\O\O,1,1.42663\H,2,0.970282,1,102.174\C,1,1.43245,2,108.325,3,93.8769,0\H,4,1.09311,1,103.086,2,-172.155,0\H,4,1.0966,1,108.919,2,-56.3242,0\C,4,1.51538,1,112.987,2,68.2748,0\H,7,1.09207,4,110.545,1,-62.1258,0\H,7,1.09751,4,107.701,1,-179.078,0\C,7,1.53857,4,113.584,1,62.0705,0\O,10,1.25801,7,117.18,4,41.7605,0\O,10,1.25855,7,117.068,4,-139.642,0\H,9,2.53169,7,116.015,4,-48.6439,0\O,13,0.963055,9,125.032,7,140.502,0\\\@

 Total job time:  13681.52s(wall), 188728.21s(cpu) 
 Fri Mar 20 17:45:29 2020

        *************************************************************
        *                                                           *
        *  Thank you very much for using Q-Chem.  Have a nice day.  *
        *                                                           *
        *************************************************************


