
Running Job 1 of 1 qc-3-tshess.in
qchem qc-3-tshess.in_96861.0 /scratch/alotsuki/1165978/qc-3-tshess.d/ 1
/home/leeping/opt/qchem/5.0.2-openmp/exe/qcprog.exe_s qc-3-tshess.in_96861.0 /scratch/alotsuki/1165978/qc-3-tshess.d/
Check license passed

                  Welcome to Q-Chem
     A Quantum Leap Into The Future Of Chemistry


 Q-Chem 5.0, Q-Chem, Inc., Pleasanton, CA (2017)

 Yihan Shao,  Zhengting Gan,  E. Epifanovsky,  A. T. B. Gilbert,  M. Wormit,  
 J. Kussmann,  A. W. Lange,  A. Behn,  Jia Deng,  Xintian Feng,  D. Ghosh,  
 M. Goldey,  P. R. Horn,  L. D. Jacobson,  I. Kaliman,  T. Kus,  A. Landau,  
 Jie Liu,  E. I. Proynov,  R. M. Richard,  R. P. Steele,  E. J. Sundstrom,  
 H. L. Woodcock III,  P. M. Zimmerman,  D. Zuev,  B. Albrecht,  E. Alguire,  
 S. A. Baeppler,  D. Barton,  Z. Benda,  Y. A. Bernard,  E. J. Berquist,  
 K. B. Bravaya,  H. Burton,  D. Casanova,  Chun-Min Chang,  Yunqing Chen,  
 A. Chien,  K. D. Closser,  M. P. Coons,  S. Dasgupta,  A. L. Dempwolff,  
 M. Diedenhofen,  Hainam Do,  R. G. Edgar,  Po-Tung Fang,  S. Fatehi,  
 Qingguo Feng,  J. Fosso-Tande,  Qinghui Ge,  A. Ghysels,  G. Gidofalvi,  
 J. Gomes,  J. Gonthier,  A. Gunina,  M. W. D. Hanson-Heine,  
 P. H. P. Harbach,  A. W. Hauser,  J. E. Herr,  E. G. Hohenstein,  
 Z. C. Holden,  Kerwin Hui,  T.-C. Jagau,  Hyunjun Ji,  B. Kaduk,  
 K. Khistyaev,  Jaehoon Kim,  P. Klunzinger,  K. Koh,  D. Kosenkov,  
 L. Koulias,  T. Kowalczyk,  C. M. Krauter,  A. Kunitsa,  Ka Un Lao,  
 A. Laurent,  K. V. Lawler,  Joonho Lee,  D. Lefrancois,  S. Lehtola,  
 D. S. Levine,  Yi-Pei Li,  You-Sheng Lin,  Fenglai Liu,  E. Livshits,  
 A. Luenser,  P. Manohar,  E. Mansoor,  S. F. Manzer,  Shan-Ping Mao,  
 Yuezhi Mao,  N. Mardirossian,  A. V. Marenich,  T. Markovich,  
 L. A. Martinez-Martinez,  S. A. Maurer,  N. J. Mayhall,  S. C. McKenzie,  
 J.-M. Mewes,  A. F. Morrison,  J. W. Mullinax,  K. Nanda,  
 T. S. Nguyen-Beck,  R. Olivares-Amaya,  J. A. Parkhill,  T. M. Perrine,  
 F. Plasser,  S. Prager,  A. Prociuk,  E. Ramos,  D. R. Rehn,  F. Rob,  
 M. Schneider,  N. Sergueev,  S. M. Sharada,  S. Sharma,  D. W. Small,  
 T. Stauch,  T. Stein,  Yu-Chuan Su,  A. J. W. Thom,  A. Tkatchenko,  
 T. Tsuchimochi,  L. Vogt,  O. Vydrov,  M. A. Watson,  J. Wenzel,  
 M. de Wergifosse,  T. A. Wesolowski,  A. White,  J. Witte,  A. Yamada,  
 Jun Yang,  K. Yao,  S. Yeganeh,  S. R. Yost,  Zhi-Qiang You,  A. Zech,  
 Igor Ying Zhang,  Xing Zhang,  Yan Zhao,  Ying Zhu,  B. R. Brooks,  
 G. K. L. Chan,  C. J. Cramer,  M. S. Gordon,  W. J. Hehre,  A. Klamt,  
 M. W. Schmidt,  C. D. Sherrill,  D. G. Truhlar,  A. Aspuru-Guzik,  R. Baer,  
 A. T. Bell,  N. A. Besley,  Jeng-Da Chai,  R. A. DiStasio Jr.,  A. Dreuw,  
 B. D. Dunietz,  T. R. Furlani,  Chao-Ping Hsu,  Yousung Jung,  Jing Kong,  
 D. S. Lambrecht,  WanZhen Liang,  C. Ochsenfeld,  V. A. Rassolov,  
 L. V. Slipchenko,  J. E. Subotnik,  T. Van Voorhis,  J. M. Herbert,  
 A. I. Krylov,  P. M. W. Gill,  M. Head-Gordon

 Contributors to earlier versions of Q-Chem not listed above: 
 R. D. Adamson,  B. Austin,  J. Baker,  G. J. O. Beran,  K. Brandhorst,  
 S. T. Brown,  E. F. C. Byrd,  A. K. Chakraborty,  C.-L. Cheng,  
 Siu Hung Chien,  D. M. Chipman,  D. L. Crittenden,  H. Dachsel,  
 R. J. Doerksen,  A. D. Dutoi,  L. Fusti-Molnar,  W. A. Goddard III,  
 A. Golubeva-Zadorozhnaya,  S. R. Gwaltney,  G. Hawkins,  A. Heyden,  
 S. Hirata,  G. Kedziora,  F. J. Keil,  C. Kelley,  Jihan Kim,  R. A. King,  
 R. Z. Khaliullin,  P. P. Korambath,  W. Kurlancheek,  A. M. Lee,  M. S. Lee,  
 S. V. Levchenko,  Ching Yeh Lin,  D. Liotard,  R. C. Lochan,  I. Lotan,  
 P. E. Maslen,  N. Nair,  D. P. O'Neill,  D. Neuhauser,  E. Neuscamman,  
 C. M. Oana,  R. Olson,  B. Peters,  R. Peverati,  P. A. Pieniazek,  
 Y. M. Rhee,  J. Ritchie,  M. A. Rohrdanz,  E. Rosta,  N. J. Russ,  
 H. F. Schaefer III,  N. E. Schultz,  N. Shenvi,  A. C. Simmonett,  A. Sodt,  
 D. Stuck,  K. S. Thanthiriwatte,  V. Vanovschi,  Tao Wang,  A. Warshel,  
 C. F. Williams,  Q. Wu,  X. Xu,  W. Zhang

 Please cite Q-Chem as follows:
 Y. Shao et al., Mol. Phys. 113, 184-215 (2015)
 DOI: 10.1080/00268976.2014.952696

 Q-Chem 5.0.2 for Intel X86 EM64T Linux

 Parts of Q-Chem use Armadillo 5.200.1 (Boston Tea Smuggler).
 http://arma.sourceforge.net/

 Q-Chem begins on Mon Apr 16 21:21:37 2018  

Host: 
0

     Scratch files written to /scratch/alotsuki/1165978/qc-3-tshess.d//
 Dec517 15110_ 26548  26544 5633   
Processing $rem in /home/leeping/opt/qchem/5.0.2-openmp/config/preferences.
 MEM_STATIC 2000
 MEM_TOTAL  8000
 SYMMETRY   OFF
 SYM_IGNORE TRUE 
Symmetry turned off for PCM/SM12/SMD calculation

Checking the input file for inconsistencies... 	...done.

--------------------------------------------------------------
User input:
--------------------------------------------------------------
$molecule
-2 1
C       -0.6587514450   -0.4016882102    0.6737605213
C        0.5554569393   -0.4596903988    0.0139637163
H       -1.1201641252   -1.3307553249    0.9944581582
H       -0.8496812786    0.4469749504    1.3225224491
H        0.8637449231   -1.3925209466   -0.4564456220
C        1.4225173642    0.7060961501   -0.2125197057
O        2.4988419847    0.5269440924   -0.8825740153
O        1.0987374548    1.8440835807    0.2662541400
O       -2.1503945278    0.0326997301   -0.4449853835
H       -1.6603072896    0.0278563767   -1.2744342584
$end

$rem
jobtype               freq
method                wb97x-v
basis                 def2-tzvpd
symmetry              off
sym_ignore            true
incdft                false
incfock               0
!scf_algorithm        diis_gdm
scf_convergence       8
thresh                14
!purecart             112
max_scf_cycles        1000
geom_opt_max_cycles   500
geom_opt_dmax         100
geom_opt_tol_gradient 10
solvent_method        pcm
ideriv                1
rpath_tol_displacement 1000
rpath_max_cycles      100
rpath_direction       1
!scf_guess            read
scf_guess             read
$end

$pcm
theory              cosmo
method              iswig
Radii               bondi
vdwScale            1.20
hpoints             110
heavypoints         110
$end

$solvent
dielectric 78.400000
$end

--------------------------------------------------------------
 ----------------------------------------------------------------
             Standard Nuclear Orientation (Angstroms)
    I     Atom           X                Y                Z
 ----------------------------------------------------------------
    1      C      -0.6587514450    -0.4016882102     0.6737605213
    2      C       0.5554569393    -0.4596903988     0.0139637163
    3      H      -1.1201641252    -1.3307553249     0.9944581582
    4      H      -0.8496812786     0.4469749504     1.3225224491
    5      H       0.8637449231    -1.3925209466    -0.4564456220
    6      C       1.4225173642     0.7060961501    -0.2125197057
    7      O       2.4988419847     0.5269440924    -0.8825740153
    8      O       1.0987374548     1.8440835807     0.2662541400
    9      O      -2.1503945278     0.0326997301    -0.4449853835
   10      H      -1.6603072896     0.0278563767    -1.2744342584
 ----------------------------------------------------------------
 Nuclear Repulsion Energy =   212.7311587245 hartrees
 There are       24 alpha and       24 beta electrons
 Requested basis set is def2-TZVPD
 There are 101 shells and 267 basis functions

 Total QAlloc Memory Limit   8000 MB
 Mega-Array Size      1956 MB
 MEM_STATIC part      2000 MB
 Discretize the solute cavity surface with Lebedev spheres
	Using 110 Lebedev grid points for each H atom
	Using 110 Lebedev grid points for other atoms
	Atomic van der Waals radii will be scaled by 1.20
 Remove points where switching function is < 1.0e-08
 Keep 665 surface tesserae and discard 435 interior tesserae
 Molecular Surface Area = 129.993 Angst**2

                       Distance Matrix (Angstroms)
             C (  1)   C (  2)   H (  3)   H (  4)   H (  5)   C (  6)
   C (  2)  1.383112
   H (  3)  1.085778  2.127870
   H (  4)  1.085161  2.123389  1.827871
   H (  5)  2.139418  1.089265  2.458624  3.079659
   C (  6)  2.518801  1.470424  3.474304  2.754339  2.185388
   O (  7)  3.640732  2.356687  4.480123  4.010169  2.557239  1.280446
   O (  8)  2.880680  2.380374  3.941244  2.619914  3.324624  1.276352
   O (  9)  1.914493  2.788317  2.234364  2.233285  3.334130  3.643241
   H ( 10)  2.232283  2.609077  2.699158  2.752628  3.009554  3.330387
             O (  7)   O (  8)   O (  9)
   O (  8)  2.239410
   O (  9)  4.695866  3.787325
   H ( 10)  4.207275  3.644822  0.963428
 
 A cutoff of  1.0D-14 yielded   4932 shell pairs
 There are     34866 function pairs (     44880 Cartesian)
 
 -------------------------------------------------------
 OpenMP Integral Computing Module                       
 Release: version 1.0, May 2013, Q-Chem Inc. Pittsburgh 
 -------------------------------------------------------
 Integral Job Info:
 Integral job number is                      11
 Integral operator is                         1
 short-range coefficients              16700000
 long-range coefficients              100000000
 Omega coefficients                         300
 if combine SR and LR in K                    1
 Integral screening is                        0
 Integral computing path is                   2
 max size of driver memory is            800000
 size of driver memory is                776718
 size of scratch memory is              4473992
 max col of scratch BK array              10000
 max len of scratch array in speh3          662
 max len of scratch index in speh4           32
 max int batch size is                      520
 min int batch size is                       52
 fixed nKL is                                52
 max L of basis functions is                  3
 order of int derivative is                   0
 number of shells is                        101
 number of basis is                         303
 number of cartesian basis is               303
 number of contracted shell pairs          4932
 number of primitive shell pairs          10620
 maxK2 (contraction) of shell pair           36
 max number of K2 of shell pair               1
 max number of CS2 of shell pair            746
 max number of PS2 of shell pair           1206
 mem total for path MDJ                  618648
 -------------------------------------------------------
 Smallest overlap matrix eigenvalue = 6.17E-06
 Guess MOs from SCF MO coefficient file
 Reading MOs from coefficient file
 Reading MOs from coefficient file
 Long-range K will be added via erf
 Coulomb attenuation parameter = 0.3 bohr**(-1)
 A restricted hybrid HF-DFT SCF calculation will be
 performed using Pulay DIIS extrapolation
 Polarizable Continuum solvation model will be applied
 Exchange:     0.1670 Hartree-Fock + 1.0000 wB97X-V + LR-HF
 Correlation:  1.0000 wB97X-V
 Using SG-2 standard quadrature grid
 Nonlocal Correlation:  VV10 with C = 0.0100 and b = 6.00
 Grid used for NLC:  SG-1 standard quadrature
 SCF converges when DIIS error is below 1.0E-08
Using Q-Chem read-in guess as SCF_GUESS READ specified.

 using 4 threads for integral computing
 -------------------------------------------------------
 OpenMP Integral computing Module                
 Release: version 1.0, May 2013, Q-Chem Inc. Pittsburgh 
 -------------------------------------------------------
 using 4 threads for integral computing
 -------------------------------------------------------
 OpenMP Integral computing Module                
 Release: version 1.0, May 2013, Q-Chem Inc. Pittsburgh 
 -------------------------------------------------------
 -------------------------------------------------------
 OpenMP BLAS3 based DFT computing Module                
 Release: version 1.0, May 2013, Q-Chem Inc. Pittsburgh 
 -------------------------------------------------------
 -------------------------------------------------------
 OpenMP BLAS3 based DFT computing Module                
 Release: version 1.0, May 2013, Q-Chem Inc. Pittsburgh 
 -------------------------------------------------------
 -------------------------------------------------------
 OpenMP BLAS3 based DFT computing Module                
 Release: version 1.0, May 2013, Q-Chem Inc. Pittsburgh 
 -------------------------------------------------------
 ---------------------------------------
  Cycle       Energy         DIIS Error
 ---------------------------------------
    1    -342.2944311757      5.13E-04
    2    -342.6310925463      5.88E-04
    3    -342.6360007241      2.63E-04
    4    -342.6368091826      1.90E-04
    5    -342.6372596054      1.47E-04
    6    -342.6375546716      1.11E-04
    7    -342.6377280800      8.39E-05
    8    -342.6378122581      6.70E-05
    9    -342.6378743704      5.13E-05
   10    -342.6379093865      3.97E-05
   11    -342.6379394448      2.60E-05
   12    -342.6379510712      1.80E-05
   13    -342.6379550566      1.43E-05
   14    -342.6379570949      1.19E-05
   15    -342.6379582006      1.05E-05
   16    -342.6379594692      8.41E-06
   17    -342.6379618056      6.57E-09 Convergence criterion met
 ---------------------------------------

************** Final PCM Free Energy Summary **************
 G_electrostatic  =      -0.34353068 hartree =    -215.56875802 kcal/mol
 G_cavitation     =       0.00000000 hartree =       0.00000000 kcal/mol
 G_dispersion     =       0.00000000 hartree =       0.00000000 kcal/mol
 G_repulsion      =       0.00000000 hartree =       0.00000000 kcal/mol
 --------------------------------------------------
 Non-electrostatic Free Energy =       0.00000000 hartree =       0.00000000 kcal/mol
 Total                         =      -0.34353068 hartree =    -215.56875802 kcal/mol
 --------------------------------------------------
 SCF Energy (H0 + V/2)                       =    -342.63796181 
 Solute Internal Energy (H0)                 =    -342.29443112 
 Total Free Energy (H0 + V/2 + non-elec)     =    -342.63796181 hartree
                                             = -215008.56615717 kcal/mol
***********************************************************

 SCF time:  CPU 675.14 s  wall 174.12 s
 SCF   energy in the final basis set = -342.63796181
 Total energy in the final basis set = -342.63796181
 
 --------------------------------------------------------------
 
                    Orbital Energies (a.u.)
 --------------------------------------------------------------
 
 Alpha MOs
 -- Occupied --
-19.119 -19.118 -19.118 -10.319 -10.269 -10.194  -1.115  -1.018
 -1.006  -0.849  -0.701  -0.583  -0.539  -0.516  -0.483  -0.477
 -0.462  -0.433  -0.400  -0.334  -0.328  -0.323  -0.309  -0.246
 -- Virtual --
  0.065   0.084   0.091   0.094   0.115   0.122   0.129   0.131
  0.147   0.153   0.163   0.168   0.181   0.192   0.202   0.217
  0.228   0.242   0.261   0.266   0.283   0.294   0.306   0.318
  0.319   0.322   0.334   0.349   0.359   0.365   0.382   0.386
  0.392   0.401   0.410   0.418   0.422   0.436   0.446   0.455
  0.458   0.467   0.482   0.498   0.505   0.510   0.512   0.518
  0.532   0.544   0.561   0.569   0.574   0.591   0.597   0.607
  0.622   0.629   0.643   0.664   0.672   0.683   0.692   0.699
  0.709   0.720   0.730   0.743   0.747   0.758   0.770   0.785
  0.802   0.825   0.830   0.834   0.848   0.853   0.865   0.876
  0.912   0.928   0.953   0.966   0.984   0.997   1.020   1.031
  1.056   1.080   1.083   1.104   1.127   1.156   1.167   1.223
  1.261   1.305   1.313   1.336   1.353   1.379   1.420   1.452
  1.464   1.514   1.547   1.569   1.674   1.733   1.777   1.808
  1.812   1.863   1.871   1.888   1.910   1.925   1.937   1.968
  1.979   2.005   2.042   2.060   2.078   2.113   2.148   2.156
  2.209   2.237   2.285   2.297   2.345   2.367   2.407   2.433
  2.448   2.459   2.477   2.519   2.597   2.639   2.664   2.683
  2.741   2.798   2.809   2.825   2.884   2.893   2.912   2.954
  2.961   2.984   3.034   3.047   3.099   3.131   3.155   3.164
  3.241   3.275   3.315   3.321   3.362   3.379   3.411   3.417
  3.440   3.448   3.488   3.497   3.535   3.575   3.582   3.607
  3.625   3.657   3.661   3.710   3.726   3.777   3.807   3.873
  3.914   3.977   4.087   4.153   4.243   4.313   4.352   4.415
  4.527   4.534   4.767   4.772   4.892   4.944   4.960   5.060
  5.169   5.336   5.368   5.372   5.385   5.400   5.466   5.491
  5.507   5.570   5.646   5.714   5.738   5.741   5.800   6.010
  6.194   6.286   6.388   6.442   6.575   6.637   6.691   6.720
  6.744   6.756   6.773   6.829   6.949   6.973   6.986   7.032
  7.288   7.331   7.369   7.385   7.404  22.628  22.983  23.639
 43.958  44.307  44.375
 --------------------------------------------------------------
 
          Ground-State Mulliken Net Atomic Charges

     Atom                 Charge (a.u.)
  ----------------------------------------
      1 C                    -0.396724
      2 C                    -0.319612
      3 H                     0.173706
      4 H                     0.147404
      5 H                     0.282021
      6 C                     0.287990
      7 O                    -0.766051
      8 O                    -0.749474
      9 O                    -0.928986
     10 H                     0.269726
  ----------------------------------------
  Sum of atomic charges =    -2.000000

 -----------------------------------------------------------------
                    Cartesian Multipole Moments
 -----------------------------------------------------------------
    Charge (ESU x 10^10)
                -9.6064
    Dipole Moment (Debye)
         X      -4.7672      Y      -7.5190      Z       2.7972
       Tot       9.3320
    Quadrupole Moments (Debye-Ang)
        XX     -88.1560     XY      -9.7596     YY     -56.4365
        XZ       3.3988     YZ      -0.0769     ZZ     -44.0500
    Octopole Moments (Debye-Ang^2)
       XXX     -61.5587    XXY     -35.3394    XYY     -33.0142
       YYY     -71.1158    XXZ      35.3275    XYZ       3.4010
       YYZ       2.1113    XZZ     -26.2770    YZZ     -14.6592
       ZZZ      13.4483
    Hexadecapole Moments (Debye-Ang^3)
      XXXX    -989.1109   XXXY    -125.2825   XXYY    -191.2378
      XYYY    -117.0015   YYYY    -310.9555   XXXZ      64.4053
      XXYZ      12.6922   XYYZ       6.2050   YYYZ       1.8617
      XXZZ    -159.5604   XYZZ     -32.5240   YYZZ     -67.9322
      XZZZ      42.1281   YZZZ       9.0081   ZZZZ    -133.9616
 -----------------------------------------------------------------
 Calculating analytic gradient of the SCF energy
 Gradient of SCF Energy
            1           2           3           4           5           6
    1  -0.0559384  -0.0117577   0.0416043   0.0262886   0.0184070   0.0464274
    2   0.0079124  -0.0772762   0.0680125  -0.0715101   0.0503736   0.0693686
    3   0.0106738   0.0009380  -0.0305625  -0.0488131   0.0842567  -0.0095024
            7           8           9          10
    1  -0.0528606   0.0056566   0.0216547  -0.0394817
    2  -0.0029005  -0.0562868   0.0147357  -0.0024291
    3   0.0293889  -0.0222812  -0.0761678   0.0620696
 Max gradient component =       8.426E-02
 RMS gradient           =       4.516E-02
 Computing fast CPCM-ISWIG gradient
 Updating gradient with PCM contributions...
 -- total gradient after adding PCM contribution --
---------------------------------------------------
  Atom         X              Y              Z     
---------------------------------------------------
   1      -0.000008       0.000028       0.000005
   2       0.000012       0.000018       0.000054
   3       0.000006       0.000031       0.000049
   4      -0.000062       0.000061      -0.000058
   5       0.000062      -0.000003       0.000126
   6      -0.000016       0.000034       0.000001
   7       0.000012       0.000022       0.000053
   8      -0.000067       0.000052      -0.000081
   9       0.000020      -0.000103      -0.000090
  10       0.000041      -0.000140      -0.000058
---------------------------------------------------
 Number of fixed atoms: 0
 Gradient time:  CPU 138.90 s  wall 36.39 s
 ######################################################
 ######################################################
 # Starting finite difference calculation for IDERIV  #
 Finite diff step size:  1.88973e-03 a.u.
 ----------------------------------------------------------------
             Standard Nuclear Orientation (Angstroms)
    I     Atom           X                Y                Z
 ----------------------------------------------------------------
    1      C      -0.6577514450    -0.4016882102     0.6737605213
    2      C       0.5554569393    -0.4596903988     0.0139637163
    3      H      -1.1201641252    -1.3307553249     0.9944581582
    4      H      -0.8496812786     0.4469749504     1.3225224491
    5      H       0.8637449231    -1.3925209466    -0.4564456220
    6      C       1.4225173642     0.7060961501    -0.2125197057
    7      O       2.4988419847     0.5269440924    -0.8825740153
    8      O       1.0987374548     1.8440835807     0.2662541400
    9      O      -2.1503945278     0.0326997301    -0.4449853835
   10      H      -1.6603072896     0.0278563767    -1.2744342584
 ----------------------------------------------------------------
 Nuclear Repulsion Energy =   212.7391066330 hartrees
 There are       24 alpha and       24 beta electrons
 Discretize the solute cavity surface with Lebedev spheres
	Using 110 Lebedev grid points for each H atom
	Using 110 Lebedev grid points for other atoms
	Atomic van der Waals radii will be scaled by 1.20
 Remove points where switching function is < 1.0e-08
 Keep 665 surface tesserae and discard 435 interior tesserae
 Molecular Surface Area = 129.992 Angst**2

                       Distance Matrix (Angstroms)
             C (  1)   C (  2)   H (  3)   H (  4)   H (  5)   C (  6)
   C (  2)  1.382234
   H (  3)  1.086204  2.127870
   H (  4)  1.085338  2.123389  1.827871
   H (  5)  2.138707  1.089265  2.458624  3.079659
   C (  6)  2.517975  1.470424  3.474304  2.754339  2.185388
   O (  7)  3.639865  2.356687  4.480123  4.010169  2.557239  1.280446
   O (  8)  2.880070  2.380374  3.941244  2.619914  3.324624  1.276352
   O (  9)  1.915272  2.788317  2.234364  2.233285  3.334130  3.643241
   H ( 10)  2.232731  2.609077  2.699158  2.752628  3.009554  3.330387
             O (  7)   O (  8)   O (  9)
   O (  8)  2.239410
   O (  9)  4.695866  3.787325
   H ( 10)  4.207275  3.644822  0.963428
 
 Requested basis set is def2-TZVPD
 There are 101 shells and 267 basis functions
 A cutoff of  1.0D-14 yielded   4932 shell pairs
 There are     34866 function pairs (     44880 Cartesian)
 Smallest overlap matrix eigenvalue = 6.14E-06
 Guess MOs from SCF MO coefficient file
 Reading MOs from coefficient file
 Reading MOs from coefficient file
 Long-range K will be added via erf
 Coulomb attenuation parameter = 0.3 bohr**(-1)
 A restricted hybrid HF-DFT SCF calculation will be
 performed using Pulay DIIS extrapolation
 Polarizable Continuum solvation model will be applied
 Exchange:     0.1670 Hartree-Fock + 1.0000 wB97X-V + LR-HF
 Correlation:  1.0000 wB97X-V
 Using SG-2 standard quadrature grid
 Nonlocal Correlation:  VV10 with C = 0.0100 and b = 6.00
 Grid used for NLC:  SG-1 standard quadrature
 SCF converges when DIIS error is below 1.0E-08
Using Q-Chem read-in guess as SCF_GUESS READ specified.

 using 4 threads for integral computing
 -------------------------------------------------------
 OpenMP Integral computing Module                
 Release: version 1.0, May 2013, Q-Chem Inc. Pittsburgh 
 -------------------------------------------------------
 using 4 threads for integral computing
 -------------------------------------------------------
 OpenMP Integral computing Module                
 Release: version 1.0, May 2013, Q-Chem Inc. Pittsburgh 
 -------------------------------------------------------
 -------------------------------------------------------
 OpenMP BLAS3 based DFT computing Module                
 Release: version 1.0, May 2013, Q-Chem Inc. Pittsburgh 
 -------------------------------------------------------
 -------------------------------------------------------
 OpenMP BLAS3 based DFT computing Module                
 Release: version 1.0, May 2013, Q-Chem Inc. Pittsburgh 
 -------------------------------------------------------
 -------------------------------------------------------
 OpenMP BLAS3 based DFT computing Module                
 Release: version 1.0, May 2013, Q-Chem Inc. Pittsburgh 
 -------------------------------------------------------
 ---------------------------------------
  Cycle       Energy         DIIS Error
 ---------------------------------------
    1    -342.2939728634      5.14E-04
    2    -342.6310902305      5.88E-04
    3    -342.6360040461      2.63E-04
    4    -342.6368132106      1.90E-04
    5    -342.6372700335      1.46E-04
    6    -342.6375735470      1.09E-04
    7    -342.6377605870      7.77E-05
    8    -342.6378542047      5.66E-05
    9    -342.6379267521      3.21E-05
   10    -342.6379541781      1.45E-05
   11    -342.6379608210      3.36E-06
   12    -342.6379611869      4.20E-07
   13    -342.6379611919      1.52E-07
   14    -342.6379611927      3.39E-08
   15    -342.6379611927      6.86E-09 Convergence criterion met
 ---------------------------------------

************** Final PCM Free Energy Summary **************
 G_electrostatic  =      -0.34351399 hartree =    -215.55827923 kcal/mol
 G_cavitation     =       0.00000000 hartree =       0.00000000 kcal/mol
 G_dispersion     =       0.00000000 hartree =       0.00000000 kcal/mol
 G_repulsion      =       0.00000000 hartree =       0.00000000 kcal/mol
 --------------------------------------------------
 Non-electrostatic Free Energy =       0.00000000 hartree =       0.00000000 kcal/mol
 Total                         =      -0.34351399 hartree =    -215.55827923 kcal/mol
 --------------------------------------------------
 SCF Energy (H0 + V/2)                       =    -342.63796119 
 Solute Internal Energy (H0)                 =    -342.29444721 
 Total Free Energy (H0 + V/2 + non-elec)     =    -342.63796119 hartree
                                             = -215008.56577254 kcal/mol
***********************************************************

 SCF time:  CPU 595.70 s  wall 153.77 s
 SCF   energy in the final basis set = -342.63796119
 Total energy in the final basis set = -342.63796119
 
 --------------------------------------------------------------
 
                    Orbital Energies (a.u.)
 --------------------------------------------------------------
 
 Alpha MOs
 -- Occupied --
-19.119 -19.118 -19.118 -10.319 -10.268 -10.194  -1.115  -1.018
 -1.006  -0.849  -0.701  -0.583  -0.539  -0.516  -0.483  -0.476
 -0.462  -0.433  -0.400  -0.334  -0.328  -0.323  -0.309  -0.246
 -- Virtual --
  0.065   0.084   0.091   0.094   0.115   0.122   0.129   0.131
  0.147   0.153   0.163   0.168   0.181   0.192   0.202   0.217
  0.228   0.242   0.261   0.266   0.283   0.294   0.306   0.318
  0.319   0.322   0.334   0.349   0.359   0.365   0.382   0.386
  0.392   0.401   0.410   0.418   0.422   0.436   0.446   0.455
  0.458   0.467   0.482   0.498   0.505   0.510   0.512   0.518
  0.532   0.544   0.561   0.569   0.574   0.591   0.597   0.607
  0.622   0.629   0.643   0.664   0.672   0.683   0.692   0.699
  0.709   0.720   0.730   0.743   0.747   0.757   0.770   0.785
  0.802   0.825   0.830   0.834   0.848   0.853   0.865   0.876
  0.912   0.928   0.953   0.966   0.984   0.997   1.020   1.031
  1.056   1.080   1.083   1.104   1.127   1.156   1.167   1.223
  1.261   1.305   1.313   1.335   1.353   1.379   1.420   1.452
  1.464   1.515   1.547   1.569   1.675   1.733   1.777   1.808
  1.812   1.863   1.871   1.888   1.910   1.925   1.937   1.968
  1.979   2.005   2.042   2.060   2.077   2.113   2.148   2.156
  2.209   2.237   2.285   2.297   2.345   2.367   2.407   2.433
  2.448   2.459   2.477   2.519   2.597   2.638   2.664   2.683
  2.741   2.798   2.809   2.825   2.883   2.893   2.913   2.954
  2.962   2.984   3.034   3.047   3.099   3.131   3.155   3.164
  3.241   3.276   3.315   3.321   3.362   3.379   3.411   3.417
  3.440   3.448   3.488   3.497   3.535   3.575   3.582   3.607
  3.625   3.657   3.661   3.710   3.726   3.777   3.807   3.873
  3.914   3.977   4.087   4.153   4.243   4.313   4.352   4.415
  4.528   4.535   4.767   4.772   4.892   4.944   4.961   5.060
  5.170   5.335   5.368   5.372   5.385   5.400   5.466   5.491
  5.507   5.570   5.646   5.714   5.737   5.741   5.800   6.010
  6.194   6.286   6.388   6.442   6.575   6.636   6.691   6.720
  6.744   6.756   6.773   6.829   6.949   6.973   6.986   7.032
  7.288   7.331   7.369   7.385   7.404  22.627  22.984  23.639
 43.958  44.307  44.375
 --------------------------------------------------------------
 
          Ground-State Mulliken Net Atomic Charges

     Atom                 Charge (a.u.)
  ----------------------------------------
      1 C                    -0.396735
      2 C                    -0.318702
      3 H                     0.173375
      4 H                     0.147327
      5 H                     0.281973
      6 C                     0.288209
      7 O                    -0.765942
      8 O                    -0.749347
      9 O                    -0.929639
     10 H                     0.269480
  ----------------------------------------
  Sum of atomic charges =    -2.000000

 -----------------------------------------------------------------
                    Cartesian Multipole Moments
 -----------------------------------------------------------------
    Charge (ESU x 10^10)
                -9.6064
    Dipole Moment (Debye)
         X      -4.7500      Y      -7.5193      Z       2.7991
       Tot       9.3240
    Quadrupole Moments (Debye-Ang)
        XX     -88.1717     XY      -9.7585     YY     -56.4322
        XZ       3.3904     YZ      -0.0763     ZZ     -44.0484
    Octopole Moments (Debye-Ang^2)
       XXX     -61.4555    XXY     -35.3381    XYY     -32.9964
       YYY     -71.1088    XXZ      35.3483    XYZ       3.3972
       YYZ       2.1121    XZZ     -26.2595    YZZ     -14.6602
       ZZZ      13.4533
    Hexadecapole Moments (Debye-Ang^3)
      XXXX    -989.2447   XXXY    -125.2529   XXYY    -191.2339
      XYYY    -116.9861   YYYY    -310.9231   XXXZ      64.3140
      XXYZ      12.6911   XYYZ       6.1972   YYYZ       1.8664
      XXZZ    -159.5721   XYZZ     -32.5196   YYZZ     -67.9285
      XZZZ      42.0903   YZZZ       9.0098   ZZZZ    -133.9596
 -----------------------------------------------------------------
 Calculating analytic gradient of the SCF energy
 Gradient of SCF Energy
            1           2           3           4           5           6
    1  -0.0552512  -0.0124562   0.0415588   0.0263664   0.0182436   0.0465071
    2   0.0081009  -0.0772075   0.0677526  -0.0714303   0.0503924   0.0692499
    3   0.0100798   0.0013218  -0.0304056  -0.0486652   0.0840036  -0.0093741
            7           8           9          10
    1  -0.0528352   0.0056436   0.0216901  -0.0394670
    2  -0.0029027  -0.0562553   0.0147306  -0.0024306
    3   0.0293758  -0.0222826  -0.0761130   0.0620595
 Max gradient component =       8.400E-02
 RMS gradient           =       4.508E-02
 Computing fast CPCM-ISWIG gradient
 Updating gradient with PCM contributions...
 -- total gradient after adding PCM contribution --
---------------------------------------------------
  Atom         X              Y              Z     
---------------------------------------------------
   1       0.000658       0.000229      -0.000580
   2      -0.000456       0.000069       0.000290
   3      -0.000165      -0.000178       0.000157
   4      -0.000156       0.000125       0.000040
   5       0.000049      -0.000009       0.000127
   6      -0.000124      -0.000079       0.000026
   7       0.000059       0.000030       0.000034
   8      -0.000073       0.000106      -0.000065
   9       0.000158      -0.000152       0.000028
  10       0.000051      -0.000141      -0.000057
---------------------------------------------------
 Number of fixed atoms: 0
 Gradient time:  CPU 138.87 s  wall 36.36 s
 ----------------------------------------------------------------
             Standard Nuclear Orientation (Angstroms)
    I     Atom           X                Y                Z
 ----------------------------------------------------------------
    1      C      -0.6597514450    -0.4016882102     0.6737605213
    2      C       0.5554569393    -0.4596903988     0.0139637163
    3      H      -1.1201641252    -1.3307553249     0.9944581582
    4      H      -0.8496812786     0.4469749504     1.3225224491
    5      H       0.8637449231    -1.3925209466    -0.4564456220
    6      C       1.4225173642     0.7060961501    -0.2125197057
    7      O       2.4988419847     0.5269440924    -0.8825740153
    8      O       1.0987374548     1.8440835807     0.2662541400
    9      O      -2.1503945278     0.0326997301    -0.4449853835
   10      H      -1.6603072896     0.0278563767    -1.2744342584
 ----------------------------------------------------------------
 Nuclear Repulsion Energy =   212.7232219348 hartrees
 There are       24 alpha and       24 beta electrons
 Discretize the solute cavity surface with Lebedev spheres
	Using 110 Lebedev grid points for each H atom
	Using 110 Lebedev grid points for other atoms
	Atomic van der Waals radii will be scaled by 1.20
 Remove points where switching function is < 1.0e-08
 Keep 665 surface tesserae and discard 435 interior tesserae
 Molecular Surface Area = 129.995 Angst**2

                       Distance Matrix (Angstroms)
             C (  1)   C (  2)   H (  3)   H (  4)   H (  5)   C (  6)
   C (  2)  1.383990
   H (  3)  1.085354  2.127870
   H (  4)  1.084986  2.123389  1.827871
   H (  5)  2.140130  1.089265  2.458624  3.079659
   C (  6)  2.519627  1.470424  3.474304  2.754339  2.185388
   O (  7)  3.641600  2.356687  4.480123  4.010169  2.557239  1.280446
   O (  8)  2.881291  2.380374  3.941244  2.619914  3.324624  1.276352
   O (  9)  1.913714  2.788317  2.234364  2.233285  3.334130  3.643241
   H ( 10)  2.231834  2.609077  2.699158  2.752628  3.009554  3.330387
             O (  7)   O (  8)   O (  9)
   O (  8)  2.239410
   O (  9)  4.695866  3.787325
   H ( 10)  4.207275  3.644822  0.963428
 
 Requested basis set is def2-TZVPD
 There are 101 shells and 267 basis functions
 A cutoff of  1.0D-14 yielded   4932 shell pairs
 There are     34866 function pairs (     44880 Cartesian)
 Smallest overlap matrix eigenvalue = 6.20E-06
 Guess MOs from SCF MO coefficient file
 Reading MOs from coefficient file
 Reading MOs from coefficient file
 Long-range K will be added via erf
 Coulomb attenuation parameter = 0.3 bohr**(-1)
 A restricted hybrid HF-DFT SCF calculation will be
 performed using Pulay DIIS extrapolation
 Polarizable Continuum solvation model will be applied
 Exchange:     0.1670 Hartree-Fock + 1.0000 wB97X-V + LR-HF
 Correlation:  1.0000 wB97X-V
 Using SG-2 standard quadrature grid
 Nonlocal Correlation:  VV10 with C = 0.0100 and b = 6.00
 Grid used for NLC:  SG-1 standard quadrature
 SCF converges when DIIS error is below 1.0E-08
Using Q-Chem read-in guess as SCF_GUESS READ specified.

 using 4 threads for integral computing
 -------------------------------------------------------
 OpenMP Integral computing Module                
 Release: version 1.0, May 2013, Q-Chem Inc. Pittsburgh 
 -------------------------------------------------------
 using 4 threads for integral computing
 -------------------------------------------------------
 OpenMP Integral computing Module                
 Release: version 1.0, May 2013, Q-Chem Inc. Pittsburgh 
 -------------------------------------------------------
 -------------------------------------------------------
 OpenMP BLAS3 based DFT computing Module                
 Release: version 1.0, May 2013, Q-Chem Inc. Pittsburgh 
 -------------------------------------------------------
 -------------------------------------------------------
 OpenMP BLAS3 based DFT computing Module                
 Release: version 1.0, May 2013, Q-Chem Inc. Pittsburgh 
 -------------------------------------------------------
 -------------------------------------------------------
 OpenMP BLAS3 based DFT computing Module                
 Release: version 1.0, May 2013, Q-Chem Inc. Pittsburgh 
 -------------------------------------------------------
 ---------------------------------------
  Cycle       Energy         DIIS Error
 ---------------------------------------
    1    -342.2953695747      5.14E-04
    2    -342.6310970406      5.87E-04
    3    -342.6360012272      2.63E-04
    4    -342.6368109577      1.90E-04
    5    -342.6372697101      1.45E-04
    6    -342.6375994374      1.04E-04
    7    -342.6378036135      6.83E-05
    8    -342.6379042181      4.08E-05
    9    -342.6379549057      1.34E-05
   10    -342.6379608953      2.76E-06
   11    -342.6379611609      2.42E-07
   12    -342.6379611628      1.67E-07
   13    -342.6379611635      8.23E-08
   14    -342.6379611637      3.45E-08
   15    -342.6379611637      1.11E-08
   16    -342.6379611637      2.24E-09 Convergence criterion met
 ---------------------------------------

************** Final PCM Free Energy Summary **************
 G_electrostatic  =      -0.34354745 hartree =    -215.57927573 kcal/mol
 G_cavitation     =       0.00000000 hartree =       0.00000000 kcal/mol
 G_dispersion     =       0.00000000 hartree =       0.00000000 kcal/mol
 G_repulsion      =       0.00000000 hartree =       0.00000000 kcal/mol
 --------------------------------------------------
 Non-electrostatic Free Energy =       0.00000000 hartree =       0.00000000 kcal/mol
 Total                         =      -0.34354745 hartree =    -215.57927573 kcal/mol
 --------------------------------------------------
 SCF Energy (H0 + V/2)                       =    -342.63796116 
 Solute Internal Energy (H0)                 =    -342.29441372 
 Total Free Energy (H0 + V/2 + non-elec)     =    -342.63796116 hartree
                                             = -215008.56575436 kcal/mol
***********************************************************

 SCF time:  CPU 635.98 s  wall 164.09 s
 SCF   energy in the final basis set = -342.63796116
 Total energy in the final basis set = -342.63796116
 
 --------------------------------------------------------------
 
                    Orbital Energies (a.u.)
 --------------------------------------------------------------
 
 Alpha MOs
 -- Occupied --
-19.120 -19.118 -19.118 -10.319 -10.269 -10.194  -1.115  -1.018
 -1.006  -0.849  -0.702  -0.583  -0.539  -0.516  -0.483  -0.477
 -0.462  -0.433  -0.400  -0.334  -0.328  -0.323  -0.309  -0.246
 -- Virtual --
  0.065   0.084   0.091   0.094   0.115   0.122   0.129   0.131
  0.147   0.153   0.163   0.168   0.181   0.192   0.202   0.217
  0.228   0.242   0.261   0.266   0.283   0.294   0.306   0.318
  0.319   0.322   0.334   0.349   0.359   0.365   0.382   0.386
  0.392   0.401   0.410   0.418   0.422   0.436   0.446   0.455
  0.458   0.467   0.482   0.498   0.505   0.510   0.512   0.518
  0.532   0.544   0.561   0.569   0.574   0.591   0.597   0.607
  0.622   0.629   0.643   0.664   0.672   0.683   0.691   0.699
  0.709   0.720   0.730   0.743   0.747   0.758   0.770   0.785
  0.802   0.825   0.830   0.834   0.848   0.853   0.865   0.876
  0.911   0.928   0.953   0.966   0.984   0.997   1.020   1.031
  1.056   1.080   1.083   1.104   1.127   1.156   1.167   1.223
  1.261   1.305   1.313   1.336   1.353   1.379   1.420   1.452
  1.464   1.514   1.547   1.569   1.674   1.733   1.777   1.808
  1.812   1.863   1.871   1.888   1.910   1.925   1.937   1.968
  1.979   2.005   2.042   2.060   2.078   2.113   2.148   2.156
  2.209   2.237   2.285   2.297   2.345   2.367   2.407   2.433
  2.448   2.459   2.477   2.519   2.597   2.639   2.664   2.683
  2.741   2.798   2.809   2.825   2.884   2.893   2.912   2.954
  2.961   2.984   3.034   3.047   3.099   3.131   3.155   3.164
  3.241   3.275   3.315   3.322   3.362   3.380   3.411   3.417
  3.440   3.448   3.488   3.497   3.535   3.574   3.582   3.607
  3.625   3.658   3.662   3.710   3.726   3.777   3.807   3.873
  3.914   3.977   4.087   4.153   4.243   4.313   4.351   4.414
  4.526   4.533   4.767   4.772   4.892   4.944   4.960   5.060
  5.169   5.336   5.368   5.372   5.385   5.400   5.466   5.491
  5.507   5.570   5.645   5.714   5.738   5.741   5.800   6.010
  6.194   6.286   6.388   6.442   6.575   6.637   6.691   6.720
  6.744   6.756   6.773   6.828   6.949   6.973   6.986   7.032
  7.288   7.331   7.369   7.385   7.404  22.628  22.981  23.639
 43.958  44.307  44.375
 --------------------------------------------------------------
 
          Ground-State Mulliken Net Atomic Charges

     Atom                 Charge (a.u.)
  ----------------------------------------
      1 C                    -0.396707
      2 C                    -0.320525
      3 H                     0.174035
      4 H                     0.147479
      5 H                     0.282066
      6 C                     0.287770
      7 O                    -0.766159
      8 O                    -0.749600
      9 O                    -0.928332
     10 H                     0.269972
  ----------------------------------------
  Sum of atomic charges =    -2.000000

 -----------------------------------------------------------------
                    Cartesian Multipole Moments
 -----------------------------------------------------------------
    Charge (ESU x 10^10)
                -9.6064
    Dipole Moment (Debye)
         X      -4.7844      Y      -7.5187      Z       2.7952
       Tot       9.3400
    Quadrupole Moments (Debye-Ang)
        XX     -88.1402     XY      -9.7607     YY     -56.4408
        XZ       3.4071     YZ      -0.0774     ZZ     -44.0516
    Octopole Moments (Debye-Ang^2)
       XXX     -61.6617    XXY     -35.3406    XYY     -33.0319
       YYY     -71.1227    XXZ      35.3068    XYZ       3.4048
       YYZ       2.1103    XZZ     -26.2945    YZZ     -14.6581
       ZZZ      13.4433
    Hexadecapole Moments (Debye-Ang^3)
      XXXX    -988.9773   XXXY    -125.3119   XXYY    -191.2417
      XYYY    -117.0168   YYYY    -310.9879   XXXZ      64.4966
      XXYZ      12.6933   XYYZ       6.2128   YYYZ       1.8571
      XXZZ    -159.5487   XYZZ     -32.5284   YYZZ     -67.9359
      XZZZ      42.1659   YZZZ       9.0064   ZZZZ    -133.9637
 -----------------------------------------------------------------
 Calculating analytic gradient of the SCF energy
 Gradient of SCF Energy
            1           2           3           4           5           6
    1  -0.0566197  -0.0110636   0.0416490   0.0262103   0.0185705   0.0463472
    2   0.0077228  -0.0773447   0.0682723  -0.0715891   0.0503548   0.0694870
    3   0.0112659   0.0005563  -0.0307197  -0.0489606   0.0845105  -0.0096314
            7           8           9          10
    1  -0.0528858   0.0056694   0.0216189  -0.0394962
    2  -0.0028984  -0.0563180   0.0147409  -0.0024277
    3   0.0294018  -0.0222797  -0.0762224   0.0620793
 Max gradient component =       8.451E-02
 RMS gradient           =       4.525E-02
 Computing fast CPCM-ISWIG gradient
 Updating gradient with PCM contributions...
 -- total gradient after adding PCM contribution --
---------------------------------------------------
  Atom         X              Y              Z     
---------------------------------------------------
   1      -0.000671      -0.000174       0.000588
   2       0.000479      -0.000033      -0.000181
   3       0.000177       0.000240      -0.000058
   4       0.000031      -0.000001      -0.000155
   5       0.000074       0.000003       0.000124
   6       0.000093       0.000145      -0.000024
   7      -0.000034       0.000014       0.000071
   8      -0.000061      -0.000002      -0.000098
   9      -0.000118      -0.000053      -0.000209
  10       0.000031      -0.000138      -0.000058
---------------------------------------------------
 Number of fixed atoms: 0
 Gradient time:  CPU 138.65 s  wall 36.27 s
 ----------------------------------------------------------------
             Standard Nuclear Orientation (Angstroms)
    I     Atom           X                Y                Z
 ----------------------------------------------------------------
    1      C      -0.6587514450    -0.4006882102     0.6737605213
    2      C       0.5554569393    -0.4596903988     0.0139637163
    3      H      -1.1201641252    -1.3307553249     0.9944581582
    4      H      -0.8496812786     0.4469749504     1.3225224491
    5      H       0.8637449231    -1.3925209466    -0.4564456220
    6      C       1.4225173642     0.7060961501    -0.2125197057
    7      O       2.4988419847     0.5269440924    -0.8825740153
    8      O       1.0987374548     1.8440835807     0.2662541400
    9      O      -2.1503945278     0.0326997301    -0.4449853835
   10      H      -1.6603072896     0.0278563767    -1.2744342584
 ----------------------------------------------------------------
 Nuclear Repulsion Energy =   212.7361118795 hartrees
 There are       24 alpha and       24 beta electrons
 Discretize the solute cavity surface with Lebedev spheres
	Using 110 Lebedev grid points for each H atom
	Using 110 Lebedev grid points for other atoms
	Atomic van der Waals radii will be scaled by 1.20
 Remove points where switching function is < 1.0e-08
 Keep 665 surface tesserae and discard 435 interior tesserae
 Molecular Surface Area = 129.985 Angst**2

                       Distance Matrix (Angstroms)
             C (  1)   C (  2)   H (  3)   H (  4)   H (  5)   C (  6)
   C (  2)  1.383154
   H (  3)  1.086634  2.127870
   H (  4)  1.084380  2.123389  1.827871
   H (  5)  2.139882  1.089265  2.458624  3.079659
   C (  6)  2.518361  1.470424  3.474304  2.754339  2.185388
   O (  7)  3.640477  2.356687  4.480123  4.010169  2.557239  1.280446
   O (  8)  2.879901  2.380374  3.941244  2.619914  3.324624  1.276352
   O (  9)  1.914267  2.788317  2.234364  2.233285  3.334130  3.643241
   H ( 10)  2.232090  2.609077  2.699158  2.752628  3.009554  3.330387
             O (  7)   O (  8)   O (  9)
   O (  8)  2.239410
   O (  9)  4.695866  3.787325
   H ( 10)  4.207275  3.644822  0.963428
 
 Requested basis set is def2-TZVPD
 There are 101 shells and 267 basis functions
 A cutoff of  1.0D-14 yielded   4932 shell pairs
 There are     34866 function pairs (     44880 Cartesian)
 Smallest overlap matrix eigenvalue = 6.17E-06
 Guess MOs from SCF MO coefficient file
 Reading MOs from coefficient file
 Reading MOs from coefficient file
 Long-range K will be added via erf
 Coulomb attenuation parameter = 0.3 bohr**(-1)
 A restricted hybrid HF-DFT SCF calculation will be
 performed using Pulay DIIS extrapolation
 Polarizable Continuum solvation model will be applied
 Exchange:     0.1670 Hartree-Fock + 1.0000 wB97X-V + LR-HF
 Correlation:  1.0000 wB97X-V
 Using SG-2 standard quadrature grid
 Nonlocal Correlation:  VV10 with C = 0.0100 and b = 6.00
 Grid used for NLC:  SG-1 standard quadrature
 SCF converges when DIIS error is below 1.0E-08
Using Q-Chem read-in guess as SCF_GUESS READ specified.

 using 4 threads for integral computing
 -------------------------------------------------------
 OpenMP Integral computing Module                
 Release: version 1.0, May 2013, Q-Chem Inc. Pittsburgh 
 -------------------------------------------------------
 using 4 threads for integral computing
 -------------------------------------------------------
 OpenMP Integral computing Module                
 Release: version 1.0, May 2013, Q-Chem Inc. Pittsburgh 
 -------------------------------------------------------
 -------------------------------------------------------
 OpenMP BLAS3 based DFT computing Module                
 Release: version 1.0, May 2013, Q-Chem Inc. Pittsburgh 
 -------------------------------------------------------
 -------------------------------------------------------
 OpenMP BLAS3 based DFT computing Module                
 Release: version 1.0, May 2013, Q-Chem Inc. Pittsburgh 
 -------------------------------------------------------
 -------------------------------------------------------
 OpenMP BLAS3 based DFT computing Module                
 Release: version 1.0, May 2013, Q-Chem Inc. Pittsburgh 
 -------------------------------------------------------
 ---------------------------------------
  Cycle       Energy         DIIS Error
 ---------------------------------------
    1    -342.2939212046      5.16E-04
    2    -342.6310732399      5.89E-04
    3    -342.6360013977      2.63E-04
    4    -342.6368132171      1.90E-04
    5    -342.6372753447      1.45E-04
    6    -342.6375859143      1.07E-04
    7    -342.6377775213      7.41E-05
    8    -342.6378738870      5.09E-05
    9    -342.6379411254      2.41E-05
   10    -342.6379580951      8.73E-06
   11    -342.6379605756      1.49E-06
   12    -342.6379606498      1.11E-07
   13    -342.6379606502      5.53E-08
   14    -342.6379606502      1.81E-08
   15    -342.6379606502      7.75E-09 Convergence criterion met
 ---------------------------------------

************** Final PCM Free Energy Summary **************
 G_electrostatic  =      -0.34352588 hartree =    -215.56574265 kcal/mol
 G_cavitation     =       0.00000000 hartree =       0.00000000 kcal/mol
 G_dispersion     =       0.00000000 hartree =       0.00000000 kcal/mol
 G_repulsion      =       0.00000000 hartree =       0.00000000 kcal/mol
 --------------------------------------------------
 Non-electrostatic Free Energy =       0.00000000 hartree =       0.00000000 kcal/mol
 Total                         =      -0.34352588 hartree =    -215.56574265 kcal/mol
 --------------------------------------------------
 SCF Energy (H0 + V/2)                       =    -342.63796065 
 Solute Internal Energy (H0)                 =    -342.29443477 
 Total Free Energy (H0 + V/2 + non-elec)     =    -342.63796065 hartree
                                             = -215008.56543215 kcal/mol
***********************************************************

 SCF time:  CPU 595.26 s  wall 153.62 s
 SCF   energy in the final basis set = -342.63796065
 Total energy in the final basis set = -342.63796065
 
 --------------------------------------------------------------
 
                    Orbital Energies (a.u.)
 --------------------------------------------------------------
 
 Alpha MOs
 -- Occupied --
-19.119 -19.118 -19.118 -10.319 -10.269 -10.194  -1.115  -1.018
 -1.006  -0.849  -0.701  -0.583  -0.538  -0.516  -0.483  -0.476
 -0.462  -0.433  -0.400  -0.334  -0.328  -0.323  -0.309  -0.246
 -- Virtual --
  0.065   0.084   0.091   0.094   0.115   0.122   0.129   0.131
  0.147   0.153   0.163   0.168   0.181   0.192   0.202   0.217
  0.228   0.242   0.261   0.266   0.283   0.294   0.306   0.318
  0.319   0.322   0.334   0.349   0.359   0.365   0.382   0.386
  0.392   0.401   0.410   0.418   0.422   0.436   0.446   0.455
  0.458   0.467   0.482   0.498   0.505   0.510   0.512   0.518
  0.532   0.544   0.561   0.569   0.574   0.591   0.597   0.607
  0.622   0.629   0.643   0.664   0.672   0.683   0.691   0.699
  0.709   0.720   0.730   0.743   0.747   0.758   0.770   0.785
  0.802   0.825   0.830   0.834   0.848   0.853   0.865   0.876
  0.912   0.928   0.953   0.966   0.984   0.997   1.020   1.031
  1.056   1.080   1.083   1.104   1.127   1.156   1.167   1.223
  1.261   1.305   1.313   1.336   1.353   1.379   1.420   1.452
  1.464   1.514   1.547   1.569   1.674   1.733   1.777   1.808
  1.812   1.863   1.871   1.888   1.910   1.925   1.937   1.968
  1.979   2.005   2.042   2.060   2.078   2.113   2.148   2.157
  2.209   2.237   2.285   2.297   2.345   2.367   2.407   2.433
  2.448   2.459   2.477   2.519   2.597   2.639   2.664   2.683
  2.741   2.798   2.808   2.825   2.884   2.893   2.913   2.954
  2.961   2.984   3.034   3.047   3.099   3.131   3.155   3.164
  3.241   3.275   3.315   3.322   3.362   3.379   3.411   3.417
  3.440   3.449   3.488   3.497   3.535   3.575   3.582   3.607
  3.625   3.657   3.661   3.710   3.726   3.777   3.807   3.873
  3.914   3.977   4.087   4.153   4.243   4.313   4.351   4.415
  4.527   4.534   4.767   4.772   4.892   4.944   4.960   5.060
  5.169   5.336   5.368   5.372   5.385   5.400   5.466   5.491
  5.507   5.570   5.646   5.714   5.738   5.741   5.800   6.010
  6.194   6.286   6.388   6.442   6.575   6.637   6.691   6.720
  6.744   6.756   6.773   6.829   6.949   6.973   6.986   7.032
  7.288   7.331   7.369   7.385   7.404  22.628  22.982  23.639
 43.958  44.307  44.375
 --------------------------------------------------------------
 
          Ground-State Mulliken Net Atomic Charges

     Atom                 Charge (a.u.)
  ----------------------------------------
      1 C                    -0.396905
      2 C                    -0.319433
      3 H                     0.172921
      4 H                     0.148162
      5 H                     0.282065
      6 C                     0.287853
      7 O                    -0.766107
      8 O                    -0.749529
      9 O                    -0.928797
     10 H                     0.269771
  ----------------------------------------
  Sum of atomic charges =    -2.000000

 -----------------------------------------------------------------
                    Cartesian Multipole Moments
 -----------------------------------------------------------------
    Charge (ESU x 10^10)
                -9.6064
    Dipole Moment (Debye)
         X      -4.7706      Y      -7.5178      Z       2.7968
       Tot       9.3326
    Quadrupole Moments (Debye-Ang)
        XX     -88.1547     XY      -9.7647     YY     -56.4399
        XZ       3.4013     YZ      -0.0731     ZZ     -44.0492
    Octopole Moments (Debye-Ang^2)
       XXX     -61.5877    XXY     -35.3447    XYY     -33.0148
       YYY     -71.1303    XXZ      35.3235    XYZ       3.3979
       YYZ       2.1079    XZZ     -26.2825    YZZ     -14.6604
       ZZZ      13.4504
    Hexadecapole Moments (Debye-Ang^3)
      XXXX    -989.0949   XXXY    -125.2918   XXYY    -191.2425
      XYYY    -117.0105   YYYY    -310.9540   XXXZ      64.4319
      XXYZ      12.6993   XYYZ       6.2098   YYYZ       1.8618
      XXZZ    -159.5582   XYZZ     -32.5290   YYZZ     -67.9338
      XZZZ      42.1352   YZZZ       9.0109   ZZZZ    -133.9521
 -----------------------------------------------------------------
 Calculating analytic gradient of the SCF energy
 Gradient of SCF Energy
            1           2           3           4           5           6
    1  -0.0558931  -0.0115666   0.0413208   0.0263883   0.0184196   0.0463763
    2   0.0088876  -0.0774736   0.0675733  -0.0718704   0.0503902   0.0693822
    3   0.0108381   0.0009470  -0.0303726  -0.0492057   0.0842566  -0.0094736
            7           8           9          10
    1  -0.0528638   0.0056596   0.0216400  -0.0394811
    2  -0.0029062  -0.0562837   0.0147199  -0.0024194
    3   0.0293933  -0.0222753  -0.0761775   0.0620696
 Max gradient component =       8.426E-02
 RMS gradient           =       4.518E-02
 Computing fast CPCM-ISWIG gradient
 Updating gradient with PCM contributions...
 -- total gradient after adding PCM contribution --
---------------------------------------------------
  Atom         X              Y              Z     
---------------------------------------------------
   1       0.000192       0.001195       0.000181
   2      -0.000013      -0.000198       0.000035
   3      -0.000194      -0.000468       0.000167
   4       0.000003      -0.000376      -0.000317
   5       0.000107      -0.000000       0.000099
   6      -0.000029       0.000072       0.000024
   7      -0.000015       0.000013       0.000063
   8      -0.000073       0.000038      -0.000083
   9      -0.000020      -0.000133      -0.000113
  10       0.000042      -0.000142      -0.000056
---------------------------------------------------
 Number of fixed atoms: 0
 Gradient time:  CPU 138.85 s  wall 36.39 s
 ----------------------------------------------------------------
             Standard Nuclear Orientation (Angstroms)
    I     Atom           X                Y                Z
 ----------------------------------------------------------------
    1      C      -0.6587514450    -0.4026882102     0.6737605213
    2      C       0.5554569393    -0.4596903988     0.0139637163
    3      H      -1.1201641252    -1.3307553249     0.9944581582
    4      H      -0.8496812786     0.4469749504     1.3225224491
    5      H       0.8637449231    -1.3925209466    -0.4564456220
    6      C       1.4225173642     0.7060961501    -0.2125197057
    7      O       2.4988419847     0.5269440924    -0.8825740153
    8      O       1.0987374548     1.8440835807     0.2662541400
    9      O      -2.1503945278     0.0326997301    -0.4449853835
   10      H      -1.6603072896     0.0278563767    -1.2744342584
 ----------------------------------------------------------------
 Nuclear Repulsion Energy =   212.7261999705 hartrees
 There are       24 alpha and       24 beta electrons
 Discretize the solute cavity surface with Lebedev spheres
	Using 110 Lebedev grid points for each H atom
	Using 110 Lebedev grid points for other atoms
	Atomic van der Waals radii will be scaled by 1.20
 Remove points where switching function is < 1.0e-08
 Keep 665 surface tesserae and discard 435 interior tesserae
 Molecular Surface Area = 130.001 Angst**2

                       Distance Matrix (Angstroms)
             C (  1)   C (  2)   H (  3)   H (  4)   H (  5)   C (  6)
   C (  2)  1.383070
   H (  3)  1.084923  2.127870
   H (  4)  1.085944  2.123389  1.827871
   H (  5)  2.138955  1.089265  2.458624  3.079659
   C (  6)  2.519241  1.470424  3.474304  2.754339  2.185388
   O (  7)  3.640987  2.356687  4.480123  4.010169  2.557239  1.280446
   O (  8)  2.881460  2.380374  3.941244  2.619914  3.324624  1.276352
   O (  9)  1.914720  2.788317  2.234364  2.233285  3.334130  3.643241
   H ( 10)  2.232475  2.609077  2.699158  2.752628  3.009554  3.330387
             O (  7)   O (  8)   O (  9)
   O (  8)  2.239410
   O (  9)  4.695866  3.787325
   H ( 10)  4.207275  3.644822  0.963428
 
 Requested basis set is def2-TZVPD
 There are 101 shells and 267 basis functions
 A cutoff of  1.0D-14 yielded   4932 shell pairs
 There are     34866 function pairs (     44880 Cartesian)
 Smallest overlap matrix eigenvalue = 6.17E-06
 Guess MOs from SCF MO coefficient file
 Reading MOs from coefficient file
 Reading MOs from coefficient file
 Long-range K will be added via erf
 Coulomb attenuation parameter = 0.3 bohr**(-1)
 A restricted hybrid HF-DFT SCF calculation will be
 performed using Pulay DIIS extrapolation
 Polarizable Continuum solvation model will be applied
 Exchange:     0.1670 Hartree-Fock + 1.0000 wB97X-V + LR-HF
 Correlation:  1.0000 wB97X-V
 Using SG-2 standard quadrature grid
 Nonlocal Correlation:  VV10 with C = 0.0100 and b = 6.00
 Grid used for NLC:  SG-1 standard quadrature
 SCF converges when DIIS error is below 1.0E-08
Using Q-Chem read-in guess as SCF_GUESS READ specified.

 using 4 threads for integral computing
 -------------------------------------------------------
 OpenMP Integral computing Module                
 Release: version 1.0, May 2013, Q-Chem Inc. Pittsburgh 
 -------------------------------------------------------
 using 4 threads for integral computing
 -------------------------------------------------------
 OpenMP Integral computing Module                
 Release: version 1.0, May 2013, Q-Chem Inc. Pittsburgh 
 -------------------------------------------------------
 -------------------------------------------------------
 OpenMP BLAS3 based DFT computing Module                
 Release: version 1.0, May 2013, Q-Chem Inc. Pittsburgh 
 -------------------------------------------------------
 -------------------------------------------------------
 OpenMP BLAS3 based DFT computing Module                
 Release: version 1.0, May 2013, Q-Chem Inc. Pittsburgh 
 -------------------------------------------------------
 -------------------------------------------------------
 OpenMP BLAS3 based DFT computing Module                
 Release: version 1.0, May 2013, Q-Chem Inc. Pittsburgh 
 -------------------------------------------------------
 ---------------------------------------
  Cycle       Energy         DIIS Error
 ---------------------------------------
    1    -342.2945106988      5.13E-04
    2    -342.6311211709      5.86E-04
    3    -342.6360103908      2.63E-04
    4    -342.6368166665      1.90E-04
    5    -342.6372743264      1.45E-04
    6    -342.6375965864      1.05E-04
    7    -342.6378007709      6.91E-05
    8    -342.6378975589      4.32E-05
    9    -342.6379511443      1.68E-05
   10    -342.6379599363      4.89E-06
   11    -342.6379607355      7.36E-07
   12    -342.6379607550      8.33E-08
   13    -342.6379607552      5.12E-08
   14    -342.6379607553      2.15E-08
   15    -342.6379607553      1.01E-08
   16    -342.6379607553      1.66E-09 Convergence criterion met
 ---------------------------------------

************** Final PCM Free Energy Summary **************
 G_electrostatic  =      -0.34353538 hartree =    -215.57170375 kcal/mol
 G_cavitation     =       0.00000000 hartree =       0.00000000 kcal/mol
 G_dispersion     =       0.00000000 hartree =       0.00000000 kcal/mol
 G_repulsion      =       0.00000000 hartree =       0.00000000 kcal/mol
 --------------------------------------------------
 Non-electrostatic Free Energy =       0.00000000 hartree =       0.00000000 kcal/mol
 Total                         =      -0.34353538 hartree =    -215.57170375 kcal/mol
 --------------------------------------------------
 SCF Energy (H0 + V/2)                       =    -342.63796076 
 Solute Internal Energy (H0)                 =    -342.29442538 
 Total Free Energy (H0 + V/2 + non-elec)     =    -342.63796076 hartree
                                             = -215008.56549806 kcal/mol
***********************************************************

 SCF time:  CPU 635.18 s  wall 163.78 s
 SCF   energy in the final basis set = -342.63796076
 Total energy in the final basis set = -342.63796076
 
 --------------------------------------------------------------
 
                    Orbital Energies (a.u.)
 --------------------------------------------------------------
 
 Alpha MOs
 -- Occupied --
-19.119 -19.118 -19.118 -10.319 -10.269 -10.194  -1.115  -1.018
 -1.006  -0.849  -0.701  -0.583  -0.539  -0.516  -0.483  -0.477
 -0.462  -0.433  -0.400  -0.334  -0.328  -0.323  -0.309  -0.246
 -- Virtual --
  0.065   0.084   0.091   0.094   0.115   0.122   0.129   0.131
  0.147   0.153   0.163   0.168   0.181   0.192   0.202   0.217
  0.228   0.242   0.261   0.266   0.283   0.294   0.306   0.318
  0.319   0.322   0.334   0.349   0.359   0.365   0.382   0.386
  0.392   0.401   0.410   0.418   0.422   0.436   0.446   0.455
  0.458   0.467   0.482   0.498   0.505   0.510   0.512   0.518
  0.532   0.544   0.561   0.569   0.574   0.591   0.597   0.607
  0.622   0.629   0.643   0.664   0.672   0.683   0.692   0.699
  0.709   0.720   0.730   0.743   0.746   0.757   0.770   0.785
  0.802   0.825   0.830   0.834   0.848   0.853   0.865   0.876
  0.911   0.928   0.953   0.966   0.984   0.997   1.020   1.031
  1.056   1.080   1.083   1.104   1.127   1.156   1.167   1.223
  1.261   1.305   1.313   1.335   1.353   1.379   1.420   1.452
  1.464   1.515   1.547   1.569   1.675   1.733   1.777   1.808
  1.812   1.863   1.871   1.888   1.910   1.925   1.937   1.968
  1.979   2.005   2.042   2.060   2.078   2.113   2.148   2.156
  2.209   2.237   2.285   2.297   2.345   2.367   2.407   2.433
  2.448   2.459   2.477   2.519   2.597   2.639   2.664   2.683
  2.741   2.798   2.809   2.825   2.884   2.893   2.912   2.954
  2.961   2.984   3.034   3.047   3.099   3.131   3.155   3.164
  3.241   3.275   3.315   3.321   3.362   3.380   3.411   3.417
  3.440   3.448   3.488   3.497   3.535   3.575   3.582   3.607
  3.625   3.657   3.661   3.710   3.726   3.777   3.807   3.873
  3.914   3.977   4.087   4.153   4.243   4.313   4.352   4.414
  4.527   4.535   4.767   4.772   4.892   4.944   4.960   5.060
  5.170   5.336   5.368   5.372   5.385   5.400   5.466   5.491
  5.507   5.570   5.646   5.714   5.737   5.741   5.800   6.010
  6.194   6.286   6.388   6.442   6.575   6.636   6.691   6.720
  6.744   6.756   6.773   6.829   6.949   6.973   6.986   7.032
  7.287   7.331   7.369   7.385   7.404  22.628  22.983  23.639
 43.958  44.307  44.375
 --------------------------------------------------------------
 
          Ground-State Mulliken Net Atomic Charges

     Atom                 Charge (a.u.)
  ----------------------------------------
      1 C                    -0.396545
      2 C                    -0.319795
      3 H                     0.174494
      4 H                     0.146651
      5 H                     0.281975
      6 C                     0.288124
      7 O                    -0.765994
      8 O                    -0.749418
      9 O                    -0.929174
     10 H                     0.269682
  ----------------------------------------
  Sum of atomic charges =    -2.000000

 -----------------------------------------------------------------
                    Cartesian Multipole Moments
 -----------------------------------------------------------------
    Charge (ESU x 10^10)
                -9.6064
    Dipole Moment (Debye)
         X      -4.7638      Y      -7.5202      Z       2.7975
       Tot       9.3314
    Quadrupole Moments (Debye-Ang)
        XX     -88.1572     XY      -9.7545     YY     -56.4332
        XZ       3.3962     YZ      -0.0806     ZZ     -44.0509
    Octopole Moments (Debye-Ang^2)
       XXX     -61.5295    XXY     -35.3340    XYY     -33.0134
       YYY     -71.1012    XXZ      35.3316    XYZ       3.4041
       YYZ       2.1146    XZZ     -26.2716    YZZ     -14.6580
       ZZZ      13.4461
    Hexadecapole Moments (Debye-Ang^3)
      XXXX    -989.1271   XXXY    -125.2730   XXYY    -191.2331
      XYYY    -116.9924   YYYY    -310.9570   XXXZ      64.3787
      XXYZ      12.6851   XYYZ       6.2002   YYYZ       1.8617
      XXZZ    -159.5626   XYZZ     -32.5190   YYZZ     -67.9306
      XZZZ      42.1210   YZZZ       9.0053   ZZZZ    -133.9712
 -----------------------------------------------------------------
 Calculating analytic gradient of the SCF energy
 Gradient of SCF Energy
            1           2           3           4           5           6
    1  -0.0559845  -0.0119495   0.0418891   0.0261894   0.0183945   0.0464778
    2   0.0069361  -0.0770777   0.0684527  -0.0711505   0.0503567   0.0693546
    3   0.0105121   0.0009291  -0.0307532  -0.0484218   0.0842568  -0.0095318
            7           8           9          10
    1  -0.0528573   0.0056534   0.0216691  -0.0394820
    2  -0.0028949  -0.0562897   0.0147515  -0.0024389
    3   0.0293843  -0.0222870  -0.0761578   0.0620693
 Max gradient component =       8.426E-02
 RMS gradient           =       4.515E-02
 Computing fast CPCM-ISWIG gradient
 Updating gradient with PCM contributions...
 -- total gradient after adding PCM contribution --
---------------------------------------------------
  Atom         X              Y              Z     
---------------------------------------------------
   1      -0.000211      -0.001140      -0.000168
   2       0.000039       0.000234       0.000072
   3       0.000208       0.000532      -0.000069
   4      -0.000127       0.000497       0.000199
   5       0.000016      -0.000006       0.000152
   6      -0.000002      -0.000006      -0.000022
   7       0.000039       0.000031       0.000042
   8      -0.000061       0.000067      -0.000080
   9       0.000060      -0.000072      -0.000068
  10       0.000040      -0.000138      -0.000060
---------------------------------------------------
 Number of fixed atoms: 0
 Gradient time:  CPU 138.76 s  wall 36.38 s
 ----------------------------------------------------------------
             Standard Nuclear Orientation (Angstroms)
    I     Atom           X                Y                Z
 ----------------------------------------------------------------
    1      C      -0.6587514450    -0.4016882102     0.6747605213
    2      C       0.5554569393    -0.4596903988     0.0139637163
    3      H      -1.1201641252    -1.3307553249     0.9944581582
    4      H      -0.8496812786     0.4469749504     1.3225224491
    5      H       0.8637449231    -1.3925209466    -0.4564456220
    6      C       1.4225173642     0.7060961501    -0.2125197057
    7      O       2.4988419847     0.5269440924    -0.8825740153
    8      O       1.0987374548     1.8440835807     0.2662541400
    9      O      -2.1503945278     0.0326997301    -0.4449853835
   10      H      -1.6603072896     0.0278563767    -1.2744342584
 ----------------------------------------------------------------
 Nuclear Repulsion Energy =   212.7215319905 hartrees
 There are       24 alpha and       24 beta electrons
 Discretize the solute cavity surface with Lebedev spheres
	Using 110 Lebedev grid points for each H atom
	Using 110 Lebedev grid points for other atoms
	Atomic van der Waals radii will be scaled by 1.20
 Remove points where switching function is < 1.0e-08
 Keep 665 surface tesserae and discard 435 interior tesserae
 Molecular Surface Area = 129.993 Angst**2

                       Distance Matrix (Angstroms)
             C (  1)   C (  2)   H (  3)   H (  4)   H (  5)   C (  6)
   C (  2)  1.383589
   H (  3)  1.085483  2.127870
   H (  4)  1.084564  2.123389  1.827871
   H (  5)  2.139947  1.089265  2.458624  3.079659
   C (  6)  2.519153  1.470424  3.474304  2.754339  2.185388
   O (  7)  3.641160  2.356687  4.480123  4.010169  2.557239  1.280446
   O (  8)  2.880822  2.380374  3.941244  2.619914  3.324624  1.276352
   O (  9)  1.915078  2.788317  2.234364  2.233285  3.334130  3.643241
   H ( 10)  2.233155  2.609077  2.699158  2.752628  3.009554  3.330387
             O (  7)   O (  8)   O (  9)
   O (  8)  2.239410
   O (  9)  4.695866  3.787325
   H ( 10)  4.207275  3.644822  0.963428
 
 Requested basis set is def2-TZVPD
 There are 101 shells and 267 basis functions
 A cutoff of  1.0D-14 yielded   4932 shell pairs
 There are     34866 function pairs (     44880 Cartesian)
 Smallest overlap matrix eigenvalue = 6.18E-06
 Guess MOs from SCF MO coefficient file
 Reading MOs from coefficient file
 Reading MOs from coefficient file
 Long-range K will be added via erf
 Coulomb attenuation parameter = 0.3 bohr**(-1)
 A restricted hybrid HF-DFT SCF calculation will be
 performed using Pulay DIIS extrapolation
 Polarizable Continuum solvation model will be applied
 Exchange:     0.1670 Hartree-Fock + 1.0000 wB97X-V + LR-HF
 Correlation:  1.0000 wB97X-V
 Using SG-2 standard quadrature grid
 Nonlocal Correlation:  VV10 with C = 0.0100 and b = 6.00
 Grid used for NLC:  SG-1 standard quadrature
 SCF converges when DIIS error is below 1.0E-08
Using Q-Chem read-in guess as SCF_GUESS READ specified.

 using 4 threads for integral computing
 -------------------------------------------------------
 OpenMP Integral computing Module                
 Release: version 1.0, May 2013, Q-Chem Inc. Pittsburgh 
 -------------------------------------------------------
 using 4 threads for integral computing
 -------------------------------------------------------
 OpenMP Integral computing Module                
 Release: version 1.0, May 2013, Q-Chem Inc. Pittsburgh 
 -------------------------------------------------------
 -------------------------------------------------------
 OpenMP BLAS3 based DFT computing Module                
 Release: version 1.0, May 2013, Q-Chem Inc. Pittsburgh 
 -------------------------------------------------------
 -------------------------------------------------------
 OpenMP BLAS3 based DFT computing Module                
 Release: version 1.0, May 2013, Q-Chem Inc. Pittsburgh 
 -------------------------------------------------------
 -------------------------------------------------------
 OpenMP BLAS3 based DFT computing Module                
 Release: version 1.0, May 2013, Q-Chem Inc. Pittsburgh 
 -------------------------------------------------------
 ---------------------------------------
  Cycle       Energy         DIIS Error
 ---------------------------------------
    1    -342.2947295947      5.15E-04
    2    -342.6310829674      5.89E-04
    3    -342.6359993793      2.64E-04
    4    -342.6368095404      1.90E-04
    5    -342.6372676496      1.46E-04
    6    -342.6375775429      1.08E-04
    7    -342.6377664471      7.64E-05
    8    -342.6378648986      5.36E-05
    9    -342.6379376939      2.64E-05
   10    -342.6379579893      9.61E-06
   11    -342.6379609937      1.59E-06
   12    -342.6379610773      9.61E-08
   13    -342.6379610776      4.82E-08
   14    -342.6379610776      2.52E-08
   15    -342.6379610776      1.13E-08
   16    -342.6379610776      1.94E-09 Convergence criterion met
 ---------------------------------------

************** Final PCM Free Energy Summary **************
 G_electrostatic  =      -0.34353600 hartree =    -215.57209223 kcal/mol
 G_cavitation     =       0.00000000 hartree =       0.00000000 kcal/mol
 G_dispersion     =       0.00000000 hartree =       0.00000000 kcal/mol
 G_repulsion      =       0.00000000 hartree =       0.00000000 kcal/mol
 --------------------------------------------------
 Non-electrostatic Free Energy =       0.00000000 hartree =       0.00000000 kcal/mol
 Total                         =      -0.34353600 hartree =    -215.57209223 kcal/mol
 --------------------------------------------------
 SCF Energy (H0 + V/2)                       =    -342.63796108 
 Solute Internal Energy (H0)                 =    -342.29442508 
 Total Free Energy (H0 + V/2 + non-elec)     =    -342.63796108 hartree
                                             = -215008.56570034 kcal/mol
***********************************************************

 SCF time:  CPU 635.42 s  wall 164.07 s
 SCF   energy in the final basis set = -342.63796108
 Total energy in the final basis set = -342.63796108
 
 --------------------------------------------------------------
 
                    Orbital Energies (a.u.)
 --------------------------------------------------------------
 
 Alpha MOs
 -- Occupied --
-19.119 -19.118 -19.118 -10.319 -10.269 -10.195  -1.115  -1.018
 -1.006  -0.849  -0.702  -0.583  -0.539  -0.516  -0.483  -0.477
 -0.462  -0.433  -0.400  -0.334  -0.328  -0.323  -0.309  -0.246
 -- Virtual --
  0.065   0.084   0.091   0.094   0.115   0.122   0.129   0.131
  0.147   0.153   0.163   0.168   0.181   0.192   0.202   0.217
  0.228   0.242   0.261   0.266   0.283   0.294   0.306   0.318
  0.319   0.322   0.334   0.349   0.359   0.366   0.382   0.386
  0.392   0.401   0.410   0.418   0.422   0.436   0.446   0.455
  0.458   0.467   0.482   0.498   0.505   0.510   0.512   0.518
  0.532   0.544   0.561   0.569   0.574   0.591   0.597   0.607
  0.622   0.629   0.643   0.664   0.672   0.683   0.692   0.698
  0.709   0.720   0.730   0.743   0.747   0.757   0.770   0.785
  0.802   0.825   0.830   0.834   0.848   0.853   0.865   0.876
  0.911   0.928   0.952   0.966   0.984   0.997   1.020   1.031
  1.056   1.080   1.083   1.104   1.127   1.156   1.167   1.223
  1.261   1.305   1.313   1.335   1.353   1.379   1.420   1.452
  1.464   1.514   1.546   1.569   1.674   1.733   1.776   1.808
  1.812   1.863   1.871   1.888   1.910   1.925   1.937   1.968
  1.979   2.005   2.042   2.060   2.077   2.113   2.148   2.156
  2.209   2.237   2.285   2.297   2.345   2.367   2.407   2.433
  2.448   2.459   2.477   2.519   2.597   2.639   2.664   2.682
  2.741   2.798   2.809   2.825   2.884   2.893   2.912   2.954
  2.961   2.984   3.034   3.048   3.099   3.131   3.155   3.164
  3.241   3.275   3.315   3.321   3.362   3.379   3.411   3.417
  3.440   3.448   3.488   3.497   3.535   3.574   3.582   3.607
  3.625   3.657   3.661   3.710   3.726   3.777   3.807   3.873
  3.914   3.977   4.087   4.153   4.243   4.313   4.351   4.414
  4.527   4.534   4.767   4.772   4.892   4.944   4.960   5.060
  5.170   5.336   5.368   5.372   5.385   5.400   5.466   5.491
  5.507   5.570   5.646   5.714   5.737   5.741   5.800   6.010
  6.194   6.286   6.388   6.442   6.575   6.636   6.691   6.720
  6.744   6.756   6.773   6.828   6.949   6.973   6.986   7.032
  7.287   7.331   7.369   7.385   7.404  22.628  22.982  23.639
 43.958  44.307  44.375
 --------------------------------------------------------------
 
          Ground-State Mulliken Net Atomic Charges

     Atom                 Charge (a.u.)
  ----------------------------------------
      1 C                    -0.396608
      2 C                    -0.319694
      3 H                     0.173729
      4 H                     0.147828
      5 H                     0.282084
      6 C                     0.288004
      7 O                    -0.766020
      8 O                    -0.749477
      9 O                    -0.929477
     10 H                     0.269631
  ----------------------------------------
  Sum of atomic charges =    -2.000000

 -----------------------------------------------------------------
                    Cartesian Multipole Moments
 -----------------------------------------------------------------
    Charge (ESU x 10^10)
                -9.6064
    Dipole Moment (Debye)
         X      -4.7634      Y      -7.5197      Z       2.7997
       Tot       9.3313
    Quadrupole Moments (Debye-Ang)
        XX     -88.1647     XY      -9.7584     YY     -56.4341
        XZ       3.3927     YZ      -0.0758     ZZ     -44.0492
    Octopole Moments (Debye-Ang^2)
       XXX     -61.5219    XXY     -35.3408    XYY     -33.0126
       YYY     -71.1187    XXZ      35.3322    XYZ       3.4014
       YYZ       2.1089    XZZ     -26.2746    YZZ     -14.6580
       ZZZ      13.4378
    Hexadecapole Moments (Debye-Ang^3)
      XXXX    -989.2100   XXXY    -125.2716   XXYY    -191.2402
      XYYY    -116.9940   YYYY    -310.9425   XXXZ      64.3787
      XXYZ      12.6963   XYYZ       6.2010   YYYZ       1.8699
      XXZZ    -159.5766   XYZZ     -32.5233   YYZZ     -67.9372
      XZZZ      42.1221   YZZZ       9.0202   ZZZZ    -134.0022
 -----------------------------------------------------------------
 Calculating analytic gradient of the SCF energy
 Gradient of SCF Energy
            1           2           3           4           5           6
    1  -0.0566559  -0.0113566   0.0417378   0.0264216   0.0184313   0.0464411
    2   0.0081836  -0.0773338   0.0681727  -0.0718394   0.0503607   0.0693323
    3   0.0108732   0.0007745  -0.0305309  -0.0489624   0.0842040  -0.0093586
            7           8           9          10
    1  -0.0528538   0.0056514   0.0216743  -0.0394912
    2  -0.0029007  -0.0562848   0.0147346  -0.0024250
    3   0.0293891  -0.0222842  -0.0761727   0.0620679
 Max gradient component =       8.420E-02
 RMS gradient           =       4.523E-02
 Computing fast CPCM-ISWIG gradient
 Updating gradient with PCM contributions...
 -- total gradient after adding PCM contribution --
---------------------------------------------------
  Atom         X              Y              Z     
---------------------------------------------------
   1      -0.000592       0.000203       0.000766
   2       0.000353      -0.000013      -0.000255
   3       0.000088       0.000153      -0.000074
[...]
    Atom      X          Y          Z
     1    7.322740468103803e-02  -2.133471795415246e-02   4.281531062036741e-02
     2   -6.748387141189544e-02  -7.326240464561366e-03   7.033658962895175e-03
     3   -5.271694540155253e-03   3.660301523356852e-03  -1.014168630866170e-02
     4   -6.718407594448968e-03   2.819607325094516e-03  -1.153422205372665e-02
     5   -2.845315513613634e-04   9.557040694152254e-04  -2.961687391835154e-05
     6    2.366705864872662e-02   3.526532412306635e-02  -7.097001773432757e-03
     7   -1.478101919166819e-02  -4.753667497633049e-03   8.763282330032577e-03
     8   -1.136296354485213e-04  -1.565794302663014e-02  -3.823408928968503e-03
     9    1.534413893056584e-01   4.118195230305531e-04  -2.500506242932600e-01
    10   -1.556858153157784e-01   5.963133120241648e-03   2.240634415971842e-01

Order 1, Length 30
    Atom      X          Y          Z
     1   -2.619213257146703e-02  -1.613682126780418e-02  -9.340044504474945e-03
     2    1.678925749609790e-02   7.361194928621034e-03  -4.269077633690955e-03
     3    1.003788217640458e-02  -9.029365299703827e-04   1.165133704193283e-02
     4   -2.741893581867301e-03   3.258642806676442e-03  -2.487221313195741e-03
     5    3.325227400724738e-04  -3.936785512564451e-04   5.482839928520795e-04
     6   -6.913961037975987e-03  -9.485355608533407e-03   4.670479585877157e-04
     7    3.931803142849629e-03   1.271669480175248e-03  -1.756080971522709e-03
     8   -2.181751487379139e-04   4.823217770679815e-03   1.073407479754449e-03
     9    4.118195230305531e-04   1.096557257145185e-02   5.681585669992649e-03
    10    4.549188366392152e-03  -7.591801032782919e-04  -1.565298563304533e-03

Order 1, Length 30
    Atom      X          Y          Z
     1    6.263526325069577e-02  -1.192881266922089e-02  -1.061074504808381e-02
     2   -3.077291821925249e-02  -7.937306535534417e-03   2.162920796384245e-02
     3   -1.096178051818570e-02   4.348809093675347e-03  -1.250099937017140e-02
     4   -1.324267772861099e-02   5.561073875318669e-03  -1.517270541337972e-02
     5   -3.134121822877932e-04   8.587117838439503e-04   2.634750127771770e-04
     6    1.386175582385890e-02   1.921211980594449e-02  -2.293891744264734e-03
     7   -8.841352265852153e-03  -2.612793910804980e-03   4.110728275611158e-03
     8   -2.362867575299085e-04  -8.975146322849098e-03  -2.282835208026333e-03
     9   -2.500506242932600e-01   5.681585669992649e-03   4.017560342237214e-01
    10    2.380271372641781e-01  -4.238824637756374e-03  -3.849307472012798e-01


    10 Order 1, Length 30
    Atom      X          Y          Z
     1    5.186604708958334e-03   5.316232198038597e-04  -1.447957157967265e-02
     2    1.824534421689995e-03  -3.596873450060171e-04   4.700930235024608e-03
     3   -1.013365941361324e-03   4.979812395152412e-04  -1.191303271233981e-03
     4   -1.652974169995877e-03   6.139941521826905e-04  -1.747058319386005e-03
     5   -1.477232712183711e-04   1.862953517029370e-04  -3.558165173256622e-04
     6   -1.284666305386325e-03  -1.702294069643302e-03   4.108890054699696e-04
     7    6.104713016792513e-04   2.433225882646565e-04  -5.112552461773068e-04
     8    3.689041260567986e-05   6.619957250533295e-04   6.340452689957484e-05
     9   -1.556858153157784e-01   4.549188366392152e-03   2.380271372641781e-01
    10    1.521699191666291e-01  -5.237132836450472e-03  -2.249319814027174e-01

Order 1, Length 30
    Atom      X          Y          Z
     1   -8.881598460955849e-04  -1.190797132336727e-03   3.985420250613913e-03
     2   -8.003699176169022e-04   2.674703795766387e-04  -1.132002449681219e-03
     3    1.034941923489938e-03  -1.511632558762868e-04   7.370545956143747e-04
     4   -3.637626854938798e-04   1.881096500040527e-04   2.168022837196687e-05
     5    1.342737864468693e-04  -1.657338881785721e-04   2.512414960062967e-04
     6    1.236653175036245e-04   7.919270046731863e-04  -4.903542015110792e-04
     7   -1.535991236675205e-04  -9.234695686191778e-05   1.578260354716616e-04
     8    1.857253488449440e-04  -4.143853174621939e-04   8.635769577455441e-05
     9    5.963133120241648e-03  -7.591801032782919e-04  -4.238824637756374e-03
    10   -5.237132836450472e-03   1.527963620347196e-03   6.229671254126386e-04

Order 1, Length 30
    Atom      X          Y          Z
     1    4.317054353664512e-04   1.031166754900761e-03  -1.248863161407624e-02
     2    3.245791064350215e-03   3.640965683049938e-05   3.933251368957190e-03
     3   -9.659275467604736e-04  -2.462742234801619e-04  -6.532570385404848e-04
     4   -1.262375448601298e-03   1.121448757400985e-03  -7.229378700810707e-04
     5   -8.638591911058741e-05  -1.091396463899145e-04   1.741113847478456e-05
     6   -1.263376851413718e-03  -1.980480148720203e-03   8.846133385204524e-04
     7    7.195967942734748e-04   2.792024765906202e-04  -7.859651216601065e-04
     8   -3.311384005916149e-05   8.352450647133416e-04   9.345308029401933e-05
     9    2.240634415971842e-01  -1.565298563304533e-03  -3.849307472012798e-01
    10   -2.249319814027174e-01   6.229671254126386e-04   3.946763301199279e-01




 # Finishing finite difference calculation for IDERIV #
 ######################################################
 ######################################################
 Requested basis set is def2-TZVPD
 There are 101 shells and 267 basis functions
 **********************************************************************
 **                                                                  **
 **                       VIBRATIONAL ANALYSIS                       **
 **                       --------------------                       **
 **                                                                  **
 **        VIBRATIONAL FREQUENCIES (CM**-1) AND NORMAL MODES         **
 **     FORCE CONSTANTS (mDYN/ANGSTROM) AND REDUCED MASSES (AMU)     **
 **                  INFRARED INTENSITIES (KM/MOL)                   **
 **                                                                  **
 **********************************************************************
 

 Mode:                 1                      2                      3
 Frequency:      -433.15                  91.96                 109.08
 Force Cnst:      1.4122                 0.0268                 0.0099
 Red. Mass:      12.7756                 5.3691                 1.4096
 IR Active:          YES                    YES                    YES
 IR Intens:     1630.398                  6.361                 66.345
 Raman Active:       YES                    YES                    YES
               X      Y      Z        X      Y      Z        X      Y      Z
 C         -0.539  0.178 -0.375    0.047 -0.089 -0.085    0.013 -0.030  0.045
 C         -0.093  0.066 -0.089   -0.015 -0.008 -0.212    0.027 -0.045  0.075
 H         -0.060  0.068  0.089    0.092 -0.133 -0.147   -0.030 -0.020  0.011
 H         -0.129 -0.039  0.072    0.129 -0.173  0.050    0.015 -0.032  0.047
 H         -0.124  0.018 -0.025    0.006  0.018 -0.248    0.018 -0.038  0.055
 C         -0.088 -0.072 -0.008    0.023 -0.005 -0.046   -0.026 -0.018  0.005
 O          0.007 -0.001  0.011    0.217 -0.018  0.268   -0.049  0.008 -0.037
 O         -0.003  0.011  0.010   -0.141  0.018 -0.208   -0.063 -0.015 -0.027
 O          0.546 -0.142  0.321   -0.122  0.051  0.208    0.080  0.024 -0.043
 H          0.146 -0.012  0.074   -0.165  0.688  0.178    0.334  0.915  0.102
 TransDip  -1.271  0.009 -0.240    0.018  0.055 -0.056    0.085  0.234  0.079

 Mode:                 4                      5                      6
 Frequency:       128.89                 289.55                 359.61
 Force Cnst:      0.0354                 0.1443                 0.2305
 Red. Mass:       3.6200                 2.9220                 3.0251
 IR Active:          YES                    YES                    YES
 IR Intens:       75.364                 10.316                108.474
 Raman Active:       YES                    YES                    YES
               X      Y      Z        X      Y      Z        X      Y      Z
 C          0.045 -0.121  0.025    0.086  0.235  0.012   -0.093  0.015 -0.196
 C          0.068 -0.105  0.069    0.011 -0.083 -0.087    0.170 -0.080  0.214
 H         -0.002 -0.143 -0.104   -0.046  0.434  0.393   -0.095  0.014 -0.194
 H          0.029 -0.182  0.101    0.338  0.516 -0.292   -0.193  0.018 -0.230
 H          0.079 -0.082  0.032   -0.039 -0.178  0.073    0.275 -0.132  0.379
 C         -0.046 -0.034 -0.001   -0.001 -0.081 -0.040    0.085 -0.035  0.044
 O         -0.026  0.045  0.011    0.052  0.086  0.001    0.041  0.078 -0.070
 O         -0.187 -0.039 -0.088   -0.141 -0.171  0.073   -0.002 -0.032 -0.020
 O          0.160  0.267  0.011    0.001 -0.015  0.001   -0.122  0.020  0.060
 H         -0.037 -0.845 -0.099   -0.005 -0.018 -0.002   -0.593  0.229 -0.225
 TransDip  -0.025 -0.276 -0.022    0.073  0.069  0.024   -0.268  0.046 -0.194

 Mode:                 7                      8                      9
 Frequency:       535.31                 640.34                 655.31
 Force Cnst:      0.7158                 0.3005                 0.9017
 Red. Mass:       4.2394                 1.2437                 3.5638
 IR Active:          YES                    YES                    YES
 IR Intens:       21.376                137.915                 21.566
 Raman Active:       YES                    YES                    YES
               X      Y      Z        X      Y      Z        X      Y      Z
 C         -0.191 -0.029  0.173   -0.014 -0.058 -0.002    0.034  0.063 -0.006
 C         -0.148  0.029  0.080   -0.052 -0.015 -0.074    0.034  0.279  0.004
 H         -0.105 -0.156 -0.062    0.131 -0.061  0.212    0.359 -0.223 -0.363
 H         -0.338 -0.235  0.407   -0.117  0.053 -0.183   -0.380 -0.223  0.245
 H         -0.416 -0.046  0.030    0.448 -0.255  0.740    0.195  0.119  0.428
 C          0.110 -0.075 -0.087   -0.039  0.010 -0.046    0.082  0.049 -0.057
 O          0.209  0.225 -0.062   -0.002  0.025  0.017    0.070 -0.170 -0.084
 O          0.042 -0.137 -0.061    0.047  0.010  0.012   -0.195 -0.101  0.102
 O         -0.049  0.002 -0.039   -0.008  0.029  0.006   -0.000 -0.002  0.004
 H          0.376 -0.120  0.216    0.190 -0.011  0.125    0.048  0.007  0.033
 TransDip  -0.094 -0.024  0.112    0.211 -0.141  0.278    0.111  0.069  0.071

 Mode:                10                     11                     12
 Frequency:       768.42                 825.71                 885.34
 Force Cnst:      0.5051                 2.2081                 1.3125
 Red. Mass:       1.4520                 5.4969                 2.8421
 IR Active:          YES                    YES                    YES
 IR Intens:       64.560                 67.860                 21.016
 Raman Active:       YES                    YES                    YES
               X      Y      Z        X      Y      Z        X      Y      Z
 C         -0.027  0.021 -0.087    0.050  0.027  0.065   -0.109 -0.157  0.057
 C          0.050 -0.026 -0.005   -0.153  0.075 -0.206   -0.058 -0.044 -0.017
 H         -0.074  0.053 -0.067    0.001 -0.023 -0.159   -0.256  0.121  0.687
 H          0.125  0.018 -0.040    0.038 -0.089  0.219    0.134  0.237 -0.386
 H          0.069  0.023 -0.091    0.125 -0.131  0.407    0.035  0.054 -0.171
 C          0.069 -0.004  0.102    0.218 -0.158  0.445    0.135  0.108  0.035
 O         -0.017 -0.017 -0.033   -0.092  0.068 -0.087    0.131 -0.084 -0.117
 O         -0.031  0.026 -0.014   -0.027 -0.000 -0.136   -0.108  0.105  0.068
 O         -0.076  0.008  0.019    0.052 -0.018 -0.014    0.017  0.019 -0.009
 H          0.767 -0.232  0.526   -0.457  0.116 -0.321   -0.174  0.059 -0.123
 TransDip   0.176 -0.017  0.187    0.111 -0.106  0.215   -0.038  0.142 -0.006

 Mode:                13                     14                     15
 Frequency:      1003.33                1105.65                1125.16
 Force Cnst:      1.0360                 0.8621                 0.8863
 Red. Mass:       1.7467                 1.1970                 1.1882
 IR Active:          YES                    YES                    YES
 IR Intens:       17.816                 33.419                310.156
 Raman Active:       YES                    YES                    YES
               X      Y      Z        X      Y      Z        X      Y      Z
 C         -0.008 -0.080 -0.031    0.033  0.042 -0.016   -0.067  0.038 -0.020
 C          0.024  0.156  0.041   -0.004 -0.085 -0.013    0.049 -0.024 -0.006
 H          0.365 -0.078  0.542    0.542 -0.187  0.087    0.502 -0.102  0.454
 H         -0.181  0.188 -0.450   -0.538  0.025 -0.187    0.393 -0.254  0.528
 H          0.093  0.358 -0.311   -0.508 -0.250 -0.024    0.104 -0.004 -0.014
 C         -0.011 -0.051  0.042    0.027 -0.006  0.019   -0.021 -0.028  0.008
 O         -0.049  0.034  0.029    0.001 -0.006 -0.008    0.010 -0.004 -0.008
 O          0.031 -0.109 -0.056   -0.015  0.059  0.017   -0.004  0.024  0.008
 O         -0.006  0.025 -0.000    0.002  0.009  0.006   -0.036  0.012 -0.043
 H          0.048  0.011  0.033    0.031  0.010  0.023   -0.066  0.017 -0.063
 TransDip  -0.131  0.031  0.005    0.142 -0.049 -0.108   -0.547 -0.136  0.030

 Mode:                16                     17                     18
 Frequency:      1252.92                1339.39                1416.71
 Force Cnst:      1.3344                 3.3519                 2.7830
 Red. Mass:       1.4427                 3.1712                 2.3534
 IR Active:          YES                    YES                    YES
 IR Intens:      239.703                379.264                745.393
 Raman Active:       YES                    YES                    YES
               X      Y      Z        X      Y      Z        X      Y      Z
 C          0.047 -0.070 -0.096   -0.055 -0.011  0.005   -0.028  0.066  0.011
 C         -0.084  0.073  0.083    0.126 -0.012 -0.083   -0.161 -0.139  0.057
 H          0.104 -0.063 -0.028   -0.352  0.263  0.451    0.503 -0.315 -0.337
 H          0.643  0.065 -0.098   -0.302 -0.277  0.319    0.201  0.193 -0.096
 H         -0.600 -0.223  0.329   -0.270 -0.265  0.107    0.483  0.208 -0.229
 C          0.038  0.034 -0.017    0.231  0.192 -0.081    0.095  0.208  0.003
 O         -0.018  0.005  0.012   -0.177 -0.002  0.102   -0.033 -0.008  0.016
 O          0.001 -0.017 -0.004    0.009 -0.108 -0.034    0.012 -0.095 -0.033
 O          0.006 -0.002  0.003    0.002 -0.000 -0.002    0.018 -0.005  0.006
 H          0.014 -0.007  0.008   -0.036  0.009 -0.025   -0.026  0.009 -0.020
 TransDip   0.480  0.107 -0.062    0.473  0.351 -0.206    0.629  0.606 -0.024

 Mode:                19                     20                     21
 Frequency:      1467.81                1539.41                3136.00
 Force Cnst:      5.8371                 3.6454                 6.1886
 Red. Mass:       4.5984                 2.6109                 1.0680
 IR Active:          YES                    YES                    YES
 IR Intens:      887.909                654.073                 90.394
 Raman Active:       YES                    YES                    YES
               X      Y      Z        X      Y      Z        X      Y      Z
 C          0.108  0.008 -0.102   -0.174 -0.017  0.155    0.029  0.013 -0.035
 C         -0.033 -0.029  0.011    0.219  0.032 -0.115    0.015 -0.049 -0.023
 H         -0.210  0.330  0.382    0.148 -0.378 -0.396   -0.252 -0.504  0.161
 H         -0.329 -0.367  0.274    0.326  0.436 -0.271   -0.076  0.345  0.247
 H         -0.233 -0.116  0.105   -0.289 -0.261  0.105   -0.196  0.585  0.292
 C         -0.281  0.287  0.235   -0.093  0.087  0.078    0.002 -0.000 -0.001
 O          0.146 -0.033 -0.093    0.016 -0.015 -0.013   -0.000  0.000  0.000
 O          0.053 -0.155 -0.070    0.022 -0.053 -0.027   -0.000  0.000  0.000
 O          0.003 -0.002  0.006   -0.011  0.004 -0.012   -0.001 -0.000  0.000
 H          0.025 -0.005  0.020   -0.034  0.010 -0.028    0.003 -0.001 -0.001
 TransDip  -0.486  0.618  0.542   -0.774  0.191  0.187    0.188 -0.097 -0.219

 Mode:                22                     23                     24
 Frequency:      3149.20                3223.69                3839.75
 Force Cnst:      6.2969                 6.8339                 9.2717
 Red. Mass:       1.0776                 1.1161                 1.0673
 IR Active:          YES                    YES                    YES
 IR Intens:       51.118                 34.569                  3.769
 Raman Active:       YES                    YES                    YES
               X      Y      Z        X      Y      Z        X      Y      Z
 C         -0.031 -0.000  0.039   -0.012 -0.096 -0.021   -0.000  0.000 -0.000
 C          0.021 -0.052 -0.027    0.003 -0.008 -0.004    0.000  0.000  0.000
 H          0.206  0.407 -0.131    0.289  0.556 -0.186   -0.000 -0.003  0.001
 H          0.093 -0.408 -0.298   -0.143  0.586  0.436    0.000  0.003  0.003
 H         -0.205  0.607  0.306   -0.029  0.084  0.040    0.000 -0.001  0.000
 C          0.003  0.002 -0.001    0.001 -0.000 -0.000   -0.000 -0.000  0.000
 O         -0.001 -0.000  0.001   -0.000  0.000  0.000    0.000  0.000 -0.000
 O         -0.000 -0.001 -0.000   -0.000  0.000  0.000   -0.000  0.000  0.000
 O          0.001 -0.000 -0.000   -0.000  0.001  0.000    0.033 -0.000 -0.054
 H         -0.004  0.000  0.001    0.001  0.001 -0.000   -0.513  0.006  0.856
 TransDip  -0.095 -0.203  0.048   -0.009 -0.180 -0.056   -0.016  0.001  0.060

 STANDARD THERMODYNAMIC QUANTITIES AT   298.15 K  AND     1.00 ATM

   This Molecule has  1 Imaginary Frequencies
   Zero point vibrational energy:       41.298 kcal/mol

   Atom    1 Element C  Has Mass   12.00000
   Atom    2 Element C  Has Mass   12.00000
   Atom    3 Element H  Has Mass    1.00783
   Atom    4 Element H  Has Mass    1.00783
   Atom    5 Element H  Has Mass    1.00783
   Atom    6 Element C  Has Mass   12.00000
   Atom    7 Element O  Has Mass   15.99491
   Atom    8 Element O  Has Mass   15.99491
   Atom    9 Element O  Has Mass   15.99491
   Atom   10 Element H  Has Mass    1.00783
   Molecular Mass:    88.016050 amu
   Principal axes and moments of inertia in amu*Bohr^2:
                             1           2           3
    Eigenvalues --      247.65914   916.70092   999.07163
          X               0.95615    -0.25272     0.14804
          Y               0.27717     0.94410    -0.17845
          Z              -0.09466     0.21166     0.97275
   Rotational Symmetry Number is   1
   The Molecule is an Asymmetric Top
   Translational Enthalpy:        0.889 kcal/mol
   Rotational Enthalpy:           0.889 kcal/mol
   Vibrational Enthalpy:         43.647 kcal/mol
   gas constant (RT):             0.592 kcal/mol
   Translational Entropy:        39.337  cal/mol.K
   Rotational Entropy:           26.919  cal/mol.K
   Vibrational Entropy:          14.666  cal/mol.K

   Total Enthalpy:               46.016 kcal/mol
   Total Entropy:                80.923  cal/mol.K
Archival summary:
1\1\c6-89\FREQ\ProcedureUnspecified\BasisUnspecified\334(2-,1)\alotsuki\TueApr1700:46:392018TueApr1700:46:392018\0\\#,FREQ,ProcedureUnspecified,BasisUnspecified,\\-2,1\C\O,1,1.27635\O,1,1.28045,2,122.295\C,1,1.47042,2,119.968,3,179.175,0\H,4,1.08927,1,116.459,2,177.421,0\C,4,1.38311,1,123.91,2,3.39156,0\H,6,1.08516,4,118.194,1,-19.8997,0\H,6,1.08578,4,118.56,1,-166.157,0\O,6,1.91449,4,114.503,1,86.8237,0\H,9,0.963428,6,96.0626,4,5.09002,0\\\@

 Total job time:  12302.38s(wall), 47570.66s(cpu) 
 Tue Apr 17 00:46:39 2018

        *************************************************************
        *                                                           *
        *  Thank you very much for using Q-Chem.  Have a nice day.  *
        *                                                           *
        *************************************************************


