
Running Job 1 of 1 qc-freq2.in
qchem qc-freq2.in_19285.0 /scratch/leeping/1862747/qc-freq2.d/ 1
/home/leeping/opt/qchem/5.0.2-openmp/exe/qcprog.exe_s qc-freq2.in_19285.0 /scratch/leeping/1862747/qc-freq2.d/
Check license passed

                  Welcome to Q-Chem
     A Quantum Leap Into The Future Of Chemistry


 Q-Chem 5.0, Q-Chem, Inc., Pleasanton, CA (2017)

 Yihan Shao,  Zhengting Gan,  E. Epifanovsky,  A. T. B. Gilbert,  M. Wormit,  
 J. Kussmann,  A. W. Lange,  A. Behn,  Jia Deng,  Xintian Feng,  D. Ghosh,  
 M. Goldey,  P. R. Horn,  L. D. Jacobson,  I. Kaliman,  T. Kus,  A. Landau,  
 Jie Liu,  E. I. Proynov,  R. M. Richard,  R. P. Steele,  E. J. Sundstrom,  
 H. L. Woodcock III,  P. M. Zimmerman,  D. Zuev,  B. Albrecht,  E. Alguire,  
 S. A. Baeppler,  D. Barton,  Z. Benda,  Y. A. Bernard,  E. J. Berquist,  
 K. B. Bravaya,  H. Burton,  D. Casanova,  Chun-Min Chang,  Yunqing Chen,  
 A. Chien,  K. D. Closser,  M. P. Coons,  S. Dasgupta,  A. L. Dempwolff,  
 M. Diedenhofen,  Hainam Do,  R. G. Edgar,  Po-Tung Fang,  S. Fatehi,  
 Qingguo Feng,  J. Fosso-Tande,  Qinghui Ge,  A. Ghysels,  G. Gidofalvi,  
 J. Gomes,  J. Gonthier,  A. Gunina,  M. W. D. Hanson-Heine,  
 P. H. P. Harbach,  A. W. Hauser,  J. E. Herr,  E. G. Hohenstein,  
 Z. C. Holden,  Kerwin Hui,  T.-C. Jagau,  Hyunjun Ji,  B. Kaduk,  
 K. Khistyaev,  Jaehoon Kim,  P. Klunzinger,  K. Koh,  D. Kosenkov,  
 L. Koulias,  T. Kowalczyk,  C. M. Krauter,  A. Kunitsa,  Ka Un Lao,  
 A. Laurent,  K. V. Lawler,  Joonho Lee,  D. Lefrancois,  S. Lehtola,  
 D. S. Levine,  Yi-Pei Li,  You-Sheng Lin,  Fenglai Liu,  E. Livshits,  
 A. Luenser,  P. Manohar,  E. Mansoor,  S. F. Manzer,  Shan-Ping Mao,  
 Yuezhi Mao,  N. Mardirossian,  A. V. Marenich,  T. Markovich,  
 L. A. Martinez-Martinez,  S. A. Maurer,  N. J. Mayhall,  S. C. McKenzie,  
 J.-M. Mewes,  A. F. Morrison,  J. W. Mullinax,  K. Nanda,  
 T. S. Nguyen-Beck,  R. Olivares-Amaya,  J. A. Parkhill,  T. M. Perrine,  
 F. Plasser,  S. Prager,  A. Prociuk,  E. Ramos,  D. R. Rehn,  F. Rob,  
 M. Schneider,  N. Sergueev,  S. M. Sharada,  S. Sharma,  D. W. Small,  
 T. Stauch,  T. Stein,  Yu-Chuan Su,  A. J. W. Thom,  A. Tkatchenko,  
 T. Tsuchimochi,  L. Vogt,  O. Vydrov,  M. A. Watson,  J. Wenzel,  
 M. de Wergifosse,  T. A. Wesolowski,  A. White,  J. Witte,  A. Yamada,  
 Jun Yang,  K. Yao,  S. Yeganeh,  S. R. Yost,  Zhi-Qiang You,  A. Zech,  
 Igor Ying Zhang,  Xing Zhang,  Yan Zhao,  Ying Zhu,  B. R. Brooks,  
 G. K. L. Chan,  C. J. Cramer,  M. S. Gordon,  W. J. Hehre,  A. Klamt,  
 M. W. Schmidt,  C. D. Sherrill,  D. G. Truhlar,  A. Aspuru-Guzik,  R. Baer,  
 A. T. Bell,  N. A. Besley,  Jeng-Da Chai,  R. A. DiStasio Jr.,  A. Dreuw,  
 B. D. Dunietz,  T. R. Furlani,  Chao-Ping Hsu,  Yousung Jung,  Jing Kong,  
 D. S. Lambrecht,  WanZhen Liang,  C. Ochsenfeld,  V. A. Rassolov,  
 L. V. Slipchenko,  J. E. Subotnik,  T. Van Voorhis,  J. M. Herbert,  
 A. I. Krylov,  P. M. W. Gill,  M. Head-Gordon

 Contributors to earlier versions of Q-Chem not listed above: 
 R. D. Adamson,  B. Austin,  J. Baker,  G. J. O. Beran,  K. Brandhorst,  
 S. T. Brown,  E. F. C. Byrd,  A. K. Chakraborty,  C.-L. Cheng,  
 Siu Hung Chien,  D. M. Chipman,  D. L. Crittenden,  H. Dachsel,  
 R. J. Doerksen,  A. D. Dutoi,  L. Fusti-Molnar,  W. A. Goddard III,  
 A. Golubeva-Zadorozhnaya,  S. R. Gwaltney,  G. Hawkins,  A. Heyden,  
 S. Hirata,  G. Kedziora,  F. J. Keil,  C. Kelley,  Jihan Kim,  R. A. King,  
 R. Z. Khaliullin,  P. P. Korambath,  W. Kurlancheek,  A. M. Lee,  M. S. Lee,  
 S. V. Levchenko,  Ching Yeh Lin,  D. Liotard,  R. C. Lochan,  I. Lotan,  
 P. E. Maslen,  N. Nair,  D. P. O'Neill,  D. Neuhauser,  E. Neuscamman,  
 C. M. Oana,  R. Olson,  B. Peters,  R. Peverati,  P. A. Pieniazek,  
 Y. M. Rhee,  J. Ritchie,  M. A. Rohrdanz,  E. Rosta,  N. J. Russ,  
 H. F. Schaefer III,  N. E. Schultz,  N. Shenvi,  A. C. Simmonett,  A. Sodt,  
 D. Stuck,  K. S. Thanthiriwatte,  V. Vanovschi,  Tao Wang,  A. Warshel,  
 C. F. Williams,  Q. Wu,  X. Xu,  W. Zhang

 Please cite Q-Chem as follows:
 Y. Shao et al., Mol. Phys. 113, 184-215 (2015)
 DOI: 10.1080/00268976.2014.952696

 Q-Chem 5.0.2 for Intel X86 EM64T Linux

 Parts of Q-Chem use Armadillo 5.200.1 (Boston Tea Smuggler).
 http://arma.sourceforge.net/

 Q-Chem begins on Fri Mar 20 21:48:53 2020  

Host: 
0

     Scratch files written to /scratch/leeping/1862747/qc-freq2.d//
 Dec517 15110_ 26548  26544 5633   
Processing $rem in /home/leeping/opt/qchem/5.0.2-openmp/config/preferences.
 MEM_STATIC 2000
 MEM_TOTAL  8000
 SYMMETRY   OFF
 SYM_IGNORE TRUE 
Symmetry turned off for PCM/SM12/SMD calculation

Checking the input file for inconsistencies... 	...done.

--------------------------------------------------------------
User input:
--------------------------------------------------------------
$molecule
-2 1
C       -0.4350414667   -0.7992623103    1.2242518464
C        0.4509799725   -0.7483841465    0.2357998061
H       -0.9104936550   -1.7318541510    1.5151211344
H       -0.7089513935    0.1011241903    1.7675656307
H        0.7238248300   -1.6496365401   -0.3096187860
C        1.1456382896    0.5256500228   -0.2116607291
O        1.9715339246    0.3942880529   -1.1543976811
O        0.8597104265    1.5989337771    0.3752070657
O       -2.5337859729    0.5776176854   -1.5870928101
H       -1.8606358832    0.2435590433   -0.9850707274
$end

$rem
jobtype               freq
method                wb97x-v
basis                 def2-tzvpd
symmetry              off
sym_ignore            true
incdft                false
incfock               0
!scf_algorithm        diis_gdm
scf_convergence       8
thresh                14
!purecart             112
max_scf_cycles        1000
geom_opt_max_cycles   500
geom_opt_dmax         100
geom_opt_tol_gradient 10
solvent_method        pcm
ideriv                1
rpath_tol_displacement 1000
rpath_max_cycles      100
rpath_direction       1
!scf_guess            read
scf_guess             read
$end

$pcm
theory              cosmo
method              iswig
Radii               bondi
vdwScale            1.20
hpoints             110
heavypoints         110
$end

$solvent
dielectric 78.400000
$end

--------------------------------------------------------------
 ----------------------------------------------------------------
             Standard Nuclear Orientation (Angstroms)
    I     Atom           X                Y                Z
 ----------------------------------------------------------------
    1      C      -0.4350414667    -0.7992623103     1.2242518464
    2      C       0.4509799725    -0.7483841465     0.2357998061
    3      H      -0.9104936550    -1.7318541510     1.5151211344
    4      H      -0.7089513935     0.1011241903     1.7675656307
    5      H       0.7238248300    -1.6496365401    -0.3096187860
    6      C       1.1456382896     0.5256500228    -0.2116607291
    7      O       1.9715339246     0.3942880529    -1.1543976811
    8      O       0.8597104265     1.5989337771     0.3752070657
    9      O      -2.5337859729     0.5776176854    -1.5870928101
   10      H      -1.8606358832     0.2435590433    -0.9850707274
 ----------------------------------------------------------------
 Nuclear Repulsion Energy =   201.9810322776 hartrees
 There are       24 alpha and       24 beta electrons
 Requested basis set is def2-TZVPD
 There are 101 shells and 267 basis functions

 Total QAlloc Memory Limit   8000 MB
 Mega-Array Size      1956 MB
 MEM_STATIC part      2000 MB
 Discretize the solute cavity surface with Lebedev spheres
	Using 110 Lebedev grid points for each H atom
	Using 110 Lebedev grid points for other atoms
	Atomic van der Waals radii will be scaled by 1.20
 Remove points where switching function is < 1.0e-08
 Keep 715 surface tesserae and discard 385 interior tesserae
 Molecular Surface Area = 146.975 Angst**2

                       Distance Matrix (Angstroms)
             C (  1)   C (  2)   H (  3)   H (  4)   H (  5)   C (  6)
   C (  2)  1.328405
   H (  3)  1.086456  2.111276
   H (  4)  1.086698  2.100812  1.861225
   H (  5)  2.102110  1.088201  2.451006  3.071271
   C (  6)  2.513123  1.518530  3.507959  2.745371  2.217971
   O (  7)  3.588055  2.355936  4.466866  3.976030  2.539302  1.260203
   O (  8)  2.854576  2.386712  3.940454  2.577362  3.322749  1.256227
   O (  9)  3.768844  3.740327  4.194338  3.848480  4.147846  3.928445
   H ( 10)  2.828587  2.796077  3.325054  2.987252  3.274120  3.116957
             O (  7)   O (  8)   O (  9)
   O (  8)  2.242100
   O (  9)  4.529762  4.050867
   H ( 10)  3.838869  3.329817  0.962890
 
 A cutoff of  1.0D-14 yielded   4885 shell pairs
 There are     34679 function pairs (     44657 Cartesian)
 
 -------------------------------------------------------
 OpenMP Integral Computing Module                       
 Release: version 1.0, May 2013, Q-Chem Inc. Pittsburgh 
 -------------------------------------------------------
 Integral Job Info:
 Integral job number is                      11
 Integral operator is                         1
 short-range coefficients              16700000
 long-range coefficients              100000000
 Omega coefficients                         300
 if combine SR and LR in K                    1
 Integral screening is                        0
 Integral computing path is                   2
 max size of driver memory is            800000
 size of driver memory is                776718
 size of scratch memory is              4473992
 max col of scratch BK array              10000
 max len of scratch array in speh3          662
 max len of scratch index in speh4           32
 max int batch size is                      520
 min int batch size is                       52
 fixed nKL is                                52
 max L of basis functions is                  3
 order of int derivative is                   0
 number of shells is                        101
 number of basis is                         303
 number of cartesian basis is               303
 number of contracted shell pairs          4885
 number of primitive shell pairs          10367
 maxK2 (contraction) of shell pair           36
 max number of K2 of shell pair               1
 max number of CS2 of shell pair            744
 max number of PS2 of shell pair           1164
 mem total for path MDJ                  619684
 -------------------------------------------------------
 Smallest overlap matrix eigenvalue = 6.44E-06
 Guess MOs from SCF MO coefficient file
 Reading MOs from coefficient file
 Reading MOs from coefficient file
 Long-range K will be added via erf
 Coulomb attenuation parameter = 0.3 bohr**(-1)
 A restricted hybrid HF-DFT SCF calculation will be
 performed using Pulay DIIS extrapolation
 Polarizable Continuum solvation model will be applied
 Exchange:     0.1670 Hartree-Fock + 1.0000 wB97X-V + LR-HF
 Correlation:  1.0000 wB97X-V
 Using SG-2 standard quadrature grid
 Nonlocal Correlation:  VV10 with C = 0.0100 and b = 6.00
 Grid used for NLC:  SG-1 standard quadrature
 SCF converges when DIIS error is below 1.0E-08
Using Q-Chem read-in guess as SCF_GUESS READ specified.

 using 16 threads for integral computing
 -------------------------------------------------------
 OpenMP Integral computing Module                
 Release: version 1.0, May 2013, Q-Chem Inc. Pittsburgh 
 -------------------------------------------------------
 using 16 threads for integral computing
 -------------------------------------------------------
 OpenMP Integral computing Module                
 Release: version 1.0, May 2013, Q-Chem Inc. Pittsburgh 
 -------------------------------------------------------
 -------------------------------------------------------
 OpenMP BLAS3 based DFT computing Module                
 Release: version 1.0, May 2013, Q-Chem Inc. Pittsburgh 
 -------------------------------------------------------
 -------------------------------------------------------
 OpenMP BLAS3 based DFT computing Module                
 Release: version 1.0, May 2013, Q-Chem Inc. Pittsburgh 
 -------------------------------------------------------
 -------------------------------------------------------
 OpenMP BLAS3 based DFT computing Module                
 Release: version 1.0, May 2013, Q-Chem Inc. Pittsburgh 
 -------------------------------------------------------
 ---------------------------------------
  Cycle       Energy         DIIS Error
 ---------------------------------------
    1    -342.3055420525      7.09E-04
    2    -342.6544272252      8.53E-04
    3    -342.6637201652      3.86E-04
    4    -342.6652274983      2.68E-04
    5    -342.6661486804      2.01E-04
    6    -342.6666597237      1.54E-04
    7    -342.6669978749      1.13E-04
    8    -342.6671703150      8.55E-05
    9    -342.6672653282      6.53E-05
   10    -342.6673218317      4.95E-05
   11    -342.6673608513      3.45E-05
   12    -342.6673729783      2.83E-05
   13    -342.6673805861      2.36E-05
   14    -342.6673874655      1.83E-05
   15    -342.6673920805      1.36E-05
   16    -342.6673946579      1.00E-05
   17    -342.6673977718      6.36E-09 Convergence criterion met
 ---------------------------------------

************** Final PCM Free Energy Summary **************
 G_electrostatic  =      -0.36185639 hartree =    -227.06830963 kcal/mol
 G_cavitation     =       0.00000000 hartree =       0.00000000 kcal/mol
 G_dispersion     =       0.00000000 hartree =       0.00000000 kcal/mol
 G_repulsion      =       0.00000000 hartree =       0.00000000 kcal/mol
 --------------------------------------------------
 Non-electrostatic Free Energy =       0.00000000 hartree =       0.00000000 kcal/mol
 Total                         =      -0.36185639 hartree =    -227.06830963 kcal/mol
 --------------------------------------------------
 SCF Energy (H0 + V/2)                       =    -342.66739777 
 Solute Internal Energy (H0)                 =    -342.30554139 
 Total Free Energy (H0 + V/2 + non-elec)     =    -342.66739777 hartree
                                             = -215027.03750471 kcal/mol
***********************************************************

 SCF time:  CPU 793.01 s  wall 56.25 s
 SCF   energy in the final basis set = -342.66739777
 Total energy in the final basis set = -342.66739777
 
 --------------------------------------------------------------
 
                    Orbital Energies (a.u.)
 --------------------------------------------------------------
 
 Alpha MOs
 -- Occupied --
-19.143 -19.142 -19.090 -10.346 -10.261 -10.259  -1.147  -1.053
 -0.963  -0.893  -0.719  -0.612  -0.563  -0.541  -0.510  -0.500
 -0.463  -0.447  -0.364  -0.350  -0.345  -0.335  -0.311  -0.310
 -- Virtual --
  0.063   0.065   0.086   0.091   0.102   0.121   0.125   0.134
  0.136   0.139   0.154   0.170   0.174   0.188   0.196   0.202
  0.212   0.235   0.251   0.256   0.265   0.278   0.289   0.292
  0.295   0.305   0.322   0.336   0.350   0.363   0.369   0.375
  0.386   0.391   0.405   0.414   0.426   0.432   0.434   0.447
  0.463   0.470   0.478   0.482   0.493   0.497   0.500   0.512
  0.514   0.516   0.539   0.544   0.554   0.561   0.565   0.567
  0.579   0.591   0.603   0.620   0.649   0.653   0.668   0.673
  0.675   0.688   0.710   0.716   0.720   0.742   0.749   0.760
  0.775   0.785   0.800   0.813   0.833   0.840   0.852   0.862
  0.886   0.907   0.918   0.943   0.965   0.967   0.996   1.009
  1.036   1.055   1.080   1.095   1.112   1.126   1.134   1.190
  1.239   1.273   1.297   1.312   1.318   1.339   1.368   1.432
  1.450   1.460   1.500   1.544   1.671   1.721   1.759   1.770
  1.838   1.865   1.869   1.877   1.908   1.916   1.927   1.933
  1.939   1.960   1.972   1.992   2.028   2.077   2.095   2.124
  2.147   2.171   2.190   2.240   2.267   2.287   2.354   2.391
  2.409   2.416   2.437   2.456   2.489   2.563   2.615   2.646
  2.693   2.699   2.729   2.753   2.817   2.857   2.889   2.894
  2.927   2.999   3.039   3.077   3.105   3.121   3.130   3.145
  3.183   3.217   3.224   3.272   3.295   3.316   3.342   3.375
  3.388   3.394   3.418   3.481   3.523   3.527   3.565   3.569
  3.591   3.615   3.624   3.672   3.687   3.729   3.764   3.772
  3.868   3.877   3.982   4.075   4.187   4.227   4.268   4.383
  4.509   4.539   4.734   4.764   4.846   4.911   4.970   5.017
  5.212   5.309   5.343   5.344   5.348   5.358   5.374   5.374
  5.381   5.500   5.672   5.680   5.704   5.746   5.785   6.039
  6.250   6.298   6.347   6.446   6.600   6.605   6.613   6.632
  6.686   6.713   6.722   6.730   6.754   6.952   6.969   7.032
  7.246   7.275   7.352   7.404   7.447  22.566  23.016  23.703
 43.936  44.283  44.381
 --------------------------------------------------------------
 
          Ground-State Mulliken Net Atomic Charges

     Atom                 Charge (a.u.)
  ----------------------------------------
      1 C                    -0.716336
      2 C                    -0.009533
      3 H                     0.250082
      4 H                     0.228244
      5 H                     0.289272
      6 C                     0.387989
      7 O                    -0.702971
      8 O                    -0.692093
      9 O                    -1.123428
     10 H                     0.088773
  ----------------------------------------
  Sum of atomic charges =    -2.000000

 -----------------------------------------------------------------
                    Cartesian Multipole Moments
 -----------------------------------------------------------------
    Charge (ESU x 10^10)
                -9.6064
    Dipole Moment (Debye)
         X       5.5133      Y      -9.4504      Z      11.0800
       Tot      15.5715
    Quadrupole Moments (Debye-Ang)
        XX     -90.5266     XY       1.8797     YY     -52.2220
        XZ     -16.3517     YZ       4.4664     ZZ     -60.6924
    Octopole Moments (Debye-Ang^2)
       XXX      63.9802    XXY     -39.7476    XYY      -5.2990
       YYY     -54.1048    XXZ      83.1307    XYZ      -9.0407
       YYZ      12.5746    XZZ      22.1719    YZZ     -20.7947
       ZZZ      63.3851
    Hexadecapole Moments (Debye-Ang^3)
      XXXX    -951.2211   XXXY      20.6028   XXYY    -176.3968
      XYYY     -24.7494   YYYY    -275.9275   XXXZ    -159.0694
      XXYZ      49.6580   XYYZ     -30.3561   YYYZ      43.2917
      XXZZ    -270.0965   XYZZ      10.1632   YYZZ    -102.7484
      XZZZ    -102.4279   YZZZ      61.3670   ZZZZ    -372.3575
 -----------------------------------------------------------------
 Calculating analytic gradient of the SCF energy
 Gradient of SCF Energy
            1           2           3           4           5           6
    1  -0.0306884  -0.0443423   0.0337542   0.0240382  -0.0029781   0.0648249
    2   0.0192398  -0.0890182   0.0629555  -0.0644535   0.0556094   0.0782034
    3  -0.0217712   0.0352322  -0.0165895  -0.0409547   0.0356981  -0.0049826
            7           8           9          10
    1  -0.0556623   0.0071939   0.0890992  -0.0852393
    2  -0.0032686  -0.0645770  -0.0153774   0.0206866
    3   0.0481716  -0.0333167   0.0628534  -0.0643406
 Max gradient component =       8.910E-02
 RMS gradient           =       4.971E-02
 Computing fast CPCM-ISWIG gradient
 Updating gradient with PCM contributions...
 -- total gradient after adding PCM contribution --
---------------------------------------------------
  Atom         X              Y              Z     
---------------------------------------------------
   1       0.000009       0.000000       0.000002
   2      -0.000009      -0.000006       0.000003
   3       0.000008      -0.000003      -0.000003
   4      -0.000009       0.000001      -0.000008
   5       0.000004      -0.000006       0.000003
   6       0.000031      -0.000015      -0.000026
   7      -0.000017       0.000002       0.000015
   8      -0.000007       0.000009      -0.000002
   9      -0.000005       0.000010       0.000012
  10      -0.000006       0.000008       0.000004
---------------------------------------------------
 Number of fixed atoms: 0
 Gradient time:  CPU 155.12 s  wall 11.73 s
 ######################################################
 ######################################################
 # Starting finite difference calculation for IDERIV  #
 Finite diff step size:  1.88973e-03 a.u.
 ----------------------------------------------------------------
             Standard Nuclear Orientation (Angstroms)
    I     Atom           X                Y                Z
 ----------------------------------------------------------------
    1      C      -0.4340414667    -0.7992623103     1.2242518464
    2      C       0.4509799725    -0.7483841465     0.2357998061
    3      H      -0.9104936550    -1.7318541510     1.5151211344
    4      H      -0.7089513935     0.1011241903     1.7675656307
    5      H       0.7238248300    -1.6496365401    -0.3096187860
    6      C       1.1456382896     0.5256500228    -0.2116607291
    7      O       1.9715339246     0.3942880529    -1.1543976811
    8      O       0.8597104265     1.5989337771     0.3752070657
    9      O      -2.5337859729     0.5776176854    -1.5870928101
   10      H      -1.8606358832     0.2435590433    -0.9850707274
 ----------------------------------------------------------------
 Nuclear Repulsion Energy =   201.9902122742 hartrees
 There are       24 alpha and       24 beta electrons
 Discretize the solute cavity surface with Lebedev spheres
	Using 110 Lebedev grid points for each H atom
	Using 110 Lebedev grid points for other atoms
	Atomic van der Waals radii will be scaled by 1.20
 Remove points where switching function is < 1.0e-08
 Keep 714 surface tesserae and discard 386 interior tesserae
 Molecular Surface Area = 146.970 Angst**2

                       Distance Matrix (Angstroms)
             C (  1)   C (  2)   H (  3)   H (  4)   H (  5)   C (  6)
   C (  2)  1.327738
   H (  3)  1.086894  2.111276
   H (  4)  1.086950  2.100812  1.861225
   H (  5)  2.101559  1.088201  2.451006  3.071271
   C (  6)  2.512494  1.518530  3.507959  2.745371  2.217971
   O (  7)  3.587385  2.355936  4.466866  3.976030  2.539302  1.260203
   O (  8)  2.854123  2.386712  3.940454  2.577362  3.322749  1.256227
   O (  9)  3.769401  3.740327  4.194338  3.848480  4.147846  3.928445
   H ( 10)  2.829091  2.796077  3.325054  2.987252  3.274120  3.116957
             O (  7)   O (  8)   O (  9)
   O (  8)  2.242100
   O (  9)  4.529762  4.050867
   H ( 10)  3.838869  3.329817  0.962890
 
 Requested basis set is def2-TZVPD
 There are 101 shells and 267 basis functions
 A cutoff of  1.0D-14 yielded   4885 shell pairs
 There are     34679 function pairs (     44657 Cartesian)
 Smallest overlap matrix eigenvalue = 6.42E-06
 Guess MOs from SCF MO coefficient file
 Reading MOs from coefficient file
 Reading MOs from coefficient file
 Long-range K will be added via erf
 Coulomb attenuation parameter = 0.3 bohr**(-1)
 A restricted hybrid HF-DFT SCF calculation will be
 performed using Pulay DIIS extrapolation
 Polarizable Continuum solvation model will be applied
 Exchange:     0.1670 Hartree-Fock + 1.0000 wB97X-V + LR-HF
 Correlation:  1.0000 wB97X-V
 Using SG-2 standard quadrature grid
 Nonlocal Correlation:  VV10 with C = 0.0100 and b = 6.00
 Grid used for NLC:  SG-1 standard quadrature
 SCF converges when DIIS error is below 1.0E-08
Using Q-Chem read-in guess as SCF_GUESS READ specified.

 using 16 threads for integral computing
 -------------------------------------------------------
 OpenMP Integral computing Module                
 Release: version 1.0, May 2013, Q-Chem Inc. Pittsburgh 
 -------------------------------------------------------
 using 16 threads for integral computing
 -------------------------------------------------------
 OpenMP Integral computing Module                
 Release: version 1.0, May 2013, Q-Chem Inc. Pittsburgh 
 -------------------------------------------------------
 -------------------------------------------------------
 OpenMP BLAS3 based DFT computing Module                
 Release: version 1.0, May 2013, Q-Chem Inc. Pittsburgh 
 -------------------------------------------------------
 -------------------------------------------------------
 OpenMP BLAS3 based DFT computing Module                
 Release: version 1.0, May 2013, Q-Chem Inc. Pittsburgh 
 -------------------------------------------------------
 -------------------------------------------------------
 OpenMP BLAS3 based DFT computing Module                
 Release: version 1.0, May 2013, Q-Chem Inc. Pittsburgh 
 -------------------------------------------------------
 ---------------------------------------
  Cycle       Energy         DIIS Error
 ---------------------------------------
    1    -342.3051762875      7.10E-04
    2    -342.6544177643      8.53E-04
    3    -342.6637196347      3.86E-04
    4    -342.6652286585      2.67E-04
    5    -342.6661545987      2.01E-04
    6    -342.6666730806      1.53E-04
    7    -342.6670212784      1.10E-04
    8    -342.6672091137      7.76E-05
    9    -342.6673168037      5.08E-05
   10    -342.6673745307      2.69E-05
   11    -342.6673938846      9.98E-06
   12    -342.6673964950      3.80E-06
   13    -342.6673968932      1.15E-06
   14    -342.6673969323      2.02E-07
   15    -342.6673969334      6.60E-08
   16    -342.6673969335      3.01E-09 Convergence criterion met
 ---------------------------------------

************** Final PCM Free Energy Summary **************
 G_electrostatic  =      -0.36184848 hartree =    -227.06334627 kcal/mol
 G_cavitation     =       0.00000000 hartree =       0.00000000 kcal/mol
 G_dispersion     =       0.00000000 hartree =       0.00000000 kcal/mol
 G_repulsion      =       0.00000000 hartree =       0.00000000 kcal/mol
 --------------------------------------------------
 Non-electrostatic Free Energy =       0.00000000 hartree =       0.00000000 kcal/mol
 Total                         =      -0.36184848 hartree =    -227.06334627 kcal/mol
 --------------------------------------------------
 SCF Energy (H0 + V/2)                       =    -342.66739693 
 Solute Internal Energy (H0)                 =    -342.30554846 
 Total Free Energy (H0 + V/2 + non-elec)     =    -342.66739693 hartree
                                             = -215027.03697870 kcal/mol
***********************************************************

 SCF time:  CPU 749.41 s  wall 53.15 s
 SCF   energy in the final basis set = -342.66739693
 Total energy in the final basis set = -342.66739693
 
 --------------------------------------------------------------
 
                    Orbital Energies (a.u.)
 --------------------------------------------------------------
 
 Alpha MOs
 -- Occupied --
-19.143 -19.142 -19.090 -10.346 -10.261 -10.259  -1.147  -1.053
 -0.963  -0.893  -0.719  -0.612  -0.563  -0.541  -0.510  -0.500
 -0.463  -0.447  -0.364  -0.350  -0.345  -0.335  -0.311  -0.310
 -- Virtual --
  0.063   0.065   0.086   0.091   0.102   0.121   0.125   0.134
  0.136   0.139   0.154   0.170   0.174   0.188   0.196   0.202
  0.212   0.235   0.251   0.256   0.265   0.278   0.289   0.292
  0.295   0.305   0.322   0.336   0.350   0.363   0.369   0.375
  0.386   0.391   0.405   0.414   0.426   0.432   0.434   0.447
  0.463   0.470   0.478   0.483   0.493   0.497   0.500   0.512
  0.514   0.516   0.539   0.544   0.554   0.561   0.565   0.567
  0.579   0.591   0.603   0.620   0.649   0.653   0.668   0.673
  0.675   0.688   0.710   0.716   0.720   0.742   0.749   0.760
  0.775   0.785   0.800   0.813   0.833   0.840   0.852   0.863
  0.886   0.907   0.918   0.943   0.965   0.967   0.996   1.009
  1.036   1.055   1.080   1.095   1.112   1.126   1.134   1.190
  1.239   1.273   1.297   1.312   1.318   1.339   1.368   1.432
  1.451   1.460   1.500   1.544   1.671   1.721   1.759   1.770
  1.838   1.865   1.869   1.878   1.908   1.916   1.927   1.933
  1.939   1.960   1.973   1.992   2.028   2.078   2.095   2.124
  2.147   2.171   2.190   2.240   2.267   2.287   2.354   2.391
  2.409   2.416   2.437   2.456   2.489   2.563   2.615   2.646
  2.692   2.699   2.729   2.753   2.817   2.857   2.889   2.894
  2.928   2.999   3.039   3.077   3.104   3.121   3.131   3.145
  3.183   3.217   3.224   3.272   3.295   3.316   3.342   3.375
  3.388   3.394   3.418   3.481   3.523   3.527   3.565   3.569
  3.591   3.615   3.625   3.673   3.687   3.729   3.764   3.772
  3.869   3.877   3.982   4.075   4.187   4.227   4.268   4.384
  4.510   4.541   4.734   4.764   4.847   4.911   4.970   5.017
  5.212   5.309   5.343   5.344   5.348   5.358   5.374   5.374
  5.381   5.500   5.672   5.680   5.704   5.746   5.785   6.039
  6.250   6.298   6.347   6.446   6.600   6.605   6.613   6.632
  6.686   6.713   6.722   6.730   6.754   6.952   6.969   7.032
  7.246   7.275   7.352   7.404   7.447  22.566  23.017  23.703
 43.936  44.283  44.381
 --------------------------------------------------------------
 
          Ground-State Mulliken Net Atomic Charges

     Atom                 Charge (a.u.)
  ----------------------------------------
      1 C                    -0.715906
      2 C                    -0.009737
      3 H                     0.249922
      4 H                     0.228050
      5 H                     0.289189
      6 C                     0.388181
      7 O                    -0.703003
      8 O                    -0.692091
      9 O                    -1.123409
     10 H                     0.088805
  ----------------------------------------
  Sum of atomic charges =    -2.000000

 -----------------------------------------------------------------
                    Cartesian Multipole Moments
 -----------------------------------------------------------------
    Charge (ESU x 10^10)
                -9.6064
    Dipole Moment (Debye)
         X       5.5122      Y      -9.4502      Z      11.0793
       Tot      15.5705
    Quadrupole Moments (Debye-Ang)
        XX     -90.5246     XY       1.8795     YY     -52.2235
        XZ     -16.3511     YZ       4.4673     ZZ     -60.6932
    Octopole Moments (Debye-Ang^2)
       XXX      63.9580    XXY     -39.7485    XYY      -5.3042
       YYY     -54.1012    XXZ      83.1317    XYZ      -9.0413
       YYZ      12.5707    XZZ      22.1653    YZZ     -20.7934
       ZZZ      63.3807
    Hexadecapole Moments (Debye-Ang^3)
      XXXX    -951.1826   XXXY      20.6139   XXYY    -176.3913
      XYYY     -24.7410   YYYY    -275.9419   XXXZ    -159.0853
      XXYZ      49.6576   XYYZ     -30.3592   YYYZ      43.3008
      XXZZ    -270.0881   XYZZ      10.1651   YYZZ    -102.7559
      XZZZ    -102.4431   YZZZ      61.3711   ZZZZ    -372.3686
 -----------------------------------------------------------------
 Calculating analytic gradient of the SCF energy
 Gradient of SCF Energy
            1           2           3           4           5           6
    1  -0.0300628  -0.0448581   0.0336353   0.0240233  -0.0030137   0.0648810
    2   0.0195162  -0.0891696   0.0627079  -0.0643300   0.0556078   0.0782001
    3  -0.0226721   0.0359054  -0.0164942  -0.0408564   0.0357211  -0.0049772
            7           8           9          10
    1  -0.0556621   0.0071941   0.0891069  -0.0852440
    2  -0.0032718  -0.0645710  -0.0153719   0.0206824
    3   0.0481719  -0.0333132   0.0628310  -0.0643163
 Max gradient component =       8.917E-02
 RMS gradient           =       4.974E-02
 Computing fast CPCM-ISWIG gradient
 Updating gradient with PCM contributions...
 -- total gradient after adding PCM contribution --
---------------------------------------------------
  Atom         X              Y              Z     
---------------------------------------------------
   1       0.000878       0.000145      -0.000686
   2      -0.000549      -0.000034       0.000493
   3      -0.000180      -0.000211       0.000071
   4      -0.000131       0.000111       0.000073
   5       0.000003      -0.000012       0.000017
   6       0.000019      -0.000027      -0.000002
   7      -0.000019      -0.000002       0.000017
   8      -0.000010       0.000012       0.000003
   9      -0.000006       0.000011       0.000012
  10      -0.000006       0.000007       0.000003
---------------------------------------------------
 Number of fixed atoms: 0
 Gradient time:  CPU 156.82 s  wall 11.76 s
 ----------------------------------------------------------------
             Standard Nuclear Orientation (Angstroms)
    I     Atom           X                Y                Z
 ----------------------------------------------------------------
    1      C      -0.4360414667    -0.7992623103     1.2242518464
    2      C       0.4509799725    -0.7483841465     0.2357998061
    3      H      -0.9104936550    -1.7318541510     1.5151211344
    4      H      -0.7089513935     0.1011241903     1.7675656307
    5      H       0.7238248300    -1.6496365401    -0.3096187860
    6      C       1.1456382896     0.5256500228    -0.2116607291
    7      O       1.9715339246     0.3942880529    -1.1543976811
    8      O       0.8597104265     1.5989337771     0.3752070657
    9      O      -2.5337859729     0.5776176854    -1.5870928101
   10      H      -1.8606358832     0.2435590433    -0.9850707274
 ----------------------------------------------------------------
 Nuclear Repulsion Energy =   201.9718518459 hartrees
 There are       24 alpha and       24 beta electrons
 Discretize the solute cavity surface with Lebedev spheres
	Using 110 Lebedev grid points for each H atom
	Using 110 Lebedev grid points for other atoms
	Atomic van der Waals radii will be scaled by 1.20
 Remove points where switching function is < 1.0e-08
 Keep 715 surface tesserae and discard 385 interior tesserae
 Molecular Surface Area = 146.981 Angst**2

                       Distance Matrix (Angstroms)
             C (  1)   C (  2)   H (  3)   H (  4)   H (  5)   C (  6)
   C (  2)  1.329072
   H (  3)  1.086019  2.111276
   H (  4)  1.086446  2.100812  1.861225
   H (  5)  2.102661  1.088201  2.451006  3.071271
   C (  6)  2.513752  1.518530  3.507959  2.745371  2.217971
   O (  7)  3.588726  2.355936  4.466866  3.976030  2.539302  1.260203
   O (  8)  2.855030  2.386712  3.940454  2.577362  3.322749  1.256227
   O (  9)  3.768287  3.740327  4.194338  3.848480  4.147846  3.928445
   H ( 10)  2.828083  2.796077  3.325054  2.987252  3.274120  3.116957
             O (  7)   O (  8)   O (  9)
   O (  8)  2.242100
   O (  9)  4.529762  4.050867
   H ( 10)  3.838869  3.329817  0.962890
 
 Requested basis set is def2-TZVPD
 There are 101 shells and 267 basis functions
 A cutoff of  1.0D-14 yielded   4885 shell pairs
 There are     34679 function pairs (     44657 Cartesian)
 Smallest overlap matrix eigenvalue = 6.47E-06
 Guess MOs from SCF MO coefficient file
 Reading MOs from coefficient file
 Reading MOs from coefficient file
 Long-range K will be added via erf
 Coulomb attenuation parameter = 0.3 bohr**(-1)
 A restricted hybrid HF-DFT SCF calculation will be
 performed using Pulay DIIS extrapolation
 Polarizable Continuum solvation model will be applied
 Exchange:     0.1670 Hartree-Fock + 1.0000 wB97X-V + LR-HF
 Correlation:  1.0000 wB97X-V
 Using SG-2 standard quadrature grid
 Nonlocal Correlation:  VV10 with C = 0.0100 and b = 6.00
 Grid used for NLC:  SG-1 standard quadrature
 SCF converges when DIIS error is below 1.0E-08
Using Q-Chem read-in guess as SCF_GUESS READ specified.

 using 16 threads for integral computing
 -------------------------------------------------------
 OpenMP Integral computing Module                
 Release: version 1.0, May 2013, Q-Chem Inc. Pittsburgh 
 -------------------------------------------------------
 using 16 threads for integral computing
 -------------------------------------------------------
 OpenMP Integral computing Module                
 Release: version 1.0, May 2013, Q-Chem Inc. Pittsburgh 
 -------------------------------------------------------
 -------------------------------------------------------
 OpenMP BLAS3 based DFT computing Module                
 Release: version 1.0, May 2013, Q-Chem Inc. Pittsburgh 
 -------------------------------------------------------
 -------------------------------------------------------
 OpenMP BLAS3 based DFT computing Module                
 Release: version 1.0, May 2013, Q-Chem Inc. Pittsburgh 
 -------------------------------------------------------
 -------------------------------------------------------
 OpenMP BLAS3 based DFT computing Module                
 Release: version 1.0, May 2013, Q-Chem Inc. Pittsburgh 
 -------------------------------------------------------
 ---------------------------------------
  Cycle       Energy         DIIS Error
 ---------------------------------------
    1    -342.3062810101      7.10E-04
    2    -342.6544460151      8.52E-04
    3    -342.6637261449      3.86E-04
    4    -342.6652323845      2.67E-04
    5    -342.6661604819      2.00E-04
    6    -342.6667043429      1.49E-04
    7    -342.6670792997      1.01E-04
    8    -342.6672819035      6.07E-05
    9    -342.6673716118      2.85E-05
   10    -342.6673945713      8.86E-06
   11    -342.6673968848      1.70E-06
   12    -342.6673969613      5.54E-07
   13    -342.6673969692      1.20E-07
   14    -342.6673969696      2.48E-08
   15    -342.6673969696      9.39E-09 Convergence criterion met
 ---------------------------------------

************** Final PCM Free Energy Summary **************
 G_electrostatic  =      -0.36186416 hartree =    -227.07318515 kcal/mol
 G_cavitation     =       0.00000000 hartree =       0.00000000 kcal/mol
 G_dispersion     =       0.00000000 hartree =       0.00000000 kcal/mol
 G_repulsion      =       0.00000000 hartree =       0.00000000 kcal/mol
 --------------------------------------------------
 Non-electrostatic Free Energy =       0.00000000 hartree =       0.00000000 kcal/mol
 Total                         =      -0.36186416 hartree =    -227.07318515 kcal/mol
 --------------------------------------------------
 SCF Energy (H0 + V/2)                       =    -342.66739697 
 Solute Internal Energy (H0)                 =    -342.30553281 
 Total Free Energy (H0 + V/2 + non-elec)     =    -342.66739697 hartree
                                             = -215027.03700135 kcal/mol
***********************************************************

 SCF time:  CPU 706.76 s  wall 50.39 s
 SCF   energy in the final basis set = -342.66739697
 Total energy in the final basis set = -342.66739697
 
 --------------------------------------------------------------
 
                    Orbital Energies (a.u.)
 --------------------------------------------------------------
 
 Alpha MOs
 -- Occupied --
-19.143 -19.142 -19.090 -10.346 -10.261 -10.259  -1.147  -1.053
 -0.963  -0.893  -0.720  -0.612  -0.563  -0.541  -0.510  -0.500
 -0.463  -0.447  -0.364  -0.350  -0.345  -0.335  -0.311  -0.310
 -- Virtual --
  0.063   0.065   0.086   0.091   0.102   0.121   0.125   0.134
  0.136   0.139   0.154   0.170   0.174   0.188   0.196   0.202
  0.212   0.235   0.251   0.256   0.265   0.278   0.289   0.292
  0.295   0.305   0.322   0.336   0.350   0.364   0.369   0.375
  0.386   0.391   0.405   0.413   0.426   0.432   0.434   0.447
  0.463   0.470   0.478   0.482   0.493   0.497   0.500   0.512
  0.514   0.516   0.539   0.544   0.554   0.561   0.565   0.567
  0.579   0.591   0.603   0.620   0.649   0.653   0.668   0.673
  0.675   0.688   0.710   0.716   0.720   0.742   0.749   0.760
  0.775   0.785   0.800   0.813   0.833   0.840   0.852   0.862
  0.886   0.907   0.918   0.943   0.965   0.967   0.996   1.008
  1.037   1.055   1.080   1.095   1.112   1.126   1.134   1.190
  1.239   1.273   1.297   1.312   1.317   1.339   1.368   1.432
  1.450   1.460   1.500   1.544   1.671   1.721   1.759   1.770
  1.838   1.865   1.869   1.877   1.908   1.916   1.927   1.933
  1.939   1.960   1.972   1.992   2.028   2.077   2.095   2.124
  2.147   2.171   2.190   2.240   2.267   2.287   2.354   2.391
  2.409   2.416   2.437   2.456   2.489   2.563   2.615   2.646
  2.693   2.699   2.729   2.754   2.817   2.857   2.889   2.894
  2.927   3.000   3.039   3.077   3.105   3.121   3.130   3.145
  3.183   3.217   3.224   3.273   3.295   3.316   3.341   3.375
  3.388   3.394   3.418   3.481   3.523   3.527   3.565   3.569
  3.591   3.615   3.624   3.672   3.687   3.729   3.764   3.772
  3.868   3.877   3.982   4.075   4.187   4.226   4.268   4.382
  4.509   4.538   4.734   4.764   4.846   4.911   4.969   5.017
  5.211   5.309   5.343   5.344   5.348   5.358   5.374   5.374
  5.381   5.500   5.672   5.680   5.704   5.746   5.785   6.039
  6.250   6.298   6.347   6.446   6.600   6.605   6.613   6.632
  6.686   6.713   6.722   6.730   6.754   6.952   6.969   7.032
  7.246   7.275   7.352   7.404   7.447  22.567  23.014  23.703
 43.936  44.283  44.381
 --------------------------------------------------------------
 
          Ground-State Mulliken Net Atomic Charges

     Atom                 Charge (a.u.)
  ----------------------------------------
      1 C                    -0.716762
      2 C                    -0.009333
      3 H                     0.250242
      4 H                     0.228438
      5 H                     0.289356
      6 C                     0.387797
      7 O                    -0.702940
      8 O                    -0.692094
      9 O                    -1.123446
     10 H                     0.088742
  ----------------------------------------
  Sum of atomic charges =    -2.000000

 -----------------------------------------------------------------
                    Cartesian Multipole Moments
 -----------------------------------------------------------------
    Charge (ESU x 10^10)
                -9.6064
    Dipole Moment (Debye)
         X       5.5144      Y      -9.4506      Z      11.0807
       Tot      15.5725
    Quadrupole Moments (Debye-Ang)
        XX     -90.5286     XY       1.8800     YY     -52.2205
        XZ     -16.3523     YZ       4.4655     ZZ     -60.6916
    Octopole Moments (Debye-Ang^2)
       XXX      64.0022    XXY     -39.7467    XYY      -5.2937
       YYY     -54.1084    XXZ      83.1296    XYZ      -9.0402
       YYZ      12.5784    XZZ      22.1786    YZZ     -20.7960
       ZZZ      63.3896
    Hexadecapole Moments (Debye-Ang^3)
      XXXX    -951.2589   XXXY      20.5918   XXYY    -176.4023
      XYYY     -24.7577   YYYY    -275.9132   XXXZ    -159.0533
      XXYZ      49.6583   XYYZ     -30.3530   YYYZ      43.2828
      XXZZ    -270.1050   XYZZ      10.1614   YYZZ    -102.7410
      XZZZ    -102.4128   YZZZ      61.3631   ZZZZ    -372.3469
 -----------------------------------------------------------------
 Calculating analytic gradient of the SCF energy
 Gradient of SCF Energy
            1           2           3           4           5           6
    1  -0.0313121  -0.0438273   0.0338727   0.0240524  -0.0029424   0.0647686
    2   0.0189635  -0.0888670   0.0632035  -0.0645768   0.0556109   0.0782061
    3  -0.0208738   0.0345622  -0.0166850  -0.0410529   0.0356752  -0.0049878
            7           8           9          10
    1  -0.0556624   0.0071937   0.0890913  -0.0852345
    2  -0.0032652  -0.0645829  -0.0153828   0.0206906
    3   0.0481711  -0.0333200   0.0628755  -0.0643645
 Max gradient component =       8.909E-02
 RMS gradient           =       4.969E-02
 Computing fast CPCM-ISWIG gradient
 Updating gradient with PCM contributions...
 -- total gradient after adding PCM contribution --
---------------------------------------------------
  Atom         X              Y              Z     
---------------------------------------------------
   1      -0.000858      -0.000145       0.000688
   2       0.000529       0.000022      -0.000485
   3       0.000195       0.000205      -0.000078
   4       0.000113      -0.000108      -0.000088
   5       0.000005      -0.000000      -0.000012
   6       0.000042      -0.000004      -0.000049
   7      -0.000014       0.000006       0.000013
   8      -0.000003       0.000006      -0.000006
   9      -0.000005       0.000010       0.000013
  10      -0.000005       0.000008       0.000004
---------------------------------------------------
 Number of fixed atoms: 0
 Gradient time:  CPU 152.15 s  wall 11.31 s
 ----------------------------------------------------------------
             Standard Nuclear Orientation (Angstroms)
    I     Atom           X                Y                Z
 ----------------------------------------------------------------
    1      C      -0.4350414667    -0.7982623103     1.2242518464
    2      C       0.4509799725    -0.7483841465     0.2357998061
    3      H      -0.9104936550    -1.7318541510     1.5151211344
    4      H      -0.7089513935     0.1011241903     1.7675656307
    5      H       0.7238248300    -1.6496365401    -0.3096187860
    6      C       1.1456382896     0.5256500228    -0.2116607291
    7      O       1.9715339246     0.3942880529    -1.1543976811
    8      O       0.8597104265     1.5989337771     0.3752070657
    9      O      -2.5337859729     0.5776176854    -1.5870928101
   10      H      -1.8606358832     0.2435590433    -0.9850707274
 ----------------------------------------------------------------
 Nuclear Repulsion Energy =   201.9867375799 hartrees
 There are       24 alpha and       24 beta electrons
 Discretize the solute cavity surface with Lebedev spheres
	Using 110 Lebedev grid points for each H atom
	Using 110 Lebedev grid points for other atoms
	Atomic van der Waals radii will be scaled by 1.20
 Remove points where switching function is < 1.0e-08
 Keep 715 surface tesserae and discard 385 interior tesserae
 Molecular Surface Area = 146.971 Angst**2

                       Distance Matrix (Angstroms)
             C (  1)   C (  2)   H (  3)   H (  4)   H (  5)   C (  6)
   C (  2)  1.328367
   H (  3)  1.087315  2.111276
   H (  4)  1.085870  2.100812  1.861225
   H (  5)  2.102515  1.088201  2.451006  3.071271
   C (  6)  2.512596  1.518530  3.507959  2.745371  2.217971
   O (  7)  3.587723  2.355936  4.466866  3.976030  2.539302  1.260203
   O (  8)  2.853736  2.386712  3.940454  2.577362  3.322749  1.256227
   O (  9)  3.768479  3.740327  4.194338  3.848480  4.147846  3.928445
   H ( 10)  2.828218  2.796077  3.325054  2.987252  3.274120  3.116957
             O (  7)   O (  8)   O (  9)
   O (  8)  2.242100
   O (  9)  4.529762  4.050867
   H ( 10)  3.838869  3.329817  0.962890
 
 Requested basis set is def2-TZVPD
 There are 101 shells and 267 basis functions
 A cutoff of  1.0D-14 yielded   4885 shell pairs
 There are     34679 function pairs (     44657 Cartesian)
 Smallest overlap matrix eigenvalue = 6.45E-06
 Guess MOs from SCF MO coefficient file
 Reading MOs from coefficient file
 Reading MOs from coefficient file
 Long-range K will be added via erf
 Coulomb attenuation parameter = 0.3 bohr**(-1)
 A restricted hybrid HF-DFT SCF calculation will be
 performed using Pulay DIIS extrapolation
 Polarizable Continuum solvation model will be applied
 Exchange:     0.1670 Hartree-Fock + 1.0000 wB97X-V + LR-HF
 Correlation:  1.0000 wB97X-V
 Using SG-2 standard quadrature grid
 Nonlocal Correlation:  VV10 with C = 0.0100 and b = 6.00
 Grid used for NLC:  SG-1 standard quadrature
 SCF converges when DIIS error is below 1.0E-08
Using Q-Chem read-in guess as SCF_GUESS READ specified.

 using 16 threads for integral computing
 -------------------------------------------------------
 OpenMP Integral computing Module                
 Release: version 1.0, May 2013, Q-Chem Inc. Pittsburgh 
 -------------------------------------------------------
 using 16 threads for integral computing
 -------------------------------------------------------
 OpenMP Integral computing Module                
 Release: version 1.0, May 2013, Q-Chem Inc. Pittsburgh 
 -------------------------------------------------------
 -------------------------------------------------------
 OpenMP BLAS3 based DFT computing Module                
 Release: version 1.0, May 2013, Q-Chem Inc. Pittsburgh 
 -------------------------------------------------------
 -------------------------------------------------------
 OpenMP BLAS3 based DFT computing Module                
 Release: version 1.0, May 2013, Q-Chem Inc. Pittsburgh 
 -------------------------------------------------------
 -------------------------------------------------------
 OpenMP BLAS3 based DFT computing Module                
 Release: version 1.0, May 2013, Q-Chem Inc. Pittsburgh 
 -------------------------------------------------------
 ---------------------------------------
  Cycle       Energy         DIIS Error
 ---------------------------------------
    1    -342.3051400498      7.11E-04
    2    -342.6543982542      8.54E-04
    3    -342.6637164813      3.86E-04
    4    -342.6652281877      2.68E-04
    5    -342.6661600061      2.00E-04
    6    -342.6666868168      1.51E-04
    7    -342.6670421526      1.07E-04
    8    -342.6672377939      7.14E-05
    9    -342.6673441395      4.11E-05
   10    -342.6673873152      1.74E-05
   11    -342.6673959501      4.78E-06
   12    -342.6673965644      1.62E-06
   13    -342.6673966370      4.20E-07
   14    -342.6673966420      8.36E-08
   15    -342.6673966422      3.61E-08
   16    -342.6673966422      3.32E-09 Convergence criterion met
 ---------------------------------------

************** Final PCM Free Energy Summary **************
 G_electrostatic  =      -0.36185863 hartree =    -227.06971487 kcal/mol
 G_cavitation     =       0.00000000 hartree =       0.00000000 kcal/mol
 G_dispersion     =       0.00000000 hartree =       0.00000000 kcal/mol
 G_repulsion      =       0.00000000 hartree =       0.00000000 kcal/mol
 --------------------------------------------------
 Non-electrostatic Free Energy =       0.00000000 hartree =       0.00000000 kcal/mol
 Total                         =      -0.36185863 hartree =    -227.06971487 kcal/mol
 --------------------------------------------------
 SCF Energy (H0 + V/2)                       =    -342.66739664 
 Solute Internal Energy (H0)                 =    -342.30553802 
 Total Free Energy (H0 + V/2 + non-elec)     =    -342.66739664 hartree
                                             = -215027.03679591 kcal/mol
***********************************************************

 SCF time:  CPU 752.98 s  wall 53.68 s
 SCF   energy in the final basis set = -342.66739664
 Total energy in the final basis set = -342.66739664
 
 --------------------------------------------------------------
 
                    Orbital Energies (a.u.)
 --------------------------------------------------------------
 
 Alpha MOs
 -- Occupied --
-19.143 -19.142 -19.090 -10.346 -10.261 -10.259  -1.147  -1.053
 -0.963  -0.893  -0.719  -0.612  -0.563  -0.541  -0.510  -0.500
 -0.463  -0.447  -0.364  -0.350  -0.345  -0.335  -0.311  -0.310
 -- Virtual --
  0.063   0.065   0.086   0.091   0.102   0.121   0.125   0.134
  0.136   0.139   0.154   0.170   0.174   0.188   0.196   0.202
  0.212   0.236   0.251   0.256   0.265   0.278   0.289   0.292
  0.295   0.305   0.322   0.336   0.350   0.364   0.369   0.375
  0.386   0.391   0.405   0.414   0.426   0.432   0.434   0.447
  0.463   0.470   0.478   0.483   0.493   0.497   0.500   0.512
  0.514   0.516   0.539   0.544   0.554   0.561   0.565   0.567
  0.579   0.591   0.603   0.620   0.649   0.653   0.668   0.673
  0.675   0.688   0.710   0.716   0.720   0.742   0.749   0.760
  0.775   0.785   0.800   0.813   0.833   0.840   0.852   0.862
  0.886   0.907   0.918   0.943   0.965   0.967   0.996   1.008
  1.036   1.055   1.080   1.095   1.112   1.126   1.134   1.190
  1.239   1.273   1.297   1.312   1.317   1.339   1.368   1.432
  1.450   1.460   1.500   1.544   1.671   1.721   1.759   1.770
  1.838   1.865   1.869   1.877   1.908   1.916   1.927   1.933
  1.939   1.960   1.972   1.992   2.028   2.077   2.095   2.124
  2.147   2.171   2.190   2.240   2.267   2.287   2.354   2.391
  2.409   2.416   2.437   2.456   2.489   2.563   2.615   2.646
  2.693   2.699   2.728   2.753   2.818   2.857   2.889   2.894
  2.927   2.999   3.039   3.077   3.105   3.121   3.130   3.145
  3.183   3.217   3.224   3.272   3.295   3.316   3.342   3.375
  3.388   3.394   3.418   3.481   3.523   3.527   3.565   3.569
  3.591   3.615   3.624   3.672   3.687   3.729   3.764   3.772
  3.868   3.877   3.982   4.075   4.188   4.227   4.268   4.383
  4.509   4.539   4.734   4.764   4.847   4.912   4.970   5.017
  5.211   5.309   5.343   5.344   5.348   5.358   5.374   5.374
  5.381   5.500   5.672   5.680   5.704   5.746   5.785   6.039
  6.250   6.298   6.347   6.446   6.600   6.605   6.613   6.632
  6.686   6.713   6.722   6.730   6.754   6.952   6.969   7.032
  7.246   7.275   7.352   7.404   7.447  22.566  23.016  23.703
 43.936  44.283  44.381
 --------------------------------------------------------------
 
          Ground-State Mulliken Net Atomic Charges

     Atom                 Charge (a.u.)
  ----------------------------------------
      1 C                    -0.716472
      2 C                    -0.009214
      3 H                     0.249350
      4 H                     0.228966
      5 H                     0.289321
      6 C                     0.387847
      7 O                    -0.703019
      8 O                    -0.692124
      9 O                    -1.123430
     10 H                     0.088776
  ----------------------------------------
  Sum of atomic charges =    -2.000000

 -----------------------------------------------------------------
                    Cartesian Multipole Moments
 -----------------------------------------------------------------
    Charge (ESU x 10^10)
                -9.6064
    Dipole Moment (Debye)
         X       5.5133      Y      -9.4502      Z      11.0806
       Tot      15.5718
    Quadrupole Moments (Debye-Ang)
        XX     -90.5284     XY       1.8760     YY     -52.2241
        XZ     -16.3510     YZ       4.4699     ZZ     -60.6911
    Octopole Moments (Debye-Ang^2)
       XXX      63.9787    XXY     -39.7517    XYY      -5.2950
       YYY     -54.1186    XXZ      83.1320    XYZ      -9.0439
       YYZ      12.5694    XZZ      22.1710    YZZ     -20.7947
       ZZZ      63.3917
    Hexadecapole Moments (Debye-Ang^3)
      XXXX    -951.2374   XXXY      20.5961   XXYY    -176.3960
      XYYY     -24.7583   YYYY    -275.8956   XXXZ    -159.0638
      XXYZ      49.6593   XYYZ     -30.3500   YYYZ      43.2878
      XXZZ    -270.0998   XYZZ      10.1561   YYZZ    -102.7509
      XZZZ    -102.4264   YZZZ      61.3656   ZZZZ    -372.3429
 -----------------------------------------------------------------
 Calculating analytic gradient of the SCF energy
 Gradient of SCF Energy
            1           2           3           4           5           6
    1  -0.0305828  -0.0442694   0.0334738   0.0241867  -0.0029759   0.0647854
    2   0.0201943  -0.0890930   0.0624866  -0.0648933   0.0556096   0.0782364
    3  -0.0216863   0.0353398  -0.0164727  -0.0412733   0.0356831  -0.0049612
            7           8           9          10
    1  -0.0556654   0.0071901   0.0890962  -0.0852386
    2  -0.0032759  -0.0645723  -0.0153730   0.0206805
    3   0.0481739  -0.0333133   0.0628546  -0.0643447
 Max gradient component =       8.910E-02
 RMS gradient           =       4.973E-02
 Computing fast CPCM-ISWIG gradient
 Updating gradient with PCM contributions...
 -- total gradient after adding PCM contribution --
---------------------------------------------------
  Atom         X              Y              Z     
---------------------------------------------------
   1       0.000152       0.001195       0.000094
   2      -0.000046      -0.000227       0.000014
   3      -0.000193      -0.000512       0.000108
   4       0.000094      -0.000476      -0.000228
   5       0.000039       0.000004      -0.000038
   6       0.000008       0.000006       0.000003
   7      -0.000033      -0.000008       0.000030
   8      -0.000011       0.000001       0.000001
   9      -0.000005       0.000010       0.000012
  10      -0.000005       0.000007       0.000004
---------------------------------------------------
 Number of fixed atoms: 0
 Gradient time:  CPU 153.30 s  wall 11.43 s
 ----------------------------------------------------------------
             Standard Nuclear Orientation (Angstroms)
    I     Atom           X                Y                Z
 ----------------------------------------------------------------
    1      C      -0.4350414667    -0.8002623103     1.2242518464
    2      C       0.4509799725    -0.7483841465     0.2357998061
    3      H      -0.9104936550    -1.7318541510     1.5151211344
    4      H      -0.7089513935     0.1011241903     1.7675656307
    5      H       0.7238248300    -1.6496365401    -0.3096187860
    6      C       1.1456382896     0.5256500228    -0.2116607291
    7      O       1.9715339246     0.3942880529    -1.1543976811
    8      O       0.8597104265     1.5989337771     0.3752070657
    9      O      -2.5337859729     0.5776176854    -1.5870928101
   10      H      -1.8606358832     0.2435590433    -0.9850707274
 ----------------------------------------------------------------
 Nuclear Repulsion Energy =   201.9753246144 hartrees
 There are       24 alpha and       24 beta electrons
 Discretize the solute cavity surface with Lebedev spheres
	Using 110 Lebedev grid points for each H atom
	Using 110 Lebedev grid points for other atoms
	Atomic van der Waals radii will be scaled by 1.20
 Remove points where switching function is < 1.0e-08
 Keep 715 surface tesserae and discard 385 interior tesserae
 Molecular Surface Area = 146.979 Angst**2

                       Distance Matrix (Angstroms)
             C (  1)   C (  2)   H (  3)   H (  4)   H (  5)   C (  6)
   C (  2)  1.328444
   H (  3)  1.085598  2.111276
   H (  4)  1.087527  2.100812  1.861225
   H (  5)  2.101706  1.088201  2.451006  3.071271
   C (  6)  2.513650  1.518530  3.507959  2.745371  2.217971
   O (  7)  3.588388  2.355936  4.466866  3.976030  2.539302  1.260203
   O (  8)  2.855416  2.386712  3.940454  2.577362  3.322749  1.256227
   O (  9)  3.769210  3.740327  4.194338  3.848480  4.147846  3.928445
   H ( 10)  2.828955  2.796077  3.325054  2.987252  3.274120  3.116957
             O (  7)   O (  8)   O (  9)
   O (  8)  2.242100
   O (  9)  4.529762  4.050867
   H ( 10)  3.838869  3.329817  0.962890
 
 Requested basis set is def2-TZVPD
 There are 101 shells and 267 basis functions
 A cutoff of  1.0D-14 yielded   4885 shell pairs
 There are     34679 function pairs (     44657 Cartesian)
 Smallest overlap matrix eigenvalue = 6.44E-06
 Guess MOs from SCF MO coefficient file
 Reading MOs from coefficient file
 Reading MOs from coefficient file
 Long-range K will be added via erf
 Coulomb attenuation parameter = 0.3 bohr**(-1)
 A restricted hybrid HF-DFT SCF calculation will be
 performed using Pulay DIIS extrapolation
 Polarizable Continuum solvation model will be applied
 Exchange:     0.1670 Hartree-Fock + 1.0000 wB97X-V + LR-HF
 Correlation:  1.0000 wB97X-V
 Using SG-2 standard quadrature grid
 Nonlocal Correlation:  VV10 with C = 0.0100 and b = 6.00
 Grid used for NLC:  SG-1 standard quadrature
 SCF converges when DIIS error is below 1.0E-08
Using Q-Chem read-in guess as SCF_GUESS READ specified.

 using 16 threads for integral computing
 -------------------------------------------------------
 OpenMP Integral computing Module                
 Release: version 1.0, May 2013, Q-Chem Inc. Pittsburgh 
 -------------------------------------------------------
 using 16 threads for integral computing
 -------------------------------------------------------
 OpenMP Integral computing Module                
 Release: version 1.0, May 2013, Q-Chem Inc. Pittsburgh 
 -------------------------------------------------------
 -------------------------------------------------------
 OpenMP BLAS3 based DFT computing Module                
 Release: version 1.0, May 2013, Q-Chem Inc. Pittsburgh 
 -------------------------------------------------------
 -------------------------------------------------------
 OpenMP BLAS3 based DFT computing Module                
 Release: version 1.0, May 2013, Q-Chem Inc. Pittsburgh 
 -------------------------------------------------------
 -------------------------------------------------------
 OpenMP BLAS3 based DFT computing Module                
 Release: version 1.0, May 2013, Q-Chem Inc. Pittsburgh 
 -------------------------------------------------------
 ---------------------------------------
  Cycle       Energy         DIIS Error
 ---------------------------------------
    1    -342.3055981799      7.09E-04
    2    -342.6544606989      8.52E-04
    3    -342.6637292317      3.85E-04
    4    -342.6652339072      2.67E-04
    5    -342.6661587128      2.00E-04
    6    -342.6666953922      1.50E-04
    7    -342.6670683835      1.02E-04
    8    -342.6672714133      6.33E-05
    9    -342.6673653869      3.17E-05
   10    -342.6673931147      1.07E-05
   11    -342.6673965000      2.19E-06
   12    -342.6673966283      7.27E-07
   13    -342.6673966422      1.88E-07
   14    -342.6673966432      3.18E-08
   15    -342.6673966432      1.32E-08
   16    -342.6673966432      1.93E-09 Convergence criterion met
 ---------------------------------------

************** Final PCM Free Energy Summary **************
 G_electrostatic  =      -0.36185408 hartree =    -227.06686386 kcal/mol
 G_cavitation     =       0.00000000 hartree =       0.00000000 kcal/mol
 G_dispersion     =       0.00000000 hartree =       0.00000000 kcal/mol
 G_repulsion      =       0.00000000 hartree =       0.00000000 kcal/mol
 --------------------------------------------------
 Non-electrostatic Free Energy =       0.00000000 hartree =       0.00000000 kcal/mol
 Total                         =      -0.36185408 hartree =    -227.06686386 kcal/mol
 --------------------------------------------------
 SCF Energy (H0 + V/2)                       =    -342.66739664 
 Solute Internal Energy (H0)                 =    -342.30554256 
 Total Free Energy (H0 + V/2 + non-elec)     =    -342.66739664 hartree
                                             = -215027.03679654 kcal/mol
***********************************************************

 SCF time:  CPU 754.59 s  wall 53.75 s
 SCF   energy in the final basis set = -342.66739664
 Total energy in the final basis set = -342.66739664
 
 --------------------------------------------------------------
 
                    Orbital Energies (a.u.)
 --------------------------------------------------------------
 
 Alpha MOs
 -- Occupied --
-19.144 -19.142 -19.090 -10.346 -10.261 -10.259  -1.147  -1.053
 -0.963  -0.893  -0.720  -0.612  -0.563  -0.541  -0.510  -0.500
 -0.463  -0.447  -0.364  -0.350  -0.345  -0.335  -0.311  -0.310
 -- Virtual --
  0.063   0.065   0.086   0.091   0.102   0.121   0.125   0.134
  0.136   0.139   0.154   0.170   0.174   0.188   0.196   0.202
  0.212   0.235   0.251   0.256   0.265   0.278   0.289   0.292
  0.295   0.305   0.322   0.336   0.350   0.363   0.369   0.375
  0.386   0.390   0.405   0.414   0.426   0.432   0.434   0.447
  0.463   0.470   0.478   0.482   0.493   0.497   0.500   0.512
  0.514   0.516   0.539   0.544   0.554   0.561   0.565   0.567
  0.579   0.591   0.603   0.620   0.649   0.653   0.668   0.673
  0.675   0.687   0.710   0.716   0.720   0.742   0.749   0.760
  0.775   0.785   0.800   0.813   0.833   0.840   0.852   0.862
  0.886   0.907   0.918   0.943   0.965   0.967   0.996   1.009
  1.037   1.055   1.080   1.095   1.112   1.126   1.134   1.190
  1.239   1.273   1.297   1.312   1.318   1.339   1.368   1.432
  1.450   1.460   1.500   1.544   1.671   1.721   1.759   1.770
  1.838   1.865   1.869   1.878   1.908   1.916   1.927   1.933
  1.939   1.961   1.973   1.992   2.028   2.078   2.095   2.124
  2.147   2.171   2.190   2.240   2.267   2.287   2.354   2.391
  2.409   2.416   2.437   2.456   2.489   2.563   2.615   2.646
  2.692   2.699   2.729   2.753   2.817   2.857   2.889   2.895
  2.927   2.999   3.039   3.077   3.105   3.121   3.130   3.145
  3.183   3.217   3.224   3.273   3.295   3.316   3.341   3.375
  3.388   3.394   3.418   3.481   3.523   3.526   3.565   3.569
  3.591   3.615   3.624   3.672   3.687   3.729   3.764   3.772
  3.868   3.877   3.982   4.075   4.187   4.227   4.269   4.382
  4.509   4.539   4.734   4.765   4.846   4.911   4.970   5.017
  5.212   5.309   5.343   5.344   5.348   5.358   5.374   5.374
  5.381   5.500   5.672   5.680   5.704   5.746   5.785   6.039
  6.250   6.298   6.347   6.446   6.600   6.605   6.613   6.632
  6.686   6.713   6.722   6.730   6.754   6.952   6.969   7.032
  7.246   7.275   7.352   7.404   7.447  22.566  23.016  23.703
 43.936  44.283  44.381
 --------------------------------------------------------------
 
          Ground-State Mulliken Net Atomic Charges

     Atom                 Charge (a.u.)
  ----------------------------------------
      1 C                    -0.716200
      2 C                    -0.009860
      3 H                     0.250818
      4 H                     0.227526
      5 H                     0.289224
      6 C                     0.388131
      7 O                    -0.702924
      8 O                    -0.692061
      9 O                    -1.123425
     10 H                     0.088771
  ----------------------------------------
  Sum of atomic charges =    -2.000000

 -----------------------------------------------------------------
                    Cartesian Multipole Moments
 -----------------------------------------------------------------
    Charge (ESU x 10^10)
                -9.6064
    Dipole Moment (Debye)
         X       5.5133      Y      -9.4506      Z      11.0794
       Tot      15.5712
    Quadrupole Moments (Debye-Ang)
        XX     -90.5249     XY       1.8835     YY     -52.2199
        XZ     -16.3523     YZ       4.4629     ZZ     -60.6937
    Octopole Moments (Debye-Ang^2)
       XXX      63.9815    XXY     -39.7435    XYY      -5.3029
       YYY     -54.0910    XXZ      83.1293    XYZ      -9.0376
       YYZ      12.5798    XZZ      22.1728    YZZ     -20.7948
       ZZZ      63.3785
    Hexadecapole Moments (Debye-Ang^3)
      XXXX    -951.2041   XXXY      20.6096   XXYY    -176.3975
      XYYY     -24.7404   YYYY    -275.9595   XXXZ    -159.0748
      XXYZ      49.6567   XYYZ     -30.3621   YYYZ      43.2957
      XXZZ    -270.0933   XYZZ      10.1704   YYZZ    -102.7459
      XZZZ    -102.4295   YZZZ      61.3686   ZZZZ    -372.3725
 -----------------------------------------------------------------
 Calculating analytic gradient of the SCF energy
 Gradient of SCF Energy
            1           2           3           4           5           6
    1  -0.0307954  -0.0444161   0.0340362   0.0238905  -0.0029802   0.0648644
    2   0.0182849  -0.0889427   0.0634259  -0.0640149   0.0556092   0.0781698
    3  -0.0218532   0.0351237  -0.0167069  -0.0406375   0.0357131  -0.0050041
            7           8           9          10
    1  -0.0556592   0.0071977   0.0891022  -0.0852401
    2  -0.0032612  -0.0645817  -0.0153818   0.0206927
    3   0.0481692  -0.0333200   0.0628521  -0.0643364
 Max gradient component =       8.910E-02
 RMS gradient           =       4.970E-02
 Computing fast CPCM-ISWIG gradient
 Updating gradient with PCM contributions...
 -- total gradient after adding PCM contribution --
---------------------------------------------------
  Atom         X              Y              Z     
---------------------------------------------------
   1      -0.000137      -0.001195      -0.000086
   2       0.000028       0.000215      -0.000008
   3       0.000210       0.000508      -0.000116
   4      -0.000111       0.000476       0.000212
   5      -0.000031      -0.000016       0.000043
   6       0.000054      -0.000036      -0.000055
   7      -0.000001       0.000012      -0.000000
   8      -0.000002       0.000017      -0.000005
   9      -0.000005       0.000010       0.000012
  10      -0.000006       0.000008       0.000003
---------------------------------------------------
 Number of fixed atoms: 0
 Gradient time:  CPU 153.45 s  wall 11.47 s
 ----------------------------------------------------------------
             Standard Nuclear Orientation (Angstroms)
    I     Atom           X                Y                Z
 ----------------------------------------------------------------
    1      C      -0.4350414667    -0.7992623103     1.2252518464
    2      C       0.4509799725    -0.7483841465     0.2357998061
    3      H      -0.9104936550    -1.7318541510     1.5151211344
    4      H      -0.7089513935     0.1011241903     1.7675656307
    5      H       0.7238248300    -1.6496365401    -0.3096187860
    6      C       1.1456382896     0.5256500228    -0.2116607291
    7      O       1.9715339246     0.3942880529    -1.1543976811
    8      O       0.8597104265     1.5989337771     0.3752070657
    9      O      -2.5337859729     0.5776176854    -1.5870928101
   10      H      -1.8606358832     0.2435590433    -0.9850707274
 ----------------------------------------------------------------
 Nuclear Repulsion Energy =   201.9689385299 hartrees
 There are       24 alpha and       24 beta electrons
 Discretize the solute cavity surface with Lebedev spheres
	Using 110 Lebedev grid points for each H atom
	Using 110 Lebedev grid points for other atoms
	Atomic van der Waals radii will be scaled by 1.20
 Remove points where switching function is < 1.0e-08
 Keep 715 surface tesserae and discard 385 interior tesserae
 Molecular Surface Area = 146.982 Angst**2

                       Distance Matrix (Angstroms)
             C (  1)   C (  2)   H (  3)   H (  4)   H (  5)   C (  6)
   C (  2)  1.329149
   H (  3)  1.086189  2.111276
   H (  4)  1.086198  2.100812  1.861225
   H (  5)  2.102840  1.088201  2.451006  3.071271
   C (  6)  2.513694  1.518530  3.507959  2.745371  2.217971
   O (  7)  3.588718  2.355936  4.466866  3.976030  2.539302  1.260203
   O (  8)  2.854874  2.386712  3.940454  2.577362  3.322749  1.256227
   O (  9)  3.769590  3.740327  4.194338  3.848480  4.147846  3.928445
   H ( 10)  2.829368  2.796077  3.325054  2.987252  3.274120  3.116957
             O (  7)   O (  8)   O (  9)
   O (  8)  2.242100
   O (  9)  4.529762  4.050867
   H ( 10)  3.838869  3.329817  0.962890
 
 Requested basis set is def2-TZVPD
 There are 101 shells and 267 basis functions
 A cutoff of  1.0D-14 yielded   4885 shell pairs
 There are     34679 function pairs (     44657 Cartesian)
 Smallest overlap matrix eigenvalue = 6.48E-06
 Guess MOs from SCF MO coefficient file
 Reading MOs from coefficient file
 Reading MOs from coefficient file
 Long-range K will be added via erf
 Coulomb attenuation parameter = 0.3 bohr**(-1)
 A restricted hybrid HF-DFT SCF calculation will be
 performed using Pulay DIIS extrapolation
 Polarizable Continuum solvation model will be applied
 Exchange:     0.1670 Hartree-Fock + 1.0000 wB97X-V + LR-HF
 Correlation:  1.0000 wB97X-V
 Using SG-2 standard quadrature grid
 Nonlocal Correlation:  VV10 with C = 0.0100 and b = 6.00
 Grid used for NLC:  SG-1 standard quadrature
 SCF converges when DIIS error is below 1.0E-08
Using Q-Chem read-in guess as SCF_GUESS READ specified.

 using 16 threads for integral computing
 -------------------------------------------------------
 OpenMP Integral computing Module                
 Release: version 1.0, May 2013, Q-Chem Inc. Pittsburgh 
 -------------------------------------------------------
 using 16 threads for integral computing
 -------------------------------------------------------
 OpenMP Integral computing Module                
 Release: version 1.0, May 2013, Q-Chem Inc. Pittsburgh 
 -------------------------------------------------------
 -------------------------------------------------------
 OpenMP BLAS3 based DFT computing Module                
 Release: version 1.0, May 2013, Q-Chem Inc. Pittsburgh 
 -------------------------------------------------------
 -------------------------------------------------------
 OpenMP BLAS3 based DFT computing Module                
 Release: version 1.0, May 2013, Q-Chem Inc. Pittsburgh 
 -------------------------------------------------------
 -------------------------------------------------------
 OpenMP BLAS3 based DFT computing Module                
 Release: version 1.0, May 2013, Q-Chem Inc. Pittsburgh 
 -------------------------------------------------------
 ---------------------------------------
  Cycle       Energy         DIIS Error
 ---------------------------------------
    1    -342.3058945420      7.10E-04
    2    -342.6544131924      8.54E-04
    3    -342.6637176197      3.86E-04
    4    -342.6652272372      2.68E-04
    5    -342.6661550882      2.01E-04
    6    -342.6666811933      1.52E-04
    7    -342.6670353262      1.08E-04
    8    -342.6672301544      7.31E-05
    9    -342.6673390942      4.31E-05
   10    -342.6673857683      1.89E-05
   11    -342.6673959301      5.35E-06
   12    -342.6673967048      1.77E-06
   13    -342.6673967923      4.46E-07
   14    -342.6673967980      9.77E-08
   15    -342.6673967982      3.15E-08
   16    -342.6673967983      5.21E-09 Convergence criterion met
 ---------------------------------------

************** Final PCM Free Energy Summary **************
 G_electrostatic  =      -0.36185228 hartree =    -227.06573176 kcal/mol
 G_cavitation     =       0.00000000 hartree =       0.00000000 kcal/mol
 G_dispersion     =       0.00000000 hartree =       0.00000000 kcal/mol
 G_repulsion      =       0.00000000 hartree =       0.00000000 kcal/mol
 --------------------------------------------------
 Non-electrostatic Free Energy =       0.00000000 hartree =       0.00000000 kcal/mol
 Total                         =      -0.36185228 hartree =    -227.06573176 kcal/mol
 --------------------------------------------------
 SCF Energy (H0 + V/2)                       =    -342.66739680 
 Solute Internal Energy (H0)                 =    -342.30554452 
 Total Free Energy (H0 + V/2 + non-elec)     =    -342.66739680 hartree
                                             = -215027.03689382 kcal/mol
***********************************************************

 SCF time:  CPU 756.85 s  wall 53.65 s
 SCF   energy in the final basis set = -342.66739680
 Total energy in the final basis set = -342.66739680
 
 --------------------------------------------------------------
 
                    Orbital Energies (a.u.)
 --------------------------------------------------------------
 
 Alpha MOs
 -- Occupied --
-19.143 -19.142 -19.090 -10.346 -10.261 -10.259  -1.147  -1.053
 -0.963  -0.893  -0.720  -0.612  -0.563  -0.541  -0.510  -0.500
 -0.463  -0.447  -0.364  -0.350  -0.345  -0.335  -0.311  -0.310
 -- Virtual --
  0.063   0.065   0.086   0.091   0.102   0.121   0.125   0.134
  0.136   0.139   0.154   0.170   0.174   0.188   0.196   0.202
  0.212   0.235   0.251   0.256   0.265   0.278   0.289   0.292
  0.295   0.305   0.322   0.336   0.350   0.364   0.369   0.375
  0.386   0.391   0.405   0.413   0.426   0.432   0.434   0.447
  0.463   0.470   0.478   0.482   0.493   0.497   0.500   0.512
  0.514   0.516   0.539   0.544   0.554   0.561   0.565   0.567
  0.579   0.591   0.603   0.620   0.649   0.653   0.668   0.673
  0.675   0.688   0.710   0.716   0.720   0.742   0.749   0.760
  0.775   0.785   0.800   0.813   0.833   0.840   0.852   0.862
  0.886   0.907   0.918   0.943   0.965   0.967   0.996   1.009
  1.036   1.054   1.080   1.095   1.112   1.126   1.134   1.190
  1.239   1.273   1.297   1.312   1.318   1.339   1.368   1.432
  1.450   1.460   1.500   1.544   1.671   1.721   1.759   1.770
  1.838   1.865   1.869   1.877   1.908   1.916   1.927   1.933
  1.939   1.960   1.972   1.992   2.028   2.077   2.095   2.124
  2.147   2.171   2.190   2.240   2.267   2.287   2.354   2.391
  2.409   2.416   2.437   2.456   2.489   2.563   2.615   2.646
  2.693   2.699   2.729   2.753   2.818   2.857   2.889   2.894
  2.927   2.999   3.039   3.077   3.104   3.121   3.130   3.145
  3.183   3.217   3.225   3.273   3.295   3.316   3.342   3.375
  3.388   3.394   3.418   3.481   3.523   3.527   3.565   3.569
  3.591   3.615   3.624   3.672   3.687   3.729   3.764   3.772
  3.868   3.877   3.982   4.075   4.187   4.226   4.268   4.382
  4.509   4.538   4.734   4.764   4.846   4.911   4.969   5.017
  5.211   5.309   5.343   5.344   5.348   5.358   5.374   5.374
  5.381   5.500   5.672   5.680   5.704   5.746   5.785   6.039
  6.250   6.298   6.347   6.446   6.600   6.605   6.613   6.632
  6.686   6.713   6.722   6.730   6.754   6.952   6.969   7.032
  7.246   7.275   7.352   7.404   7.447  22.567  23.014  23.703
 43.936  44.283  44.381
 --------------------------------------------------------------
 
          Ground-State Mulliken Net Atomic Charges

     Atom                 Charge (a.u.)
  ----------------------------------------
      1 C                    -0.716719
      2 C                    -0.009634
      3 H                     0.250276
      4 H                     0.228638
      5 H                     0.289361
      6 C                     0.387839
      7 O                    -0.702952
      8 O                    -0.692112
      9 O                    -1.123471
     10 H                     0.088774
  ----------------------------------------
  Sum of atomic charges =    -2.000000

 -----------------------------------------------------------------
                    Cartesian Multipole Moments
 -----------------------------------------------------------------
    Charge (ESU x 10^10)
                -9.6064
    Dipole Moment (Debye)
         X       5.5126      Y      -9.4500      Z      11.0791
       Tot      15.5704
    Quadrupole Moments (Debye-Ang)
        XX     -90.5270     XY       1.8803     YY     -52.2215
        XZ     -16.3535     YZ       4.4683     ZZ     -60.6952
    Octopole Moments (Debye-Ang^2)
       XXX      63.9771    XXY     -39.7466    XYY      -5.3015
       YYY     -54.1055    XXZ      83.1240    XYZ      -9.0397
       YYZ      12.5679    XZZ      22.1699    YZZ     -20.7898
       ZZZ      63.3612
    Hexadecapole Moments (Debye-Ang^3)
      XXXX    -951.2198   XXXY      20.6057   XXYY    -176.3955
      XYYY     -24.7440   YYYY    -275.9222   XXXZ    -159.0687
      XXYZ      49.6644   XYYZ     -30.3579   YYYZ      43.3075
      XXZZ    -270.1115   XYZZ      10.1640   YYZZ    -102.7659
      XZZZ    -102.4259   YZZZ      61.3924   ZZZZ    -372.4561
 -----------------------------------------------------------------
 Calculating analytic gradient of the SCF energy
 Gradient of SCF Energy
            1           2           3           4           5           6
    1  -0.0316699  -0.0436512   0.0338527   0.0241426  -0.0028941   0.0648243
    2   0.0193050  -0.0889364   0.0630863  -0.0647280   0.0555992   0.0782240
    3  -0.0211072   0.0346243  -0.0165837  -0.0411040   0.0356968  -0.0049044
            7           8           9          10
    1  -0.0556611   0.0071899   0.0891065  -0.0852399
    2  -0.0032663  -0.0645848  -0.0153795   0.0206806
    3   0.0481722  -0.0333153   0.0628472  -0.0643259
 Max gradient component =       8.911E-02
 RMS gradient           =       4.971E-02
 Computing fast CPCM-ISWIG gradient
 Updating gradient with PCM contributions...
 -- total gradient after adding PCM contribution --
---------------------------------------------------
  Atom         X              Y              Z     
---------------------------------------------------
   1      -0.000676       0.000091       0.001028
   2       0.000476      -0.000005      -0.000647
[...]
    Atom      X          Y          Z
     1   -1.984467436393381e-04   5.866857628547859e-05   1.730690686389050e-04
     2    2.827049804601893e-04  -6.106190228892929e-05  -3.625047433357860e-04
     3   -1.669712440383908e-06   2.529623478446248e-05  -2.197360674360451e-05
     4    7.743533924504834e-07  -2.179323387534051e-05  -1.159823308553802e-05
     5   -1.816575071349545e-05   2.535186697084673e-05   1.613548973019170e-05
     6    4.007226560942305e-04   1.399364264566628e-04  -1.213731867001698e-04
     7   -2.346210557645316e-04  -6.828523468923121e-05   1.276137023412962e-04
     8   -3.969251141820141e-04  -6.682109999478410e-05  -1.427248378312087e-04
     9    2.593238461879450e-01  -1.283900154086114e-01   2.311604150080420e-01
    10   -2.590983141884057e-01   1.284187706513725e-01  -2.307733083438027e-01

Order 1, Length 30
    Atom      X          Y          Z
     1    3.378689891852050e-04   4.689646093721553e-05  -5.844697181178189e-05
     2   -8.109254430602712e-05   3.677875129165598e-05   3.295586289193450e-04
     3   -2.890601329920513e-05   1.390035222983609e-05  -2.965332318094458e-05
     4   -1.246109890393003e-05   7.424351522673343e-06   2.560712884888915e-05
     5   -2.228588296401310e-05   1.678152897564019e-05  -2.740633010423500e-05
     6   -1.103112829420777e-04  -4.136296319318728e-04  -1.285641244122829e-04
     7    7.657469691217965e-05   9.965483490136349e-05   3.294963323191981e-05
     8   -1.847872125926424e-04   2.593152726758465e-04  -6.584085977630073e-05
     9   -1.283900154086114e-01   6.545150326539116e-02  -1.142240918629475e-01
    10    1.283980322080360e-01  -6.553542765234260e-02   1.141330066451068e-01

Order 1, Length 30
    Atom      X          Y          Z
     1   -2.805031465165103e-04  -5.633710418382536e-06   2.258429486316301e-04
     2    1.216193179390719e-04   2.015943205531857e-05  -1.208450089330623e-04
     3    1.288912938520167e-05   1.480949186016694e-05  -1.041006868433867e-05
     4    2.609266464454444e-05   3.100065229226740e-05   3.941402180793296e-05
     5   -2.667684972100704e-05   3.308426266410098e-05  -1.504016964872226e-06
     6    3.226878753221732e-04   2.615474606516530e-04  -2.269066628294644e-04
     7   -2.259030873170591e-04  -9.800546768776441e-05   1.926317442781486e-04
     8   -2.237414728424281e-04  -1.524717455260778e-04  -4.766207968603618e-05
     9    2.311604150080420e-01  -1.142240918629475e-01   2.076768379242284e-01
    10   -2.308376011572068e-01   1.141693184869506e-01  -2.076909216101717e-01


    10 Order 1, Length 30
    Atom      X          Y          Z
     1   -2.216659156456936e-04   6.358126214421734e-05  -6.038771947740481e-04
     2   -9.913351383551471e-04   4.448786836056946e-04  -5.629742358237151e-05
     3    4.003848461216764e-05  -4.110363796283489e-05   7.704055108020014e-05
     4    2.311574534270569e-05   2.574045824465123e-06   6.188076433744219e-05
     5    6.150961415365405e-05  -2.949670152265395e-05   1.582960640840979e-05
     6   -7.113493335406803e-04  -4.236225190074918e-04   1.309088849357091e-04
     7    2.803380817897417e-04   1.369630451836007e-04  -1.789276309667860e-04
     8    2.850190814748499e-04   2.401364879051992e-04   3.590814082581147e-06
     9   -2.590983141884057e-01   1.283980322080360e-01  -2.308376011572068e-01
    10    2.602670425895655e-01  -1.288578272659243e-01   2.313395787530722e-01

Order 1, Length 30
    Atom      X          Y          Z
     1   -2.383598088841693e-04  -1.819219766900710e-04   3.510497519942649e-04
     2    4.927012625000153e-04  -1.904390242062021e-04  -1.850600308812231e-04
     3    1.986072897759393e-05  -3.540973825145827e-05   2.500558120121162e-05
     4    5.567845955062820e-06  -2.299051481866497e-05  -5.157005233739009e-05
     5    1.131573427726316e-05  -3.826372544595822e-05   1.669837361283780e-05
     6    1.374691604501409e-04   4.983951819850568e-04   8.224972284876672e-05
     7   -9.533106928317489e-05  -1.286467748286024e-04   1.818411073083774e-05
     8    1.266594122538420e-04  -3.299475922119266e-04   2.554132121678319e-05
     9    1.284187706513725e-01  -6.553542765234260e-02   1.141693184869506e-01
    10   -1.288578272659243e-01   6.598501137787095e-02  -1.144360188430634e-01

Order 1, Length 30
    Atom      X          Y          Z
     1   -1.210902115650965e-04   2.173112939621494e-04  -8.016189903651263e-04
     2   -6.167939335242172e-04   1.542701505291575e-04  -2.511041710261945e-04
     3    3.241792284630018e-05  -2.411078718869999e-05   3.971520148657532e-05
     4   -2.771012155532132e-05  -6.709599903622197e-05  -6.815412098623569e-05
     5    9.507539122189258e-05  -4.902069336456151e-05   2.822378492012516e-05
     6   -3.673526339856710e-04  -3.877228496362752e-04   1.801971446962867e-04
     7    2.338282905537474e-04   1.418778279035548e-04  -1.993606152741400e-04
     8    1.513329067312511e-04   2.628419989647000e-04  -2.856663753384715e-05
     9   -2.307733083438027e-01   1.141330066451068e-01  -2.076909216101717e-01
    10    2.313395787530722e-01  -1.144360188430634e-01   2.087516304860081e-01




 # Finishing finite difference calculation for IDERIV #
 ######################################################
 ######################################################
 Requested basis set is def2-TZVPD
 There are 101 shells and 267 basis functions
 **********************************************************************
 **                                                                  **
 **                       VIBRATIONAL ANALYSIS                       **
 **                       --------------------                       **
 **                                                                  **
 **        VIBRATIONAL FREQUENCIES (CM**-1) AND NORMAL MODES         **
 **     FORCE CONSTANTS (mDYN/ANGSTROM) AND REDUCED MASSES (AMU)     **
 **                  INFRARED INTENSITIES (KM/MOL)                   **
 **                                                                  **
 **********************************************************************
 

 Mode:                 1                      2                      3
 Frequency:        30.58                  46.39                  71.83
 Force Cnst:      0.0048                 0.0077                 0.0194
 Red. Mass:       8.7959                 6.0568                 6.3898
 IR Active:          YES                    YES                    YES
 IR Intens:       16.982                  7.470                 36.977
 Raman Active:       YES                    YES                    YES
               X      Y      Z        X      Y      Z        X      Y      Z
 C          0.161 -0.089  0.264    0.000  0.093  0.046   -0.242  0.096 -0.200
 C         -0.021 -0.042  0.104   -0.166  0.099 -0.103   -0.155  0.061 -0.124
 H          0.258 -0.113  0.345   -0.153  0.139 -0.058   -0.341  0.124 -0.273
 H          0.215 -0.104  0.316    0.297  0.044  0.277   -0.221  0.100 -0.196
 H         -0.079 -0.026  0.048   -0.461  0.149 -0.333   -0.182  0.060 -0.135
 C         -0.166 -0.006 -0.022    0.044  0.035  0.041   -0.038  0.028 -0.037
 O         -0.375  0.043 -0.212   -0.105  0.034 -0.089   -0.024  0.011 -0.022
 O         -0.072 -0.029  0.066    0.343 -0.012  0.273    0.030  0.021  0.010
 O          0.425  0.101 -0.157   -0.114 -0.199 -0.159    0.346 -0.177  0.303
 H          0.272  0.057 -0.010   -0.185 -0.215 -0.089    0.341 -0.201  0.291
 TransDip  -0.069 -0.042  0.104   -0.027  0.080  0.024   -0.141  0.060 -0.120

 Mode:                 4                      5                      6
 Frequency:        92.54                 187.62                 265.71
 Force Cnst:      0.0137                 0.0216                 0.0435
 Red. Mass:       2.7203                 1.0424                 1.0451
 IR Active:          YES                    YES                    YES
 IR Intens:        3.506                111.314                117.104
 Raman Active:       YES                    YES                    YES
               X      Y      Z        X      Y      Z        X      Y      Z
 C         -0.134  0.034 -0.118    0.002  0.003  0.006   -0.003 -0.001 -0.010
 C          0.188 -0.040  0.166   -0.009 -0.001 -0.003    0.005 -0.004 -0.002
 H         -0.082  0.021 -0.075   -0.008  0.008  0.005   -0.009  0.000 -0.014
 H         -0.462  0.108 -0.407    0.019  0.004  0.014   -0.006  0.000 -0.013
 H          0.495 -0.111  0.437   -0.025  0.001 -0.014    0.007 -0.004 -0.000
 C          0.046 -0.008  0.039   -0.003 -0.003  0.002    0.003 -0.003 -0.001
 O         -0.119  0.028 -0.111   -0.005 -0.001  0.000    0.000  0.003 -0.004
 O          0.080 -0.015  0.068    0.001 -0.005  0.008    0.001 -0.006  0.004
 O         -0.035 -0.003 -0.015   -0.030 -0.029  0.018    0.006 -0.038 -0.028
 H          0.013 -0.019 -0.076    0.692  0.540 -0.474   -0.177  0.761  0.621
 TransDip   0.054 -0.010  0.024    0.229  0.194 -0.155   -0.056  0.273  0.207

 Mode:                 7                      8                      9
 Frequency:       289.99                 523.16                 527.88
 Force Cnst:      0.1796                 0.2750                 0.6645
 Red. Mass:       3.6251                 1.7055                 4.0473
 IR Active:          YES                    YES                    YES
 IR Intens:        0.752                  1.502                  9.974
 Raman Active:       YES                    YES                    YES
               X      Y      Z        X      Y      Z        X      Y      Z
 C          0.068  0.276 -0.005    0.063  0.015 -0.024   -0.152 -0.081  0.176
 C          0.029 -0.104 -0.058   -0.048  0.016 -0.107   -0.175  0.009  0.097
 H         -0.134  0.468  0.278    0.527 -0.071  0.454    0.255 -0.258  0.290
 H          0.336  0.502 -0.252   -0.270  0.139 -0.397   -0.546 -0.170  0.127
 H         -0.085 -0.203  0.051    0.387 -0.050  0.224   -0.055 -0.160  0.419
 C          0.010 -0.102 -0.038   -0.131  0.037 -0.071    0.018 -0.033 -0.167
 O          0.053  0.118 -0.030    0.001 -0.066  0.066    0.175  0.223 -0.087
 O         -0.140 -0.220  0.102    0.045  0.015  0.067    0.078 -0.108 -0.044
 O          0.001  0.004 -0.001    0.000 -0.001  0.001    0.000 -0.001  0.000
 H         -0.026 -0.052 -0.002    0.002  0.013  0.006    0.009  0.007 -0.006
 TransDip   0.015  0.020 -0.012    0.022  0.011 -0.031   -0.071 -0.029  0.066

 Mode:                10                     11                     12
 Frequency:       648.75                 866.43                 883.66
 Force Cnst:      0.9927                 1.8673                 1.9815
 Red. Mass:       4.0032                 4.2218                 4.3070
 IR Active:          YES                    YES                    YES
 IR Intens:       31.144                 49.534                 50.805
 Raman Active:       YES                    YES                    YES
               X      Y      Z        X      Y      Z        X      Y      Z
 C          0.021  0.061 -0.006   -0.013 -0.005 -0.005   -0.084 -0.130  0.063
 C          0.042  0.323  0.030   -0.166  0.029 -0.144   -0.041 -0.148  0.023
 H          0.346 -0.238 -0.423    0.547 -0.122  0.536   -0.460  0.200  0.516
 H         -0.375 -0.271  0.335   -0.198  0.062 -0.207    0.306  0.208 -0.276
 H          0.003  0.281  0.081    0.128 -0.033  0.105    0.029 -0.087 -0.068
 C          0.076  0.047 -0.075    0.343 -0.066  0.300    0.113  0.237 -0.100
 O          0.058 -0.165 -0.104   -0.072  0.013 -0.079    0.132 -0.130 -0.169
 O         -0.161 -0.144  0.142   -0.082  0.024 -0.063   -0.115  0.140  0.169
 O          0.000  0.000  0.000    0.000  0.000  0.000   -0.000 -0.000 -0.000
 H          0.001 -0.003 -0.002   -0.002  0.002  0.003    0.000  0.002  0.001
 TransDip   0.066  0.164 -0.027    0.170 -0.031  0.144    0.110  0.178 -0.092

 Mode:                13                     14                     15
 Frequency:      1009.46                1046.15                1062.62
 Force Cnst:      0.7958                 0.7336                 1.0493
 Red. Mass:       1.3255                 1.1376                 1.5773
 IR Active:          YES                    YES                    YES
 IR Intens:       71.759                 22.300                 12.121
 Raman Active:       YES                    YES                    YES
               X      Y      Z        X      Y      Z        X      Y      Z
 C         -0.120  0.027 -0.106    0.028 -0.008  0.026   -0.034 -0.108  0.011
 C          0.034 -0.007  0.031   -0.075  0.019 -0.065    0.003  0.152  0.039
 H          0.414 -0.096  0.372   -0.335  0.079 -0.289   -0.299  0.151  0.385
 H          0.590 -0.134  0.517    0.262 -0.057  0.225    0.297  0.196 -0.306
 H          0.100 -0.020  0.085    0.608 -0.132  0.526    0.370  0.484 -0.317
 C         -0.016  0.003 -0.014    0.006 -0.002  0.005   -0.014 -0.027  0.007
 O          0.003 -0.001  0.002   -0.002  0.001 -0.002   -0.007  0.020  0.013
 O          0.003 -0.001  0.003   -0.001 -0.001 -0.001    0.017 -0.085 -0.040
 O          0.000 -0.000  0.000    0.000 -0.000  0.000    0.000 -0.000  0.000
 H          0.001  0.002 -0.001    0.000  0.000 -0.000    0.001  0.000 -0.001
 TransDip   0.197 -0.047  0.181    0.110 -0.025  0.100   -0.043  0.083  0.060

 Mode:                16                     17                     18
 Frequency:      1293.10                1384.33                1445.80
 Force Cnst:      1.3250                 2.2300                 2.7730
 Red. Mass:       1.3450                 1.9750                 2.2516
 IR Active:          YES                    YES                    YES
 IR Intens:       25.440                141.523                331.816
 Raman Active:       YES                    YES                    YES
               X      Y      Z        X      Y      Z        X      Y      Z
 C         -0.036  0.086  0.063   -0.001 -0.002  0.001   -0.042  0.036  0.056
 C          0.009 -0.102 -0.037    0.074 -0.005 -0.085   -0.065 -0.095  0.049
 H          0.018  0.023 -0.013   -0.362  0.310  0.489    0.382 -0.353 -0.523
 H         -0.324 -0.158  0.325   -0.413 -0.339  0.380    0.288  0.312 -0.243
 H          0.558  0.365 -0.538   -0.068 -0.142  0.042    0.220  0.135 -0.214
 C         -0.029 -0.029  0.024    0.097  0.151 -0.069    0.114  0.193 -0.078
 O          0.031 -0.002 -0.035   -0.090 -0.005  0.098   -0.076 -0.004  0.083
 O         -0.004  0.022  0.010    0.015 -0.093 -0.040    0.015 -0.103 -0.043
 O          0.000 -0.000 -0.000   -0.000 -0.000 -0.000   -0.000 -0.000 -0.000
 H         -0.000 -0.000  0.000    0.000  0.000  0.001    0.000  0.000  0.001
 TransDip  -0.109 -0.063  0.101    0.215  0.270 -0.161    0.348  0.371 -0.286

 Mode:                19                     20                     21
 Frequency:      1596.59                1721.14                3150.80
 Force Cnst:     17.3389                 9.1903                 6.1912
 Red. Mass:      11.5448                 5.2656                 1.0585
 IR Active:          YES                    YES                    YES
 IR Intens:     1195.654                 34.696                 15.915
 Raman Active:       YES                    YES                    YES
               X      Y      Z        X      Y      Z        X      Y      Z
 C          0.090  0.020 -0.096    0.272  0.028 -0.301   -0.043 -0.006  0.047
 C         -0.060 -0.061  0.052   -0.307 -0.082  0.325   -0.002  0.022  0.008
 H          0.007  0.114  0.020   -0.056  0.408  0.171    0.299  0.599 -0.180
 H         -0.087 -0.133  0.063   -0.200 -0.434  0.114    0.161 -0.543 -0.323
 H         -0.173 -0.120  0.163    0.164  0.372 -0.088    0.075 -0.250 -0.151
 C         -0.374  0.483  0.535    0.076 -0.008 -0.087   -0.000  0.001  0.001
 O          0.191 -0.042 -0.221   -0.015  0.012  0.019   -0.000 -0.000  0.000
 O          0.084 -0.281 -0.163   -0.011  0.013  0.016    0.000 -0.000 -0.000
 O         -0.000 -0.000  0.000    0.000  0.000  0.000   -0.000  0.000 -0.000
 H          0.001  0.003  0.000   -0.001 -0.002 -0.001    0.000  0.000  0.000
 TransDip  -0.529  0.631  0.740    0.122 -0.028 -0.141   -0.084  0.005  0.096

 Mode:                22                     23                     24
 Frequency:      3176.82                3242.03                3846.76
 Force Cnst:      6.5050                 6.9153                 9.3001
 Red. Mass:       1.0940                 1.1167                 1.0667
 IR Active:          YES                    YES                    YES
 IR Intens:       17.866                  9.865                  2.347
 Raman Active:       YES                    YES                    YES
               X      Y      Z        X      Y      Z        X      Y      Z
 C         -0.017  0.011  0.022   -0.012 -0.097 -0.012    0.000  0.000 -0.000
 C          0.024 -0.066 -0.045    0.003 -0.010 -0.007   -0.000  0.000  0.000
 H          0.056  0.111 -0.034    0.309  0.602 -0.191   -0.000 -0.000  0.000
 H          0.076 -0.250 -0.151   -0.180  0.569  0.351   -0.000 -0.000  0.000
 H         -0.238  0.777  0.473   -0.033  0.104  0.065    0.000 -0.000 -0.000
 C          0.002  0.002 -0.002    0.001 -0.000 -0.001   -0.000 -0.000  0.000
 O         -0.001 -0.000  0.001   -0.000  0.000  0.000    0.000  0.000 -0.000
 O         -0.000 -0.000  0.000   -0.000  0.000  0.000    0.000  0.000 -0.000
 O         -0.000  0.000 -0.000   -0.000  0.000 -0.000   -0.044  0.022 -0.039
 H          0.000 -0.000  0.000    0.000 -0.000  0.000    0.698 -0.347  0.624
 TransDip   0.014 -0.126 -0.048   -0.004 -0.099 -0.020    0.038 -0.010  0.029

 STANDARD THERMODYNAMIC QUANTITIES AT   298.15 K  AND     1.00 ATM

   This Molecule has  0 Imaginary Frequencies
   Zero point vibrational energy:       40.614 kcal/mol

   Atom    1 Element C  Has Mass   12.00000
   Atom    2 Element C  Has Mass   12.00000
   Atom    3 Element H  Has Mass    1.00783
   Atom    4 Element H  Has Mass    1.00783
   Atom    5 Element H  Has Mass    1.00783
   Atom    6 Element C  Has Mass   12.00000
   Atom    7 Element O  Has Mass   15.99491
   Atom    8 Element O  Has Mass   15.99491
   Atom    9 Element O  Has Mass   15.99491
   Atom   10 Element H  Has Mass    1.00783
   Molecular Mass:    88.016050 amu
   Principal axes and moments of inertia in amu*Bohr^2:
                             1           2           3
    Eigenvalues --      508.88894   895.51695  1087.86931
          X               0.97568    -0.13365    -0.17373
          Y               0.05805    -0.60671     0.79280
          Z               0.21136     0.78361     0.58420
   Rotational Symmetry Number is   1
   The Molecule is an Asymmetric Top
   Translational Enthalpy:        0.889 kcal/mol
   Rotational Enthalpy:           0.889 kcal/mol
   Vibrational Enthalpy:         44.083 kcal/mol
   gas constant (RT):             0.592 kcal/mol
   Translational Entropy:        39.337  cal/mol.K
   Rotational Entropy:           27.696  cal/mol.K
   Vibrational Entropy:          26.005  cal/mol.K

   Total Enthalpy:               46.453 kcal/mol
   Total Entropy:                93.039  cal/mol.K
Archival summary:
1\1\c4-88\FREQ\ProcedureUnspecified\BasisUnspecified\334(2-,1)\leeping\FriMar2022:55:372020FriMar2022:55:372020\0\\#,FREQ,ProcedureUnspecified,BasisUnspecified,\\-2,1\C\O,1,1.25623\O,1,1.2602,2,125.994\C,1,1.51853,2,118.361,3,179.846,0\H,4,1.0882,1,115.624,2,179.367,0\C,4,1.32841,1,123.814,2,-0.719971,0\H,6,1.08646,4,121.599,1,-179.972,0\H,6,1.0867,4,120.558,1,0.214596,0\H,4,2.79608,1,87.2424,2,72.4912,0\O,9,0.96289,4,166.916,1,61.2835,0\\\@

 Total job time:  4004.58s(wall), 55882.12s(cpu) 
 Fri Mar 20 22:55:37 2020

        *************************************************************
        *                                                           *
        *  Thank you very much for using Q-Chem.  Have a nice day.  *
        *                                                           *
        *************************************************************


