18   
From 1-reactant-grad.out: Frame 1 / 1, Energy=    -571.7272134559
C        0.1243580981    1.2010974774   -0.8751840098
C        0.6132673556    1.8190673329   -2.1963078265
O        0.4689219578    3.0683029043   -2.3072137210
O        1.0992698461    1.0650836883   -3.0776786601
C        0.5280967089   -0.2506605707   -0.6394455884
H       -0.9678153153    1.3029553886   -0.8790232502
H        0.4822389243    1.8412225130   -0.0624987006
C        0.0677732909   -0.8899822108    0.6784901784
H        1.6196007277   -0.3429285475   -0.6698669137
H        0.1344102204   -0.8777519097   -1.4470886359
C       -1.4582274620   -0.8669398968    0.8464480580
H       -1.8721436358    0.1430497158    0.7759970664
H       -1.7160954482   -1.2857616435    1.8235395552
H       -1.9184861286   -1.4891471704    0.0714484637
O        0.5915545287   -2.1071994393    0.8921198681
O        0.6255752380    0.0520703023    1.7320496031
O        0.7637993448   -0.7496641290    2.9112807064
H        0.8373710689   -1.6318783197    2.4186819713
