
Running Job 1 of 1 run.in
qchem run.in_54622.0 ./run.d/ 1
/home/leeping/opt/qchem/5.0.2-openmp/exe/qcprog.exe_s run.in_54622.0 ./run.d/
Check license passed

                  Welcome to Q-Chem
     A Quantum Leap Into The Future Of Chemistry


 Q-Chem 5.0, Q-Chem, Inc., Pleasanton, CA (2017)

 Yihan Shao,  Zhengting Gan,  E. Epifanovsky,  A. T. B. Gilbert,  M. Wormit,  
 J. Kussmann,  A. W. Lange,  A. Behn,  Jia Deng,  Xintian Feng,  D. Ghosh,  
 M. Goldey,  P. R. Horn,  L. D. Jacobson,  I. Kaliman,  T. Kus,  A. Landau,  
 Jie Liu,  E. I. Proynov,  R. M. Richard,  R. P. Steele,  E. J. Sundstrom,  
 H. L. Woodcock III,  P. M. Zimmerman,  D. Zuev,  B. Albrecht,  E. Alguire,  
 S. A. Baeppler,  D. Barton,  Z. Benda,  Y. A. Bernard,  E. J. Berquist,  
 K. B. Bravaya,  H. Burton,  D. Casanova,  Chun-Min Chang,  Yunqing Chen,  
 A. Chien,  K. D. Closser,  M. P. Coons,  S. Dasgupta,  A. L. Dempwolff,  
 M. Diedenhofen,  Hainam Do,  R. G. Edgar,  Po-Tung Fang,  S. Fatehi,  
 Qingguo Feng,  J. Fosso-Tande,  Qinghui Ge,  A. Ghysels,  G. Gidofalvi,  
 J. Gomes,  J. Gonthier,  A. Gunina,  M. W. D. Hanson-Heine,  
 P. H. P. Harbach,  A. W. Hauser,  J. E. Herr,  E. G. Hohenstein,  
 Z. C. Holden,  Kerwin Hui,  T.-C. Jagau,  Hyunjun Ji,  B. Kaduk,  
 K. Khistyaev,  Jaehoon Kim,  P. Klunzinger,  K. Koh,  D. Kosenkov,  
 L. Koulias,  T. Kowalczyk,  C. M. Krauter,  A. Kunitsa,  Ka Un Lao,  
 A. Laurent,  K. V. Lawler,  Joonho Lee,  D. Lefrancois,  S. Lehtola,  
 D. S. Levine,  Yi-Pei Li,  You-Sheng Lin,  Fenglai Liu,  E. Livshits,  
 A. Luenser,  P. Manohar,  E. Mansoor,  S. F. Manzer,  Shan-Ping Mao,  
 Yuezhi Mao,  N. Mardirossian,  A. V. Marenich,  T. Markovich,  
 L. A. Martinez-Martinez,  S. A. Maurer,  N. J. Mayhall,  S. C. McKenzie,  
 J.-M. Mewes,  A. F. Morrison,  J. W. Mullinax,  K. Nanda,  
 T. S. Nguyen-Beck,  R. Olivares-Amaya,  J. A. Parkhill,  T. M. Perrine,  
 F. Plasser,  S. Prager,  A. Prociuk,  E. Ramos,  D. R. Rehn,  F. Rob,  
 M. Schneider,  N. Sergueev,  S. M. Sharada,  S. Sharma,  D. W. Small,  
 T. Stauch,  T. Stein,  Yu-Chuan Su,  A. J. W. Thom,  A. Tkatchenko,  
 T. Tsuchimochi,  L. Vogt,  O. Vydrov,  M. A. Watson,  J. Wenzel,  
 M. de Wergifosse,  T. A. Wesolowski,  A. White,  J. Witte,  A. Yamada,  
 Jun Yang,  K. Yao,  S. Yeganeh,  S. R. Yost,  Zhi-Qiang You,  A. Zech,  
 Igor Ying Zhang,  Xing Zhang,  Yan Zhao,  Ying Zhu,  B. R. Brooks,  
 G. K. L. Chan,  C. J. Cramer,  M. S. Gordon,  W. J. Hehre,  A. Klamt,  
 M. W. Schmidt,  C. D. Sherrill,  D. G. Truhlar,  A. Aspuru-Guzik,  R. Baer,  
 A. T. Bell,  N. A. Besley,  Jeng-Da Chai,  R. A. DiStasio Jr.,  A. Dreuw,  
 B. D. Dunietz,  T. R. Furlani,  Chao-Ping Hsu,  Yousung Jung,  Jing Kong,  
 D. S. Lambrecht,  WanZhen Liang,  C. Ochsenfeld,  V. A. Rassolov,  
 L. V. Slipchenko,  J. E. Subotnik,  T. Van Voorhis,  J. M. Herbert,  
 A. I. Krylov,  P. M. W. Gill,  M. Head-Gordon

 Contributors to earlier versions of Q-Chem not listed above: 
 R. D. Adamson,  B. Austin,  J. Baker,  G. J. O. Beran,  K. Brandhorst,  
 S. T. Brown,  E. F. C. Byrd,  A. K. Chakraborty,  C.-L. Cheng,  
 Siu Hung Chien,  D. M. Chipman,  D. L. Crittenden,  H. Dachsel,  
 R. J. Doerksen,  A. D. Dutoi,  L. Fusti-Molnar,  W. A. Goddard III,  
 A. Golubeva-Zadorozhnaya,  S. R. Gwaltney,  G. Hawkins,  A. Heyden,  
 S. Hirata,  G. Kedziora,  F. J. Keil,  C. Kelley,  Jihan Kim,  R. A. King,  
 R. Z. Khaliullin,  P. P. Korambath,  W. Kurlancheek,  A. M. Lee,  M. S. Lee,  
 S. V. Levchenko,  Ching Yeh Lin,  D. Liotard,  R. C. Lochan,  I. Lotan,  
 P. E. Maslen,  N. Nair,  D. P. O'Neill,  D. Neuhauser,  E. Neuscamman,  
 C. M. Oana,  R. Olson,  B. Peters,  R. Peverati,  P. A. Pieniazek,  
 Y. M. Rhee,  J. Ritchie,  M. A. Rohrdanz,  E. Rosta,  N. J. Russ,  
 H. F. Schaefer III,  N. E. Schultz,  N. Shenvi,  A. C. Simmonett,  A. Sodt,  
 D. Stuck,  K. S. Thanthiriwatte,  V. Vanovschi,  Tao Wang,  A. Warshel,  
 C. F. Williams,  Q. Wu,  X. Xu,  W. Zhang

 Please cite Q-Chem as follows:
 Y. Shao et al., Mol. Phys. 113, 184-215 (2015)
 DOI: 10.1080/00268976.2014.952696

 Q-Chem 5.0.2 for Intel X86 EM64T Linux

 Parts of Q-Chem use Armadillo 5.200.1 (Boston Tea Smuggler).
 http://arma.sourceforge.net/

 Q-Chem begins on Sun May 20 10:09:34 2018  

Host: 
0

     Scratch files written to ./run.d//
 Dec517 15110_ 26548  26544 5633   
Processing $rem in /home/leeping/opt/qchem/5.0.2-openmp/config/preferences.
 MEM_STATIC 2000
 MEM_TOTAL  8000
 SYMMETRY   OFF
 SYM_IGNORE TRUE 
Symmetry turned off for PCM/SM12/SMD calculation

Checking the input file for inconsistencies... 	...done.

--------------------------------------------------------------
User input:
--------------------------------------------------------------
$molecule
-2 1
C        0.1243580981    1.2010974774   -0.8751840098
C        0.6132673556    1.8190673329   -2.1963078265
O        0.4689219578    3.0683029043   -2.3072137210
O        1.0992698461    1.0650836883   -3.0776786601
C        0.5280967089   -0.2506605707   -0.6394455884
H       -0.9678153153    1.3029553886   -0.8790232502
H        0.4822389243    1.8412225130   -0.0624987006
C        0.0677732909   -0.8899822108    0.6784901784
H        1.6196007277   -0.3429285475   -0.6698669137
H        0.1344102204   -0.8777519097   -1.4470886359
C       -1.4582274620   -0.8669398968    0.8464480580
H       -1.8721436358    0.1430497158    0.7759970664
H       -1.7160954482   -1.2857616435    1.8235395552
H       -1.9184861286   -1.4891471704    0.0714484637
O        0.5915545287   -2.1071994393    0.8921198681
O        0.6255752380    0.0520703023    1.7320496031
O        0.7637993448   -0.7496641290    2.9112807064
H        0.8373710689   -1.6318783197    2.4186819713
$end

$rem
jobtype               force
method                wb97x-v
basis                 def2-tzvpd
symmetry              off
sym_ignore            true
incdft                false
incfock               0
!scf_algorithm        diis_gdm
scf_convergence       8
thresh                14
!purecart             112
max_scf_cycles        1000
geom_opt_max_cycles   500
geom_opt_dmax         100
geom_opt_tol_gradient 10
solvent_method        pcm
ideriv                1
rpath_tol_displacement 1000
rpath_max_cycles      50
rpath_direction       1
!scf_guess            read
scf_guess             read
geom_opt_hessian      read
$end

$pcm
theory              cosmo
method              iswig
Radii               bondi
vdwScale            1.20
hpoints             110
heavypoints         110
$end

$solvent
dielectric 78.400000
$end

--------------------------------------------------------------
 ----------------------------------------------------------------
             Standard Nuclear Orientation (Angstroms)
    I     Atom           X                Y                Z
 ----------------------------------------------------------------
    1      C       0.1243580981     1.2010974774    -0.8751840098
    2      C       0.6132673556     1.8190673329    -2.1963078265
    3      O       0.4689219578     3.0683029043    -2.3072137210
    4      O       1.0992698461     1.0650836883    -3.0776786601
    5      C       0.5280967089    -0.2506605707    -0.6394455884
    6      H      -0.9678153153     1.3029553886    -0.8790232502
    7      H       0.4822389243     1.8412225130    -0.0624987006
    8      C       0.0677732909    -0.8899822108     0.6784901784
    9      H       1.6196007277    -0.3429285475    -0.6698669137
   10      H       0.1344102204    -0.8777519097    -1.4470886359
   11      C      -1.4582274620    -0.8669398968     0.8464480580
   12      H      -1.8721436358     0.1430497158     0.7759970664
   13      H      -1.7160954482    -1.2857616435     1.8235395552
   14      H      -1.9184861286    -1.4891471704     0.0714484637
   15      O       0.5915545287    -2.1071994393     0.8921198681
   16      O       0.6255752380     0.0520703023     1.7320496031
   17      O       0.7637993448    -0.7496641290     2.9112807064
   18      H       0.8373710689    -1.6318783197     2.4186819713
 ----------------------------------------------------------------
 Nuclear Repulsion Energy =   546.5755695191 hartrees
 There are       40 alpha and       40 beta electrons
 Requested basis set is def2-TZVPD
 There are 175 shells and 457 basis functions

 Total QAlloc Memory Limit   8000 MB
 Mega-Array Size      1956 MB
 MEM_STATIC part      2000 MB
 Discretize the solute cavity surface with Lebedev spheres
	Using 110 Lebedev grid points for each H atom
	Using 110 Lebedev grid points for other atoms
	Atomic van der Waals radii will be scaled by 1.20
 Remove points where switching function is < 1.0e-08
 Keep 1038 surface tesserae and discard 942 interior tesserae
 Molecular Surface Area = 185.445 Angst**2
 A cutoff of  1.0D-14 yielded  14079 shell pairs
 There are     95961 function pairs (    122062 Cartesian)
 
 -------------------------------------------------------
 OpenMP Integral Computing Module                       
 Release: version 1.0, May 2013, Q-Chem Inc. Pittsburgh 
 -------------------------------------------------------
 Integral Job Info:
 Integral job number is                      11
 Integral operator is                         1
 short-range coefficients              16700000
 long-range coefficients              100000000
 Omega coefficients                         300
 if combine SR and LR in K                    1
 Integral screening is                        0
 Integral computing path is                   2
 max size of driver memory is            800000
 size of driver memory is                776718
 size of scratch memory is              4473992
 max col of scratch BK array              10000
 max len of scratch array in speh3          662
 max len of scratch index in speh4           32
 max int batch size is                      520
 min int batch size is                       52
 fixed nKL is                                52
 max L of basis functions is                  3
 order of int derivative is                   0
 number of shells is                        175
 number of basis is                         517
 number of cartesian basis is               517
 number of contracted shell pairs         14079
 number of primitive shell pairs          28657
 maxK2 (contraction) of shell pair           36
 max number of K2 of shell pair               1
 max number of CS2 of shell pair           2319
 max number of PS2 of shell pair           3264
 mem total for path MDJ                  777156
 -------------------------------------------------------
 Smallest overlap matrix eigenvalue = 2.70E-06

 Scale SEOQF with 1.000000e-01/1.000000e-01/1.000000e-01

 Standard Electronic Orientation quadrupole field applied
 Nucleus-field energy     =    -0.0000000148 hartrees
 Guess MOs from SCF MO coefficient file
 Reading MOs from coefficient file
 Reading MOs from coefficient file
 Long-range K will be added via erf
 Coulomb attenuation parameter = 0.3 bohr**(-1)
 A restricted hybrid HF-DFT SCF calculation will be
 performed using Pulay DIIS extrapolation
 Polarizable Continuum solvation model will be applied
 Exchange:     0.1670 Hartree-Fock + 1.0000 wB97X-V + LR-HF
 Correlation:  1.0000 wB97X-V
 Using SG-2 standard quadrature grid
 Nonlocal Correlation:  VV10 with C = 0.0100 and b = 6.00
 Grid used for NLC:  SG-1 standard quadrature
 SCF converges when DIIS error is below 1.0E-08
Using Q-Chem read-in guess as SCF_GUESS READ specified.

 using 16 threads for integral computing
 -------------------------------------------------------
 OpenMP Integral computing Module                
 Release: version 1.0, May 2013, Q-Chem Inc. Pittsburgh 
 -------------------------------------------------------
 using 16 threads for integral computing
 -------------------------------------------------------
 OpenMP Integral computing Module                
 Release: version 1.0, May 2013, Q-Chem Inc. Pittsburgh 
 -------------------------------------------------------
 -------------------------------------------------------
 OpenMP BLAS3 based DFT computing Module                
 Release: version 1.0, May 2013, Q-Chem Inc. Pittsburgh 
 -------------------------------------------------------
 -------------------------------------------------------
 OpenMP BLAS3 based DFT computing Module                
 Release: version 1.0, May 2013, Q-Chem Inc. Pittsburgh 
 -------------------------------------------------------
 -------------------------------------------------------
 OpenMP BLAS3 based DFT computing Module                
 Release: version 1.0, May 2013, Q-Chem Inc. Pittsburgh 
 -------------------------------------------------------
 ---------------------------------------
  Cycle       Energy         DIIS Error
 ---------------------------------------
    1    -571.4271949599      2.96E-04
    2    -571.7219768957      3.15E-04
    3    -571.7256765840      1.47E-04
    4    -571.7262809139      1.08E-04
    5    -571.7266653241      8.23E-05
    6    -571.7268716579      6.50E-05
    7    -571.7270336236      4.72E-05
    8    -571.7271374968      3.07E-05
    9    -571.7271991593      1.33E-05
   10    -571.7272115344      4.91E-06
   11    -571.7272133781      9.95E-07
   12    -571.7272134528      1.99E-07
   13    -571.7272134559      1.63E-08
   14    -571.7272134559      5.35E-09 Convergence criterion met
 ---------------------------------------

************** Final PCM Free Energy Summary **************
 G_electrostatic  =      -0.30015809 hartree =    -188.35204218 kcal/mol
 G_cavitation     =       0.00000000 hartree =       0.00000000 kcal/mol
 G_dispersion     =       0.00000000 hartree =       0.00000000 kcal/mol
 G_repulsion      =       0.00000000 hartree =       0.00000000 kcal/mol
 --------------------------------------------------
 Non-electrostatic Free Energy =       0.00000000 hartree =       0.00000000 kcal/mol
 Total                         =      -0.30015809 hartree =    -188.35204218 kcal/mol
 --------------------------------------------------
 SCF Energy (H0 + V/2)                       =    -571.72721346 
 Solute Internal Energy (H0)                 =    -571.42705537 
 Total Free Energy (H0 + V/2 + non-elec)     =    -571.72721346 hartree
                                             = -358764.24127201 kcal/mol
***********************************************************

 SCF time:  CPU 3536.94 s  wall 259.40 s
 SCF   energy in the final basis set = -571.72721346
 Total energy in the final basis set = -571.72721346
 
 --------------------------------------------------------------
 
                    Orbital Energies (a.u.)
 --------------------------------------------------------------
 
 Alpha MOs
 -- Occupied --
-19.224 -19.221 -19.139 -19.136 -19.113 -10.338 -10.328 -10.244
-10.238 -10.232  -1.217  -1.141  -1.058  -1.046  -0.967  -0.882
 -0.823  -0.756  -0.656  -0.602  -0.595  -0.560  -0.551  -0.533
 -0.518  -0.510  -0.503  -0.494  -0.463  -0.456  -0.448  -0.433
 -0.416  -0.401  -0.345  -0.343  -0.332  -0.330  -0.324  -0.297
 -- Virtual --
  0.062   0.071   0.083   0.088   0.095   0.101   0.111   0.123
  0.127   0.132   0.134   0.144   0.152   0.155   0.161   0.168
  0.181   0.185   0.189   0.191   0.194   0.203   0.219   0.225
  0.227   0.238   0.245   0.254   0.261   0.268   0.271   0.281
  0.284   0.288   0.293   0.303   0.309   0.312   0.319   0.324
  0.332   0.336   0.342   0.353   0.357   0.360   0.366   0.370
  0.377   0.380   0.390   0.396   0.399   0.404   0.406   0.413
  0.418   0.428   0.432   0.440   0.446   0.447   0.455   0.459
  0.462   0.470   0.480   0.485   0.489   0.496   0.498   0.501
  0.511   0.517   0.527   0.529   0.530   0.542   0.544   0.554
  0.559   0.571   0.574   0.580   0.582   0.591   0.595   0.597
  0.607   0.614   0.617   0.632   0.635   0.640   0.649   0.656
  0.661   0.664   0.668   0.682   0.689   0.696   0.711   0.714
  0.719   0.723   0.734   0.741   0.758   0.759   0.773   0.777
  0.782   0.789   0.793   0.801   0.803   0.807   0.815   0.821
  0.826   0.833   0.835   0.842   0.849   0.858   0.861   0.875
  0.880   0.884   0.886   0.896   0.904   0.924   0.928   0.935
  0.948   0.960   0.969   0.984   0.992   1.003   1.017   1.022
  1.046   1.054   1.065   1.074   1.084   1.094   1.109   1.119
  1.142   1.162   1.169   1.176   1.188   1.196   1.207   1.221
  1.229   1.236   1.242   1.258   1.286   1.288   1.314   1.318
  1.342   1.364   1.390   1.401   1.423   1.431   1.448   1.458
  1.466   1.476   1.494   1.513   1.526   1.546   1.583   1.594
  1.614   1.636   1.660   1.671   1.717   1.753   1.762   1.813
  1.833   1.850   1.868   1.889   1.929   1.938   1.952   1.957
  1.974   1.981   1.986   1.994   2.000   2.009   2.031   2.045
  2.051   2.058   2.082   2.112   2.120   2.138   2.176   2.186
  2.196   2.219   2.235   2.257   2.270   2.276   2.282   2.304
  2.317   2.334   2.345   2.373   2.392   2.400   2.426   2.431
  2.463   2.482   2.490   2.514   2.536   2.545   2.565   2.580
  2.624   2.636   2.649   2.665   2.683   2.704   2.725   2.730
  2.761   2.780   2.799   2.836   2.855   2.897   2.903   2.917
  2.932   2.950   2.966   2.984   3.001   3.028   3.031   3.044
  3.053   3.065   3.099   3.108   3.128   3.149   3.163   3.181
  3.216   3.261   3.264   3.288   3.306   3.325   3.354   3.368
  3.384   3.399   3.439   3.465   3.472   3.485   3.510   3.524
  3.529   3.540   3.556   3.561   3.577   3.581   3.613   3.625
  3.633   3.656   3.672   3.678   3.684   3.709   3.717   3.738
  3.747   3.769   3.772   3.779   3.790   3.820   3.834   3.839
  3.861   3.902   3.929   3.952   3.991   4.038   4.081   4.093
  4.133   4.153   4.179   4.254   4.290   4.299   4.330   4.358
  4.427   4.467   4.489   4.596   4.647   4.677   4.698   4.717
  4.797   4.821   4.835   4.842   4.854   4.916   4.953   4.987
  5.058   5.111   5.127   5.202   5.250   5.297   5.325   5.342
  5.366   5.382   5.390   5.408   5.416   5.504   5.522   5.559
  5.616   5.648   5.716   5.719   5.732   5.773   5.786   5.832
  5.999   6.014   6.046   6.103   6.226   6.241   6.246   6.312
  6.340   6.354   6.410   6.608   6.621   6.640   6.675   6.702
  6.709   6.757   6.769   6.798   6.815   6.903   6.959   6.974
  7.015   7.054   7.067   7.175   7.197   7.241   7.255   7.302
  7.365   7.395   7.404   7.413   7.531   7.614   8.332  22.747
 22.906  22.970  23.127  23.738  44.216  44.293  44.423  44.591
 44.702
 --------------------------------------------------------------
 
          Ground-State Mulliken Net Atomic Charges

     Atom                 Charge (a.u.)
  ----------------------------------------
      1 C                    -0.192513
      2 C                    -0.022707
      3 O                    -0.715426
      4 O                    -0.692616
      5 C                    -0.269986
      6 H                     0.197584
      7 H                     0.199660
      8 C                     1.058591
      9 H                     0.152581
     10 H                     0.213509
     11 C                    -1.285144
     12 H                     0.266329
     13 H                     0.235055
     14 H                     0.246864
     15 O                    -0.983777
     16 O                    -0.272612
     17 O                    -0.489763
     18 H                     0.354369
  ----------------------------------------
  Sum of atomic charges =    -2.000000

 -----------------------------------------------------------------
                    Cartesian Multipole Moments
 -----------------------------------------------------------------
    Charge (ESU x 10^10)
                -9.6064
    Dipole Moment (Debye)
         X      -8.1184      Y      -4.5059      Z       6.3234
       Tot      11.2337
    Quadrupole Moments (Debye-Ang)
        XX     -72.2733     XY      -2.6181     YY    -112.9141
        XZ       8.4066     YZ      34.2016     ZZ    -126.6002
    Octopole Moments (Debye-Ang^2)
       XXX     -64.1470    XXY     -13.0995    XYY     -44.8368
       YYY    -104.4707    XXZ      19.4218    XYZ      22.8592
       YYZ      83.4648    XZZ     -76.2854    YZZ     -89.0208
       ZZZ     121.7577
    Hexadecapole Moments (Debye-Ang^3)
      XXXX    -355.3536   XXXY     -62.9863   XXYY    -233.7040
      XYYY     -88.9981   YYYY   -1394.9541   XXXZ      87.0264
      XXYZ     152.1152   XYYZ      69.4966   YYYZ     667.0142
      XXZZ    -349.3893   XYZZ     -81.1765   YYZZ    -594.7981
      XZZZ     180.1036   YZZZ     632.7783   ZZZZ   -1965.9212
 -----------------------------------------------------------------
 Calculating analytic gradient of the SCF energy
 Gradient of SCF Energy
            1           2           3           4           5           6
    1  -0.0416206   0.0016658   0.0040930  -0.0237312   0.1517936   0.0431120
    2   0.0582514   0.0044210  -0.0536734   0.0323030  -0.1158072  -0.0054606
    3   0.0821713  -0.0491803   0.0130307   0.0451318  -0.0684142   0.0068739
            7           8           9          10          11          12
    1  -0.0278146  -0.0647398  -0.0684244   0.0255230  -0.0931101   0.0182751
    2  -0.0361722   0.0815735  -0.0005545   0.0392101   0.0081994  -0.0768425
    3  -0.0373341  -0.0198000  -0.0083528   0.0378674   0.0139044   0.0099616
           13          14          15          16          17          18
    1   0.0212713   0.0219869   0.0110302   0.0082505   0.0094886   0.0029508
    2   0.0279236   0.0461754  -0.0065912   0.0085639  -0.0550907   0.0435710
    3  -0.0725342   0.0610048  -0.0082319  -0.0399767   0.0109732   0.0229052
 Max gradient component =       1.518E-01
 RMS gradient           =       4.771E-02
 Computing fast CPCM-ISWIG gradient
 Updating gradient with PCM contributions...
 -- total gradient after adding PCM contribution --
---------------------------------------------------
  Atom         X              Y              Z     
---------------------------------------------------
   1       0.000005      -0.000013       0.000010
   2      -0.000018      -0.000010      -0.000021
   3       0.000000       0.000003       0.000002
   4       0.000019       0.000009       0.000013
   5      -0.000005       0.000027      -0.000006
   6       0.000003       0.000010      -0.000004
   7       0.000006      -0.000004       0.000004
   8       0.000028      -0.000081       0.000001
   9       0.000000      -0.000005      -0.000002
  10       0.000000      -0.000005       0.000003
  11      -0.000004       0.000012       0.000001
  12      -0.000000      -0.000000      -0.000007
  13      -0.000001       0.000001      -0.000000
  14      -0.000002      -0.000001      -0.000001
  15      -0.000021       0.000042      -0.000013
  16      -0.000008       0.000015       0.000029
  17       0.000004      -0.000041      -0.000051
  18      -0.000007       0.000042       0.000043
---------------------------------------------------
 Number of fixed atoms: 0
 Gradient time:  CPU 896.54 s  wall 64.72 s
Archival summary:
1\1\c4-88\JobtypUnspecified\ProcedureUnspecified\BasisUnspecified\558(2-,1)\leeping\SunMay2010:14:592018SunMay2010:14:592018\0\\#,JobtypUnspecified,ProcedureUnspecified,BasisUnspecified,\\-2,1\O\O,1,1.43264\H,2,1.0131,1,95.3997\C,1,1.51941,2,105.023,3,24.5237,0\O,4,1.34224,1,107.977,2,-34.6046,0\C,4,1.53539,1,106.243,2,86.3982,0\H,6,1.09379,4,112.515,1,55.9935,0\H,6,1.0939,4,109.042,1,-64.7807,0\H,6,1.09526,4,109.374,1,176.852,0\C,4,1.53544,1,103.118,2,-154.897,0\H,10,1.09568,4,106.659,1,-178.774,0\H,10,1.09582,4,106.702,1,67.3359,0\C,10,1.52518,4,116.721,1,-55.8876,0\H,13,1.09467,10,110.813,4,56.9365,0\H,13,1.09692,10,110.64,4,-60.2062,0\C,13,1.53827,10,115.531,4,179.334,0\O,16,1.25758,13,118.939,10,11.7185,0\O,16,1.26243,13,115.89,10,-169.259,0\\\@

 Total job time:  325.29s(wall), 4445.32s(cpu) 
 Sun May 20 10:14:59 2018

        *************************************************************
        *                                                           *
        *  Thank you very much for using Q-Chem.  Have a nice day.  *
        *                                                           *
        *************************************************************


