18   
From 3-product-grad.out: Frame 1 / 1, Energy=    -571.7277628477
C        0.1398935583    1.2444845904   -0.8401584904
C        0.6226281264    1.8469839185   -2.1704412022
O        0.4814391433    3.0948546702   -2.2919683730
O        1.1014116497    1.0808351014   -3.0447675892
C        0.5231909622   -0.2123729468   -0.6098749934
H       -0.9499108966    1.3652672716   -0.8268314968
H        0.5234913960    1.8763690688   -0.0328558318
C        0.0757010570   -0.7936240585    0.7275214878
H        1.6115168686   -0.3234902494   -0.6606135046
H        0.0997116037   -0.8392796166   -1.4015041259
C       -1.4419510205   -0.7915608792    0.9108751160
H       -1.8381347552    0.2271331292    0.8864352155
H       -1.6899478708   -1.2421073317    1.8744219700
H       -1.9167720572   -1.3737172471    0.1151002579
O        0.5621821405   -2.1220469197    0.8266510232
O        0.7098351708   -0.0430324023    1.7554392301
O        0.6893013321   -0.8539031468    2.9648670078
H        0.7124463474   -2.1369067417    1.8111949419
