
Running Job 1 of 1 run.in
qchem run.in_56991.0 ./run.d/ 1
/home/leeping/opt/qchem/5.0.2-openmp/exe/qcprog.exe_s run.in_56991.0 ./run.d/
Check license passed

                  Welcome to Q-Chem
     A Quantum Leap Into The Future Of Chemistry


 Q-Chem 5.0, Q-Chem, Inc., Pleasanton, CA (2017)

 Yihan Shao,  Zhengting Gan,  E. Epifanovsky,  A. T. B. Gilbert,  M. Wormit,  
 J. Kussmann,  A. W. Lange,  A. Behn,  Jia Deng,  Xintian Feng,  D. Ghosh,  
 M. Goldey,  P. R. Horn,  L. D. Jacobson,  I. Kaliman,  T. Kus,  A. Landau,  
 Jie Liu,  E. I. Proynov,  R. M. Richard,  R. P. Steele,  E. J. Sundstrom,  
 H. L. Woodcock III,  P. M. Zimmerman,  D. Zuev,  B. Albrecht,  E. Alguire,  
 S. A. Baeppler,  D. Barton,  Z. Benda,  Y. A. Bernard,  E. J. Berquist,  
 K. B. Bravaya,  H. Burton,  D. Casanova,  Chun-Min Chang,  Yunqing Chen,  
 A. Chien,  K. D. Closser,  M. P. Coons,  S. Dasgupta,  A. L. Dempwolff,  
 M. Diedenhofen,  Hainam Do,  R. G. Edgar,  Po-Tung Fang,  S. Fatehi,  
 Qingguo Feng,  J. Fosso-Tande,  Qinghui Ge,  A. Ghysels,  G. Gidofalvi,  
 J. Gomes,  J. Gonthier,  A. Gunina,  M. W. D. Hanson-Heine,  
 P. H. P. Harbach,  A. W. Hauser,  J. E. Herr,  E. G. Hohenstein,  
 Z. C. Holden,  Kerwin Hui,  T.-C. Jagau,  Hyunjun Ji,  B. Kaduk,  
 K. Khistyaev,  Jaehoon Kim,  P. Klunzinger,  K. Koh,  D. Kosenkov,  
 L. Koulias,  T. Kowalczyk,  C. M. Krauter,  A. Kunitsa,  Ka Un Lao,  
 A. Laurent,  K. V. Lawler,  Joonho Lee,  D. Lefrancois,  S. Lehtola,  
 D. S. Levine,  Yi-Pei Li,  You-Sheng Lin,  Fenglai Liu,  E. Livshits,  
 A. Luenser,  P. Manohar,  E. Mansoor,  S. F. Manzer,  Shan-Ping Mao,  
 Yuezhi Mao,  N. Mardirossian,  A. V. Marenich,  T. Markovich,  
 L. A. Martinez-Martinez,  S. A. Maurer,  N. J. Mayhall,  S. C. McKenzie,  
 J.-M. Mewes,  A. F. Morrison,  J. W. Mullinax,  K. Nanda,  
 T. S. Nguyen-Beck,  R. Olivares-Amaya,  J. A. Parkhill,  T. M. Perrine,  
 F. Plasser,  S. Prager,  A. Prociuk,  E. Ramos,  D. R. Rehn,  F. Rob,  
 M. Schneider,  N. Sergueev,  S. M. Sharada,  S. Sharma,  D. W. Small,  
 T. Stauch,  T. Stein,  Yu-Chuan Su,  A. J. W. Thom,  A. Tkatchenko,  
 T. Tsuchimochi,  L. Vogt,  O. Vydrov,  M. A. Watson,  J. Wenzel,  
 M. de Wergifosse,  T. A. Wesolowski,  A. White,  J. Witte,  A. Yamada,  
 Jun Yang,  K. Yao,  S. Yeganeh,  S. R. Yost,  Zhi-Qiang You,  A. Zech,  
 Igor Ying Zhang,  Xing Zhang,  Yan Zhao,  Ying Zhu,  B. R. Brooks,  
 G. K. L. Chan,  C. J. Cramer,  M. S. Gordon,  W. J. Hehre,  A. Klamt,  
 M. W. Schmidt,  C. D. Sherrill,  D. G. Truhlar,  A. Aspuru-Guzik,  R. Baer,  
 A. T. Bell,  N. A. Besley,  Jeng-Da Chai,  R. A. DiStasio Jr.,  A. Dreuw,  
 B. D. Dunietz,  T. R. Furlani,  Chao-Ping Hsu,  Yousung Jung,  Jing Kong,  
 D. S. Lambrecht,  WanZhen Liang,  C. Ochsenfeld,  V. A. Rassolov,  
 L. V. Slipchenko,  J. E. Subotnik,  T. Van Voorhis,  J. M. Herbert,  
 A. I. Krylov,  P. M. W. Gill,  M. Head-Gordon

 Contributors to earlier versions of Q-Chem not listed above: 
 R. D. Adamson,  B. Austin,  J. Baker,  G. J. O. Beran,  K. Brandhorst,  
 S. T. Brown,  E. F. C. Byrd,  A. K. Chakraborty,  C.-L. Cheng,  
 Siu Hung Chien,  D. M. Chipman,  D. L. Crittenden,  H. Dachsel,  
 R. J. Doerksen,  A. D. Dutoi,  L. Fusti-Molnar,  W. A. Goddard III,  
 A. Golubeva-Zadorozhnaya,  S. R. Gwaltney,  G. Hawkins,  A. Heyden,  
 S. Hirata,  G. Kedziora,  F. J. Keil,  C. Kelley,  Jihan Kim,  R. A. King,  
 R. Z. Khaliullin,  P. P. Korambath,  W. Kurlancheek,  A. M. Lee,  M. S. Lee,  
 S. V. Levchenko,  Ching Yeh Lin,  D. Liotard,  R. C. Lochan,  I. Lotan,  
 P. E. Maslen,  N. Nair,  D. P. O'Neill,  D. Neuhauser,  E. Neuscamman,  
 C. M. Oana,  R. Olson,  B. Peters,  R. Peverati,  P. A. Pieniazek,  
 Y. M. Rhee,  J. Ritchie,  M. A. Rohrdanz,  E. Rosta,  N. J. Russ,  
 H. F. Schaefer III,  N. E. Schultz,  N. Shenvi,  A. C. Simmonett,  A. Sodt,  
 D. Stuck,  K. S. Thanthiriwatte,  V. Vanovschi,  Tao Wang,  A. Warshel,  
 C. F. Williams,  Q. Wu,  X. Xu,  W. Zhang

 Please cite Q-Chem as follows:
 Y. Shao et al., Mol. Phys. 113, 184-215 (2015)
 DOI: 10.1080/00268976.2014.952696

 Q-Chem 5.0.2 for Intel X86 EM64T Linux

 Parts of Q-Chem use Armadillo 5.200.1 (Boston Tea Smuggler).
 http://arma.sourceforge.net/

 Q-Chem begins on Sun May 20 13:04:24 2018  

Host: 
0

     Scratch files written to ./run.d//
 Dec517 15110_ 26548  26544 5633   
Processing $rem in /home/leeping/opt/qchem/5.0.2-openmp/config/preferences.
 MEM_STATIC 2000
 MEM_TOTAL  8000
 SYMMETRY   OFF
 SYM_IGNORE TRUE 
Symmetry turned off for PCM/SM12/SMD calculation

Checking the input file for inconsistencies... 	...done.

--------------------------------------------------------------
User input:
--------------------------------------------------------------
$molecule
-2 1
C        0.1398935583    1.2444845904   -0.8401584904
C        0.6226281264    1.8469839185   -2.1704412022
O        0.4814391433    3.0948546702   -2.2919683730
O        1.1014116497    1.0808351014   -3.0447675892
C        0.5231909622   -0.2123729468   -0.6098749934
H       -0.9499108966    1.3652672716   -0.8268314968
H        0.5234913960    1.8763690688   -0.0328558318
C        0.0757010570   -0.7936240585    0.7275214878
H        1.6115168686   -0.3234902494   -0.6606135046
H        0.0997116037   -0.8392796166   -1.4015041259
C       -1.4419510205   -0.7915608792    0.9108751160
H       -1.8381347552    0.2271331292    0.8864352155
H       -1.6899478708   -1.2421073317    1.8744219700
H       -1.9167720572   -1.3737172471    0.1151002579
O        0.5621821405   -2.1220469197    0.8266510232
O        0.7098351708   -0.0430324023    1.7554392301
O        0.6893013321   -0.8539031468    2.9648670078
H        0.7124463474   -2.1369067417    1.8111949419
$end

$rem
jobtype               force
method                wb97x-v
basis                 def2-tzvpd
symmetry              off
sym_ignore            true
incdft                false
incfock               0
!scf_algorithm        diis_gdm
scf_convergence       8
thresh                14
!purecart             112
max_scf_cycles        1000
geom_opt_max_cycles   500
geom_opt_dmax         100
geom_opt_tol_gradient 10
solvent_method        pcm
ideriv                1
rpath_tol_displacement 1000
rpath_max_cycles      50
rpath_direction       1
!scf_guess            read
scf_guess             read
geom_opt_hessian      read
$end

$pcm
theory              cosmo
method              iswig
Radii               bondi
vdwScale            1.20
hpoints             110
heavypoints         110
$end

$solvent
dielectric 78.400000
$end

--------------------------------------------------------------
 ----------------------------------------------------------------
             Standard Nuclear Orientation (Angstroms)
    I     Atom           X                Y                Z
 ----------------------------------------------------------------
    1      C       0.1398935583     1.2444845904    -0.8401584904
    2      C       0.6226281264     1.8469839185    -2.1704412022
    3      O       0.4814391433     3.0948546702    -2.2919683730
    4      O       1.1014116497     1.0808351014    -3.0447675892
    5      C       0.5231909622    -0.2123729468    -0.6098749934
    6      H      -0.9499108966     1.3652672716    -0.8268314968
    7      H       0.5234913960     1.8763690688    -0.0328558318
    8      C       0.0757010570    -0.7936240585     0.7275214878
    9      H       1.6115168686    -0.3234902494    -0.6606135046
   10      H       0.0997116037    -0.8392796166    -1.4015041259
   11      C      -1.4419510205    -0.7915608792     0.9108751160
   12      H      -1.8381347552     0.2271331292     0.8864352155
   13      H      -1.6899478708    -1.2421073317     1.8744219700
   14      H      -1.9167720572    -1.3737172471     0.1151002579
   15      O       0.5621821405    -2.1220469197     0.8266510232
   16      O       0.7098351708    -0.0430324023     1.7554392301
   17      O       0.6893013321    -0.8539031468     2.9648670078
   18      H       0.7124463474    -2.1369067417     1.8111949419
 ----------------------------------------------------------------
 Nuclear Repulsion Energy =   546.7819120888 hartrees
 There are       40 alpha and       40 beta electrons
 Requested basis set is def2-TZVPD
 There are 175 shells and 457 basis functions

 Total QAlloc Memory Limit   8000 MB
 Mega-Array Size      1956 MB
 MEM_STATIC part      2000 MB
 Discretize the solute cavity surface with Lebedev spheres
	Using 110 Lebedev grid points for each H atom
	Using 110 Lebedev grid points for other atoms
	Atomic van der Waals radii will be scaled by 1.20
 Remove points where switching function is < 1.0e-08
 Keep 1038 surface tesserae and discard 942 interior tesserae
 Molecular Surface Area = 185.521 Angst**2
 A cutoff of  1.0D-14 yielded  14075 shell pairs
 There are     95831 function pairs (    121811 Cartesian)
 
 -------------------------------------------------------
 OpenMP Integral Computing Module                       
 Release: version 1.0, May 2013, Q-Chem Inc. Pittsburgh 
 -------------------------------------------------------
 Integral Job Info:
 Integral job number is                      11
 Integral operator is                         1
 short-range coefficients              16700000
 long-range coefficients              100000000
 Omega coefficients                         300
 if combine SR and LR in K                    1
 Integral screening is                        0
 Integral computing path is                   2
 max size of driver memory is            800000
 size of driver memory is                776718
 size of scratch memory is              4473992
 max col of scratch BK array              10000
 max len of scratch array in speh3          662
 max len of scratch index in speh4           32
 max int batch size is                      520
 min int batch size is                       52
 fixed nKL is                                52
 max L of basis functions is                  3
 order of int derivative is                   0
 number of shells is                        175
 number of basis is                         517
 number of cartesian basis is               517
 number of contracted shell pairs         14075
 number of primitive shell pairs          28677
 maxK2 (contraction) of shell pair           36
 max number of K2 of shell pair               1
 max number of CS2 of shell pair           2314
 max number of PS2 of shell pair           3282
 mem total for path MDJ                  777156
 -------------------------------------------------------
 Smallest overlap matrix eigenvalue = 2.40E-06

 Scale SEOQF with 1.000000e-01/1.000000e-01/1.000000e-01

 Standard Electronic Orientation quadrupole field applied
 Nucleus-field energy     =    -0.0000000142 hartrees
 Guess MOs from SCF MO coefficient file
 Reading MOs from coefficient file
 Reading MOs from coefficient file
 Long-range K will be added via erf
 Coulomb attenuation parameter = 0.3 bohr**(-1)
 A restricted hybrid HF-DFT SCF calculation will be
 performed using Pulay DIIS extrapolation
 Polarizable Continuum solvation model will be applied
 Exchange:     0.1670 Hartree-Fock + 1.0000 wB97X-V + LR-HF
 Correlation:  1.0000 wB97X-V
 Using SG-2 standard quadrature grid
 Nonlocal Correlation:  VV10 with C = 0.0100 and b = 6.00
 Grid used for NLC:  SG-1 standard quadrature
 SCF converges when DIIS error is below 1.0E-08
Using Q-Chem read-in guess as SCF_GUESS READ specified.

 using 16 threads for integral computing
 -------------------------------------------------------
 OpenMP Integral computing Module                
 Release: version 1.0, May 2013, Q-Chem Inc. Pittsburgh 
 -------------------------------------------------------
 using 16 threads for integral computing
 -------------------------------------------------------
 OpenMP Integral computing Module                
 Release: version 1.0, May 2013, Q-Chem Inc. Pittsburgh 
 -------------------------------------------------------
 -------------------------------------------------------
 OpenMP BLAS3 based DFT computing Module                
 Release: version 1.0, May 2013, Q-Chem Inc. Pittsburgh 
 -------------------------------------------------------
 -------------------------------------------------------
 OpenMP BLAS3 based DFT computing Module                
 Release: version 1.0, May 2013, Q-Chem Inc. Pittsburgh 
 -------------------------------------------------------
 -------------------------------------------------------
 OpenMP BLAS3 based DFT computing Module                
 Release: version 1.0, May 2013, Q-Chem Inc. Pittsburgh 
 -------------------------------------------------------
 ---------------------------------------
  Cycle       Energy         DIIS Error
 ---------------------------------------
    1    -571.4252744309      3.14E-04
    2    -571.7219299327      3.32E-04
    3    -571.7260726370      1.54E-04
    4    -571.7267474618      1.13E-04
    5    -571.7271874251      8.50E-05
    6    -571.7274031603      6.71E-05
    7    -571.7275924461      4.62E-05
    8    -571.7277108838      2.55E-05
    9    -571.7277562712      9.11E-06
   10    -571.7277623648      2.49E-06
   11    -571.7277628382      3.53E-07
   12    -571.7277628475      5.54E-08
   13    -571.7277628477      1.45E-08
   14    -571.7277628477      9.41E-09 Convergence criterion met
 ---------------------------------------

************** Final PCM Free Energy Summary **************
 G_electrostatic  =      -0.30243944 hartree =    -189.78361374 kcal/mol
 G_cavitation     =       0.00000000 hartree =       0.00000000 kcal/mol
 G_dispersion     =       0.00000000 hartree =       0.00000000 kcal/mol
 G_repulsion      =       0.00000000 hartree =       0.00000000 kcal/mol
 --------------------------------------------------
 Non-electrostatic Free Energy =       0.00000000 hartree =       0.00000000 kcal/mol
 Total                         =      -0.30243944 hartree =    -189.78361374 kcal/mol
 --------------------------------------------------
 SCF Energy (H0 + V/2)                       =    -571.72776285 
 Solute Internal Energy (H0)                 =    -571.42532341 
 Total Free Energy (H0 + V/2 + non-elec)     =    -571.72776285 hartree
                                             = -358764.58602060 kcal/mol
***********************************************************

 SCF time:  CPU 3534.45 s  wall 259.32 s
 SCF   energy in the final basis set = -571.72776285
 Total energy in the final basis set = -571.72776285
 
 --------------------------------------------------------------
 
                    Orbital Energies (a.u.)
 --------------------------------------------------------------
 
 Alpha MOs
 -- Occupied --
-19.211 -19.182 -19.147 -19.140 -19.137 -10.342 -10.340 -10.247
-10.246 -10.237  -1.190  -1.142  -1.099  -1.047  -0.938  -0.875
 -0.832  -0.765  -0.651  -0.614  -0.597  -0.568  -0.561  -0.538
 -0.517  -0.511  -0.506  -0.489  -0.466  -0.449  -0.445  -0.431
 -0.422  -0.404  -0.369  -0.346  -0.334  -0.328  -0.315  -0.280
 -- Virtual --
  0.061   0.070   0.082   0.088   0.096   0.101   0.111   0.124
  0.127   0.131   0.133   0.147   0.152   0.155   0.162   0.168
  0.183   0.189   0.191   0.193   0.196   0.202   0.218   0.223
  0.227   0.235   0.241   0.253   0.261   0.271   0.271   0.281
  0.287   0.288   0.291   0.303   0.306   0.315   0.319   0.325
  0.331   0.335   0.344   0.352   0.355   0.362   0.366   0.369
  0.375   0.382   0.389   0.395   0.399   0.403   0.407   0.411
  0.418   0.420   0.427   0.436   0.442   0.452   0.455   0.458
  0.467   0.471   0.478   0.482   0.487   0.492   0.497   0.508
  0.512   0.518   0.520   0.530   0.536   0.540   0.545   0.549
  0.557   0.568   0.577   0.582   0.582   0.587   0.596   0.598
  0.601   0.612   0.618   0.626   0.633   0.636   0.645   0.647
  0.659   0.661   0.667   0.684   0.687   0.700   0.705   0.715
  0.720   0.727   0.729   0.738   0.752   0.754   0.766   0.775
  0.780   0.784   0.788   0.793   0.801   0.808   0.810   0.819
  0.830   0.831   0.839   0.845   0.850   0.858   0.866   0.871
  0.877   0.884   0.887   0.892   0.903   0.922   0.925   0.937
  0.939   0.960   0.975   0.981   1.002   1.008   1.011   1.022
  1.033   1.056   1.069   1.077   1.079   1.096   1.113   1.123
  1.141   1.165   1.173   1.182   1.185   1.195   1.212   1.221
  1.231   1.239   1.246   1.265   1.274   1.280   1.319   1.326
  1.341   1.362   1.382   1.401   1.413   1.432   1.440   1.450
  1.468   1.474   1.485   1.501   1.533   1.554   1.576   1.591
  1.604   1.631   1.654   1.678   1.718   1.759   1.800   1.839
  1.857   1.866   1.879   1.908   1.910   1.928   1.940   1.955
  1.959   1.966   1.981   1.990   2.005   2.009   2.029   2.039
  2.044   2.059   2.086   2.107   2.128   2.141   2.160   2.182
  2.198   2.217   2.244   2.255   2.271   2.285   2.293   2.302
  2.319   2.329   2.351   2.367   2.378   2.404   2.438   2.445
  2.458   2.478   2.487   2.515   2.528   2.542   2.564   2.579
  2.606   2.621   2.649   2.679   2.684   2.695   2.728   2.739
  2.744   2.766   2.798   2.817   2.854   2.868   2.898   2.913
  2.937   2.944   2.977   2.989   3.008   3.026   3.037   3.052
  3.059   3.101   3.102   3.115   3.118   3.162   3.182   3.220
  3.242   3.267   3.278   3.290   3.305   3.315   3.321   3.371
  3.382   3.398   3.422   3.447   3.461   3.481   3.497   3.524
  3.530   3.540   3.547   3.561   3.579   3.594   3.609   3.612
  3.647   3.664   3.671   3.684   3.687   3.710   3.723   3.732
  3.736   3.742   3.772   3.786   3.800   3.815   3.821   3.847
  3.865   3.888   3.922   3.948   3.981   4.026   4.054   4.125
  4.149   4.173   4.213   4.237   4.277   4.299   4.341   4.360
  4.395   4.467   4.479   4.599   4.653   4.688   4.693   4.720
  4.787   4.820   4.829   4.845   4.894   4.940   4.982   5.016
  5.031   5.112   5.162   5.242   5.283   5.325   5.331   5.360
  5.365   5.381   5.382   5.392   5.429   5.483   5.505   5.558
  5.595   5.658   5.690   5.717   5.731   5.755   5.785   5.853
  5.937   6.008   6.036   6.101   6.196   6.229   6.246   6.313
  6.337   6.372   6.419   6.616   6.624   6.639   6.679   6.700
  6.744   6.748   6.756   6.772   6.813   6.859   6.959   6.973
  7.003   7.049   7.056   7.157   7.182   7.212   7.254   7.301
  7.365   7.398   7.412   7.459   7.498   7.611   8.297  22.744
 22.905  22.973  23.044  23.742  44.232  44.292  44.425  44.538
 44.699
 --------------------------------------------------------------
 
          Ground-State Mulliken Net Atomic Charges

     Atom                 Charge (a.u.)
  ----------------------------------------
      1 C                    -0.239267
      2 C                    -0.010228
      3 O                    -0.712851
      4 O                    -0.691203
      5 C                    -0.258698
      6 H                     0.198694
      7 H                     0.206374
      8 C                     0.934573
      9 H                     0.205257
     10 H                     0.213211
     11 C                    -1.303533
     12 H                     0.282036
     13 H                     0.225374
     14 H                     0.235672
     15 O                    -0.545343
     16 O                    -0.199414
     17 O                    -0.916055
     18 H                     0.375402
  ----------------------------------------
  Sum of atomic charges =    -2.000000

 -----------------------------------------------------------------
                    Cartesian Multipole Moments
 -----------------------------------------------------------------
    Charge (ESU x 10^10)
                -9.6064
    Dipole Moment (Debye)
         X      -8.6005      Y      -6.1795      Z       2.2949
       Tot      10.8361
    Quadrupole Moments (Debye-Ang)
        XX     -72.2151     XY      -3.6448     YY    -106.3291
        XZ       4.8619     YZ      35.8443     ZZ    -141.0408
    Octopole Moments (Debye-Ang^2)
       XXX     -66.7141    XXY     -15.1716    XYY     -41.9272
       YYY    -129.0376    XXZ      12.6057    XYZ      25.4036
       YYZ      84.5040    XZZ     -87.8696    YZZ     -76.8371
       ZZZ      53.8543
    Hexadecapole Moments (Debye-Ang^3)
      XXXX    -348.9973   XXXY     -62.5387   XXYY    -230.0833
      XYYY    -102.6649   YYYY   -1355.1480   XXXZ      81.1163
      XXYZ     158.5960   XYYZ      70.4064   YYYZ     659.3351
      XXZZ    -365.2629   XYZZ     -69.1706   YYZZ    -607.1359
      XZZZ     136.5897   YZZZ     686.1020   ZZZZ   -2154.1452
 -----------------------------------------------------------------
 Calculating analytic gradient of the SCF energy
 Gradient of SCF Energy
            1           2           3           4           5           6
    1  -0.0422055   0.0029957   0.0041541  -0.0225974   0.1516613   0.0434683
    2   0.0552782   0.0029992  -0.0526705   0.0329362  -0.1032116  -0.0064392
    3   0.0820497  -0.0503567   0.0137265   0.0435727  -0.0871216   0.0083740
            7           8           9          10          11          12
    1  -0.0287434  -0.0700887  -0.0661257   0.0293742  -0.0967666   0.0164251
    2  -0.0361570   0.0683181   0.0043470   0.0323606   0.0093577  -0.0797367
    3  -0.0376401   0.0258452  -0.0005238   0.0409478   0.0213459   0.0042200
           13          14          15          16          17          18
    1   0.0237129   0.0237871   0.0188528   0.0063971   0.0030716   0.0026269
    2   0.0312804   0.0393729  -0.0041363   0.0391319  -0.0358767   0.0028459
    3  -0.0640397   0.0580747   0.0181342  -0.0582256   0.0492816  -0.0676649
 Max gradient component =       1.517E-01
 RMS gradient           =       4.855E-02
 Computing fast CPCM-ISWIG gradient
 Updating gradient with PCM contributions...
 -- total gradient after adding PCM contribution --
---------------------------------------------------
  Atom         X              Y              Z     
---------------------------------------------------
   1       0.000005       0.000002       0.000005
   2      -0.000005      -0.000004      -0.000007
   3       0.000009       0.000001       0.000004
   4      -0.000007      -0.000004      -0.000001
   5       0.000009      -0.000011      -0.000006
   6      -0.000001      -0.000005       0.000003
   7       0.000002       0.000004      -0.000007
   8       0.000005       0.000040       0.000018
   9      -0.000001      -0.000005       0.000007
  10      -0.000002       0.000006      -0.000003
  11      -0.000010      -0.000007      -0.000005
  12       0.000002       0.000001       0.000006
  13      -0.000000      -0.000001      -0.000001
  14      -0.000000       0.000005       0.000000
  15       0.000006      -0.000017      -0.000001
  16      -0.000010      -0.000008      -0.000020
  17       0.000001       0.000000       0.000002
  18      -0.000002       0.000000       0.000006
---------------------------------------------------
 Number of fixed atoms: 0
 Gradient time:  CPU 884.60 s  wall 63.88 s
Archival summary:
1\1\c4-88\JobtypUnspecified\ProcedureUnspecified\BasisUnspecified\558(2-,1)\leeping\SunMay2013:09:482018SunMay2013:09:482018\0\\#,JobtypUnspecified,ProcedureUnspecified,BasisUnspecified,\\-2,1\O\C,1,1.42202\O,2,1.41817,1,106.914\H,3,0.996056,2,97.748,1,30.9383,0\O,1,1.45624,2,107.466,3,-43.4887,0\C,2,1.52536,1,107.567,3,-116.389,0\H,6,1.095,2,107.592,1,175.541,0\H,6,1.09516,2,107.067,1,60.7949,0\C,6,1.52394,2,115.023,1,-61.6003,0\H,9,1.09461,6,110.626,2,56.1104,0\H,9,1.09656,6,110.697,2,-61.0935,0\C,2,1.52869,1,110.812,3,119.237,0\H,12,1.09221,2,109.31,1,-60.365,0\H,12,1.0933,2,110.998,1,59.6169,0\H,12,1.09436,2,110.048,1,-179.891,0\C,9,1.53808,6,115.229,2,178.372,0\O,16,1.25724,9,118.835,6,10.6395,0\O,16,1.2617,9,115.824,6,-170.259,0\\\@

 Total job time:  324.26s(wall), 4430.79s(cpu) 
 Sun May 20 13:09:48 2018

        *************************************************************
        *                                                           *
        *  Thank you very much for using Q-Chem.  Have a nice day.  *
        *                                                           *
        *************************************************************


