18   
From 3-product-grad.out: Frame 1 / 1, Energy=    -571.7903571921
C        2.4211549114    1.4341092553    0.0051352111
O        2.5131566439    2.4136108492   -0.7821072344
O        2.7312600425    1.4319566050    1.2230197384
C        1.8780328917    0.1536853904   -0.6024555338
H        0.6860363210    1.4100018712    2.3765077259
H        1.6826720582    0.1882315759   -1.6724847874
C        1.6260521770   -0.9483235653    0.0947755216
H        1.2246142554   -1.8410864528   -0.3773641464
H        1.8124134625   -0.9800328062    1.1648693710
C       -1.5143996904    0.5526796894   -1.2453757706
O       -1.2240875017   -0.1006439974   -2.3827031611
H       -0.8277496221    0.5316780122   -3.0048684465
O       -1.2935468416    1.7357325161   -1.1092297740
O       -0.1559536726    1.4324018311    2.8466934983
C       -2.1360859573   -0.3457544274   -0.2196545290
H       -3.0854695734   -0.7266905856   -0.6061136770
H       -1.4805494605   -1.2008712441   -0.0379686718
H       -2.3020240994    0.2050299413    0.7043606923
