
Running Job 1 of 1 run.in
qchem run.in_185811.0 ./run.d/ 1
/home/leeping/opt/qchem/5.0.2-openmp/exe/qcprog.exe_s run.in_185811.0 ./run.d/
Check license passed

                  Welcome to Q-Chem
     A Quantum Leap Into The Future Of Chemistry


 Q-Chem 5.0, Q-Chem, Inc., Pleasanton, CA (2017)

 Yihan Shao,  Zhengting Gan,  E. Epifanovsky,  A. T. B. Gilbert,  M. Wormit,  
 J. Kussmann,  A. W. Lange,  A. Behn,  Jia Deng,  Xintian Feng,  D. Ghosh,  
 M. Goldey,  P. R. Horn,  L. D. Jacobson,  I. Kaliman,  T. Kus,  A. Landau,  
 Jie Liu,  E. I. Proynov,  R. M. Richard,  R. P. Steele,  E. J. Sundstrom,  
 H. L. Woodcock III,  P. M. Zimmerman,  D. Zuev,  B. Albrecht,  E. Alguire,  
 S. A. Baeppler,  D. Barton,  Z. Benda,  Y. A. Bernard,  E. J. Berquist,  
 K. B. Bravaya,  H. Burton,  D. Casanova,  Chun-Min Chang,  Yunqing Chen,  
 A. Chien,  K. D. Closser,  M. P. Coons,  S. Dasgupta,  A. L. Dempwolff,  
 M. Diedenhofen,  Hainam Do,  R. G. Edgar,  Po-Tung Fang,  S. Fatehi,  
 Qingguo Feng,  J. Fosso-Tande,  Qinghui Ge,  A. Ghysels,  G. Gidofalvi,  
 J. Gomes,  J. Gonthier,  A. Gunina,  M. W. D. Hanson-Heine,  
 P. H. P. Harbach,  A. W. Hauser,  J. E. Herr,  E. G. Hohenstein,  
 Z. C. Holden,  Kerwin Hui,  T.-C. Jagau,  Hyunjun Ji,  B. Kaduk,  
 K. Khistyaev,  Jaehoon Kim,  P. Klunzinger,  K. Koh,  D. Kosenkov,  
 L. Koulias,  T. Kowalczyk,  C. M. Krauter,  A. Kunitsa,  Ka Un Lao,  
 A. Laurent,  K. V. Lawler,  Joonho Lee,  D. Lefrancois,  S. Lehtola,  
 D. S. Levine,  Yi-Pei Li,  You-Sheng Lin,  Fenglai Liu,  E. Livshits,  
 A. Luenser,  P. Manohar,  E. Mansoor,  S. F. Manzer,  Shan-Ping Mao,  
 Yuezhi Mao,  N. Mardirossian,  A. V. Marenich,  T. Markovich,  
 L. A. Martinez-Martinez,  S. A. Maurer,  N. J. Mayhall,  S. C. McKenzie,  
 J.-M. Mewes,  A. F. Morrison,  J. W. Mullinax,  K. Nanda,  
 T. S. Nguyen-Beck,  R. Olivares-Amaya,  J. A. Parkhill,  T. M. Perrine,  
 F. Plasser,  S. Prager,  A. Prociuk,  E. Ramos,  D. R. Rehn,  F. Rob,  
 M. Schneider,  N. Sergueev,  S. M. Sharada,  S. Sharma,  D. W. Small,  
 T. Stauch,  T. Stein,  Yu-Chuan Su,  A. J. W. Thom,  A. Tkatchenko,  
 T. Tsuchimochi,  L. Vogt,  O. Vydrov,  M. A. Watson,  J. Wenzel,  
 M. de Wergifosse,  T. A. Wesolowski,  A. White,  J. Witte,  A. Yamada,  
 Jun Yang,  K. Yao,  S. Yeganeh,  S. R. Yost,  Zhi-Qiang You,  A. Zech,  
 Igor Ying Zhang,  Xing Zhang,  Yan Zhao,  Ying Zhu,  B. R. Brooks,  
 G. K. L. Chan,  C. J. Cramer,  M. S. Gordon,  W. J. Hehre,  A. Klamt,  
 M. W. Schmidt,  C. D. Sherrill,  D. G. Truhlar,  A. Aspuru-Guzik,  R. Baer,  
 A. T. Bell,  N. A. Besley,  Jeng-Da Chai,  R. A. DiStasio Jr.,  A. Dreuw,  
 B. D. Dunietz,  T. R. Furlani,  Chao-Ping Hsu,  Yousung Jung,  Jing Kong,  
 D. S. Lambrecht,  WanZhen Liang,  C. Ochsenfeld,  V. A. Rassolov,  
 L. V. Slipchenko,  J. E. Subotnik,  T. Van Voorhis,  J. M. Herbert,  
 A. I. Krylov,  P. M. W. Gill,  M. Head-Gordon

 Contributors to earlier versions of Q-Chem not listed above: 
 R. D. Adamson,  B. Austin,  J. Baker,  G. J. O. Beran,  K. Brandhorst,  
 S. T. Brown,  E. F. C. Byrd,  A. K. Chakraborty,  C.-L. Cheng,  
 Siu Hung Chien,  D. M. Chipman,  D. L. Crittenden,  H. Dachsel,  
 R. J. Doerksen,  A. D. Dutoi,  L. Fusti-Molnar,  W. A. Goddard III,  
 A. Golubeva-Zadorozhnaya,  S. R. Gwaltney,  G. Hawkins,  A. Heyden,  
 S. Hirata,  G. Kedziora,  F. J. Keil,  C. Kelley,  Jihan Kim,  R. A. King,  
 R. Z. Khaliullin,  P. P. Korambath,  W. Kurlancheek,  A. M. Lee,  M. S. Lee,  
 S. V. Levchenko,  Ching Yeh Lin,  D. Liotard,  R. C. Lochan,  I. Lotan,  
 P. E. Maslen,  N. Nair,  D. P. O'Neill,  D. Neuhauser,  E. Neuscamman,  
 C. M. Oana,  R. Olson,  B. Peters,  R. Peverati,  P. A. Pieniazek,  
 Y. M. Rhee,  J. Ritchie,  M. A. Rohrdanz,  E. Rosta,  N. J. Russ,  
 H. F. Schaefer III,  N. E. Schultz,  N. Shenvi,  A. C. Simmonett,  A. Sodt,  
 D. Stuck,  K. S. Thanthiriwatte,  V. Vanovschi,  Tao Wang,  A. Warshel,  
 C. F. Williams,  Q. Wu,  X. Xu,  W. Zhang

 Please cite Q-Chem as follows:
 Y. Shao et al., Mol. Phys. 113, 184-215 (2015)
 DOI: 10.1080/00268976.2014.952696

 Q-Chem 5.0.2 for Intel X86 EM64T Linux

 Parts of Q-Chem use Armadillo 5.200.1 (Boston Tea Smuggler).
 http://arma.sourceforge.net/

 Q-Chem begins on Thu Jul 19 10:04:31 2018  

Host: 
0

     Scratch files written to ./run.d//
 Dec517 15110_ 26548  26544 5633   
Processing $rem in /home/leeping/opt/qchem/5.0.2-openmp/config/preferences.
 MEM_STATIC 2000
 MEM_TOTAL  8000
 SYMMETRY   OFF
 SYM_IGNORE TRUE 
Symmetry turned off for PCM/SM12/SMD calculation

Checking the input file for inconsistencies... 	...done.

--------------------------------------------------------------
User input:
--------------------------------------------------------------
$molecule
0 1
C        0.4728262056    1.2273296706   -0.9612871092
C        0.4592250810   -0.3037697511   -0.9109853816
H        0.6964881560    1.6692182562    0.0139374516
H        1.2039136494    1.5764603039   -1.6977184306
H       -0.5084066543    1.5811419721   -1.2889346031
C       -0.4410076899   -0.8754472963    0.1998134195
C       -1.9156285632   -0.5283475913   -0.0046813386
H       -0.3113116635   -1.9631058261    0.1728178066
H       -0.1223975007   -0.5174376943    1.1836063557
H       -2.1915935895   -0.6400023857   -1.0568461649
H       -2.5310926996   -1.2360745897    0.5650454740
O        0.2965934950   -0.8839339637   -2.0869055245
O        1.8345354497   -0.7071352594   -0.2765181692
O        2.9201513258   -0.3804343614   -1.1536346616
H        3.0203334680    0.5810816134   -1.0656163285
C       -2.3285504320    0.8668188395    0.4762787477
O       -3.1680230589    1.5036524769   -0.2232830766
O       -1.8424430588    1.2972739982    1.5591463160
K       -3.0595269199    3.6753421790    1.3335546546
K        2.1146525998   -2.8613006808   -2.2667771962
O        2.2992600282   -2.3667793768   -4.9513269704
H        1.9826279208   -1.4390886669   -4.8491214015
H        3.0512393526   -2.3249212972   -5.5509002604
O        4.8069425543   -1.7887804075    0.4662321895
H        5.6944378623   -1.4182049612    0.5354965246
H        4.2962646568   -1.1519480442   -0.0649322435
O        1.7442884839   -5.1408461189   -0.7255894153
H        2.6883453373   -5.0102197677   -0.5269469351
H        1.3176334398   -5.3107463283    0.1209160792
O        4.3014955910   -4.0771780622   -0.9463810826
H        5.0801258054   -4.5353969548   -1.2810392529
H        4.6335304281   -3.3395625370   -0.3898184507
O        2.4402326637    0.4780247711    2.2314080743
H        1.6818316929    1.0389639568    2.4290226987
H        2.2128819236    0.0536654755    1.3834785283
O        1.2701567824    0.0611137638   -4.2564850967
H        1.9527542646    0.7064625944   -4.0429674742
H        0.8827645712   -0.2376749905   -3.3562993031
$end

$rem
jobtype               force
method                wb97x-v
basis                 gen
symmetry              off
sym_ignore            true
incdft                false
incfock               0
!scf_algorithm        diis_gdm
scf_convergence       8
thresh                14
!purecart             112
max_scf_cycles        1000
geom_opt_max_cycles   500
geom_opt_dmax         100
geom_opt_tol_gradient 10
solvent_method        pcm
ideriv                1
rpath_tol_displacement 1000
rpath_max_cycles      50
rpath_direction       1
!scf_guess            read
scf_guess             read
geom_opt_hessian      read
$end

$pcm
theory              cosmo
method              iswig
Radii               bondi
vdwScale            1.20
hpoints             110
heavypoints         110
$end

$solvent
dielectric 78.400000
$end

$basis
****
H 0
S 3 1.00
34.061341      .60251978E-02
5.1235746      .45021094E-01
1.1646626      .20189726
S 1 1.00
.32723041      1.0000000
S 1 1.00
.10307241      1.0000000
P 1 1.00
.80   1.00
****
C 0
S 6 1.00
13575.349682      .22245814352E-03
2035.2333680      .17232738252E-02
463.22562359      .89255715314E-02
131.20019598      .35727984502E-01
42.853015891      .11076259931
15.584185766      .24295627626
S 2 1.00
6.2067138508      .41440263448
2.5764896527      .23744968655
S 1 1.00
.57696339419      1.0000000000
S 1 1.00
.22972831358      1.0000000000
S 1 1.00
.95164440028E-01  1.0000000000
P 4 1.00
34.697232244      .53333657805E-02
7.9582622826      .35864109092E-01
2.3780826883      .14215873329
.81433208183      .34270471845
P 1 1.00
.28887547253      .46445822433
P 1 1.00
.10056823671      .24955789874
D 1 1.00
.80   1.00
****
O 0
S 6 1.00
27032.382631      .21726302465E-03
4052.3871392      .16838662199E-02
922.32722710      .87395616265E-02
261.24070989      .35239968808E-01
85.354641351      .11153519115
31.035035245      .25588953961
S 2 1.00
12.260860728      .39768730901
4.9987076005      .24627849430
S 1 1.00
1.1703108158      1.0000000000
S 1 1.00
.46474740994      1.0000000000
S 1 1.00
.18504536357      1.0000000000
P 4 1.00
63.274954801      .60685103418E-02
14.627049379      .41912575824E-01
4.4501223456      .16153841088
1.5275799647      .35706951311
P 1 1.00
.52935117943      .44794207502
P 1 1.00
.17478421270      .24446069663
D 1 1.00
1.20   1.00
****
K     0
S   8   1.00
153976.1832500              0.23662636107E-03
23082.4976720              0.18342929137E-02
5253.2344745              0.95310527769E-02
1486.9550133              0.38638406980E-01
484.06333726             0.12480768502
173.56653980             0.29278861009
67.116381464            0.40633425860
26.339502054            0.2007721586
S   4   1.00
172.87693567            -0.24200960936E-01
53.058649063           -0.11553095040
7.9212753964           0.57455545175
3.2108880472           0.57023185107
S   2   1.00
4.5662070895          -0.22615763466
0.70209907282          0.75528392045
S   1   1.00
0.28258942635          1.0000000
S   1   1.00
0.035805824617         1.0000000
S   1   1.00
0.015819213245         1.0000000
P   6   1.00
728.18449873             0.26150689792E-02
172.13265061             0.20673630835E-01
54.829847075            0.93205603870E-01
20.166266494            0.25436518210
7.8610728806           0.39131132810
3.1105213132           0.22481345943
P   3   1.00
11.757337492           -0.25777289217E-01
1.5139617411           0.57359428604
0.58328591795          1.0798320002
P   1   1.00
0.21570478076          1.0000000
P   1   1.00
0.0417370              1.0000000
****
$end

--------------------------------------------------------------
 ----------------------------------------------------------------
             Standard Nuclear Orientation (Angstroms)
    I     Atom           X                Y                Z
 ----------------------------------------------------------------
    1      C       0.4728262056     1.2273296706    -0.9612871092
    2      C       0.4592250810    -0.3037697511    -0.9109853816
    3      H       0.6964881560     1.6692182562     0.0139374516
    4      H       1.2039136494     1.5764603039    -1.6977184306
    5      H      -0.5084066543     1.5811419721    -1.2889346031
    6      C      -0.4410076899    -0.8754472963     0.1998134195
    7      C      -1.9156285632    -0.5283475913    -0.0046813386
    8      H      -0.3113116635    -1.9631058261     0.1728178066
    9      H      -0.1223975007    -0.5174376943     1.1836063557
   10      H      -2.1915935895    -0.6400023857    -1.0568461649
   11      H      -2.5310926996    -1.2360745897     0.5650454740
   12      O       0.2965934950    -0.8839339637    -2.0869055245
   13      O       1.8345354497    -0.7071352594    -0.2765181692
   14      O       2.9201513258    -0.3804343614    -1.1536346616
   15      H       3.0203334680     0.5810816134    -1.0656163285
   16      C      -2.3285504320     0.8668188395     0.4762787477
   17      O      -3.1680230589     1.5036524769    -0.2232830766
   18      O      -1.8424430588     1.2972739982     1.5591463160
   19      K      -3.0595269199     3.6753421790     1.3335546546
   20      K       2.1146525998    -2.8613006808    -2.2667771962
   21      O       2.2992600282    -2.3667793768    -4.9513269704
   22      H       1.9826279208    -1.4390886669    -4.8491214015
   23      H       3.0512393526    -2.3249212972    -5.5509002604
   24      O       4.8069425543    -1.7887804075     0.4662321895
   25      H       5.6944378623    -1.4182049612     0.5354965246
   26      H       4.2962646568    -1.1519480442    -0.0649322435
   27      O       1.7442884839    -5.1408461189    -0.7255894153
   28      H       2.6883453373    -5.0102197677    -0.5269469351
   29      H       1.3176334398    -5.3107463283     0.1209160792
   30      O       4.3014955910    -4.0771780622    -0.9463810826
   31      H       5.0801258054    -4.5353969548    -1.2810392529
   32      H       4.6335304281    -3.3395625370    -0.3898184507
   33      O       2.4402326637     0.4780247711     2.2314080743
   34      H       1.6818316929     1.0389639568     2.4290226987
   35      H       2.2128819236     0.0536654755     1.3834785283
   36      O       1.2701567824     0.0611137638    -4.2564850967
   37      H       1.9527542646     0.7064625944    -4.0429674742
   38      H       0.8827645712    -0.2376749905    -3.3562993031
 ----------------------------------------------------------------
 Nuclear Repulsion Energy =  1915.8832585465 hartrees
 There are       88 alpha and       88 beta electrons

 Q-Chem warning in module /scratch/svnadmin/15110_zgan/qchem/forms1/BasisType.C, line 1685:

 Setting pure/cartesian flag to 2111 for general basis


 Requested basis set is non-standard
 There are 244 shells and 460 basis functions

 Total QAlloc Memory Limit   8000 MB
 Mega-Array Size      1956 MB
 MEM_STATIC part      2000 MB
 Discretize the solute cavity surface with Lebedev spheres
	Using 110 Lebedev grid points for each H atom
	Using 110 Lebedev grid points for other atoms
	Atomic van der Waals radii will be scaled by 1.20
 Remove points where switching function is < 1.0e-08
 Keep 2053 surface tesserae and discard 2127 interior tesserae
 Molecular Surface Area = 438.968 Angst**2
 A cutoff of  1.0D-14 yielded  21199 shell pairs
 There are     73485 function pairs (     78055 Cartesian)
 
 -------------------------------------------------------
 OpenMP Integral Computing Module                       
 Release: version 1.0, May 2013, Q-Chem Inc. Pittsburgh 
 -------------------------------------------------------
 Integral Job Info:
 Integral job number is                      11
 Integral operator is                         1
 short-range coefficients              16700000
 long-range coefficients              100000000
 Omega coefficients                         300
 if combine SR and LR in K                    1
 Integral screening is                        0
 Integral computing path is                   2
 max size of driver memory is            800000
 size of driver memory is                593474
 size of scratch memory is             17833000
 max col of scratch BK array               1296
 max len of scratch array in speh3          155
 max len of scratch index in speh4           18
 max int batch size is                      520
 min int batch size is                       52
 fixed nKL is                                52
 max L of basis functions is                  2
 order of int derivative is                   0
 number of shells is                        244
 number of basis is                         476
 number of cartesian basis is               476
 number of contracted shell pairs         21199
 number of primitive shell pairs          48020
 maxK2 (contraction) of shell pair           64
 max number of K2 of shell pair               1
 max number of CS2 of shell pair           4859
 max number of PS2 of shell pair           6780
 mem total for path MDJ                  664638
 -------------------------------------------------------
 Smallest overlap matrix eigenvalue = 1.35E-04

 Scale SEOQF with 1.000000e-02/1.000000e-02/1.000000e-02

 Standard Electronic Orientation quadrupole field applied
 Nucleus-field energy     =     0.0000000037 hartrees
 Guess MOs from SCF MO coefficient file
 Reading MOs from coefficient file
 Reading MOs from coefficient file
 Long-range K will be added via erf
 Coulomb attenuation parameter = 0.3 bohr**(-1)
 A restricted hybrid HF-DFT SCF calculation will be
 performed using Pulay DIIS extrapolation
 Polarizable Continuum solvation model will be applied
 Exchange:     0.1670 Hartree-Fock + 1.0000 wB97X-V + LR-HF
 Correlation:  1.0000 wB97X-V
 Using SG-2 standard quadrature grid
 Nonlocal Correlation:  VV10 with C = 0.0100 and b = 6.00
 Grid used for NLC:  SG-1 standard quadrature
 SCF converges when DIIS error is below 1.0E-08
Using Q-Chem read-in guess as SCF_GUESS READ specified.

 using 16 threads for integral computing
 -------------------------------------------------------
 OpenMP Integral computing Module                
 Release: version 1.0, May 2013, Q-Chem Inc. Pittsburgh 
 -------------------------------------------------------
 using 16 threads for integral computing
 -------------------------------------------------------
 OpenMP Integral computing Module                
 Release: version 1.0, May 2013, Q-Chem Inc. Pittsburgh 
 -------------------------------------------------------
 -------------------------------------------------------
 OpenMP BLAS3 based DFT computing Module                
 Release: version 1.0, May 2013, Q-Chem Inc. Pittsburgh 
 -------------------------------------------------------
 -------------------------------------------------------
 OpenMP BLAS3 based DFT computing Module                
 Release: version 1.0, May 2013, Q-Chem Inc. Pittsburgh 
 -------------------------------------------------------
 -------------------------------------------------------
 OpenMP BLAS3 based DFT computing Module                
 Release: version 1.0, May 2013, Q-Chem Inc. Pittsburgh 
 -------------------------------------------------------
 ---------------------------------------
  Cycle       Energy         DIIS Error
 ---------------------------------------
    1   -2229.8877844994      4.68E-04
    2   -2229.9655733465      4.95E-04
    3   -2229.9726253601      2.26E-04
    4   -2229.9737725351      1.70E-04
    5   -2229.9745055155      1.27E-04
    6   -2229.9748347654      1.03E-04
    7   -2229.9751204855      7.71E-05
    8   -2229.9753742857      4.25E-05
    9   -2229.9754734465      1.38E-05
   10   -2229.9754841394      4.11E-06
   11   -2229.9754851414      7.14E-07
   12   -2229.9754851709      1.35E-07
   13   -2229.9754851723      3.03E-08
   14   -2229.9754851723      4.84E-09 Convergence criterion met
 ---------------------------------------

************** Final PCM Free Energy Summary **************
 G_electrostatic  =      -0.08767410 hartree =     -55.01632757 kcal/mol
 G_cavitation     =       0.00000000 hartree =       0.00000000 kcal/mol
 G_dispersion     =       0.00000000 hartree =       0.00000000 kcal/mol
 G_repulsion      =       0.00000000 hartree =       0.00000000 kcal/mol
 --------------------------------------------------
 Non-electrostatic Free Energy =       0.00000000 hartree =       0.00000000 kcal/mol
 Total                         =      -0.08767410 hartree =     -55.01632757 kcal/mol
 --------------------------------------------------
 SCF Energy (H0 + V/2)                       =   -2229.97548517 
 Solute Internal Energy (H0)                 =   -2229.88781107 
 Total Free Energy (H0 + V/2 + non-elec)     =   -2229.97548517 hartree
                                             = -1399330.73704345 kcal/mol
***********************************************************

 SCF time:  CPU 3790.88 s  wall 323.34 s
 SCF   energy in the final basis set = -2229.97548517
 Total energy in the final basis set = -2229.97548517
 
 --------------------------------------------------------------
 
                    Orbital Energies (a.u.)
 --------------------------------------------------------------
 
 Alpha MOs
 -- Occupied --
*******-129.703 -19.279 -19.260 -19.217 -19.212 -19.204 -19.196
-19.195 -19.184 -19.149 -19.149 -19.128 -13.300 -13.240 -10.635
-10.635 -10.634 -10.576 -10.576 -10.575 -10.352 -10.351 -10.254
-10.251 -10.247  -1.507  -1.449  -1.256  -1.160  -1.150  -1.138
 -1.129  -1.127  -1.124  -1.110  -1.092  -1.061  -1.007  -0.901
 -0.862  -0.859  -0.856  -0.844  -0.806  -0.803  -0.801  -0.773
 -0.680  -0.655  -0.646  -0.645  -0.643  -0.634  -0.626  -0.615
 -0.601  -0.586  -0.574  -0.561  -0.540  -0.527  -0.526  -0.523
 -0.520  -0.507  -0.504  -0.495  -0.492  -0.488  -0.481  -0.467
 -0.461  -0.442  -0.440  -0.434  -0.429  -0.426  -0.421  -0.418
 -0.414  -0.406  -0.395  -0.357  -0.352  -0.344  -0.340  -0.322
 -- Virtual --
  0.019   0.033   0.081   0.085   0.089   0.096   0.109   0.110
  0.119   0.129   0.135   0.140   0.148   0.152   0.158   0.168
  0.175   0.185   0.196   0.199   0.212   0.218   0.224   0.232
  0.241   0.243   0.249   0.260   0.270   0.273   0.279   0.291
  0.292   0.296   0.308   0.318   0.330   0.334   0.345   0.360
  0.370   0.393   0.402   0.413   0.417   0.435   0.446   0.449
  0.453   0.457   0.468   0.472   0.479   0.483   0.489   0.492
  0.499   0.504   0.509   0.516   0.519   0.522   0.535   0.544
  0.544   0.547   0.551   0.553   0.563   0.564   0.565   0.574
  0.580   0.591   0.596   0.602   0.603   0.615   0.616   0.620
  0.630   0.633   0.636   0.639   0.650   0.654   0.661   0.667
  0.670   0.677   0.679   0.689   0.693   0.695   0.702   0.711
  0.717   0.726   0.735   0.736   0.744   0.750   0.754   0.765
  0.770   0.782   0.790   0.807   0.817   0.827   0.834   0.847
  0.851   0.853   0.886   0.888   0.896   0.919   0.942   0.952
  0.990   1.005   1.008   1.016   1.038   1.075   1.081   1.109
  1.148   1.190   1.207   1.261   1.343   1.367   1.391   1.396
  1.407   1.420   1.431   1.431   1.450   1.462   1.467   1.477
  1.480   1.488   1.493   1.496   1.514   1.522   1.527   1.539
  1.548   1.558   1.563   1.578   1.605   1.614   1.625   1.646
  1.649   1.658   1.666   1.674   1.686   1.698   1.700   1.705
  1.711   1.715   1.731   1.734   1.755   1.760   1.774   1.784
  1.809   1.823   1.839   1.848   1.861   1.876   1.881   1.902
  1.905   1.917   1.929   1.935   1.947   1.955   1.975   1.989
  2.022   2.073   2.084   2.092   2.101   2.120   2.127   2.141
  2.147   2.161   2.166   2.183   2.210   2.217   2.239   2.241
  2.266   2.278   2.288   2.312   2.322   2.337   2.346   2.352
  2.362   2.363   2.377   2.381   2.403   2.426   2.435   2.456
  2.462   2.476   2.488   2.497   2.506   2.510   2.516   2.530
  2.535   2.544   2.559   2.579   2.586   2.631   2.633   2.658
  2.676   2.698   2.716   2.724   2.727   2.731   2.748   2.756
  2.759   2.763   2.774   2.784   2.794   2.798   2.811   2.813
  2.818   2.821   2.831   2.835   2.837   2.846   2.849   2.861
  2.872   2.882   2.888   2.892   2.893   2.896   2.904   2.923
  2.933   2.951   2.960   2.968   2.979   2.981   2.986   2.990
  3.003   3.010   3.016   3.025   3.036   3.049   3.053   3.066
  3.070   3.079   3.081   3.086   3.089   3.092   3.094   3.100
  3.111   3.115   3.125   3.128   3.135   3.144   3.151   3.187
  3.195   3.206   3.214   3.224   3.234   3.253   3.262   3.273
  3.285   3.309   3.311   3.316   3.330   3.333   3.335   3.340
  3.353   3.381   3.384   3.391   3.397   3.421   3.453   3.464
  3.490   3.500   3.530   3.546   3.556   3.590   3.604   3.623
  3.661   3.738   3.980   4.186   4.201   4.226   4.244   4.247
  4.261   4.327   4.337   4.378   4.428   4.549   4.559   4.561
  4.576   4.593   4.649   4.698  22.151  22.231  22.276  22.299
 22.319  43.320  43.382  43.402  43.428  43.498  43.558  43.595
 43.743  43.750  43.844  43.997
 --------------------------------------------------------------
 
          Ground-State Mulliken Net Atomic Charges

     Atom                 Charge (a.u.)
  ----------------------------------------
      1 C                    -0.404314
      2 C                     0.085305
      3 H                     0.113019
      4 H                     0.126784
      5 H                     0.130949
      6 C                    -0.171411
      7 C                    -0.218701
      8 H                     0.116829
      9 H                     0.085366
     10 H                     0.108552
     11 H                     0.151140
     12 O                    -0.603282
     13 O                    -0.281703
     14 O                    -0.333983
     15 H                     0.335779
     16 C                     0.138905
     17 O                    -0.561025
     18 O                    -0.557188
     19 K                     0.944081
     20 K                     0.876436
     21 O                    -0.640684
     22 H                     0.296083
     23 H                     0.309932
     24 O                    -0.600299
     25 H                     0.324387
     26 H                     0.305647
     27 O                    -0.622339
     28 H                     0.305847
     29 H                     0.314963
     30 O                    -0.643744
     31 H                     0.327613
     32 H                     0.309843
     33 O                    -0.598876
     34 H                     0.299798
     35 H                     0.288180
     36 O                    -0.644971
     37 H                     0.300613
     38 H                     0.286467
  ----------------------------------------
  Sum of atomic charges =    -0.000000

 -----------------------------------------------------------------
                    Cartesian Multipole Moments
 -----------------------------------------------------------------
    Charge (ESU x 10^10)
                -0.0000
    Dipole Moment (Debye)
         X       6.3342      Y       8.7364      Z       3.3991
       Tot      11.3138
    Quadrupole Moments (Debye-Ang)
        XX     -65.1053     XY     -46.7865     YY     -59.9086
        XZ     -46.8605     YZ      13.4767     ZZ    -144.2687
    Octopole Moments (Debye-Ang^2)
       XXX      12.8337    XXY      53.5481    XYY    -161.3504
       YYY     401.5285    XXZ      14.0537    XYZ     -27.2863
       YYZ     187.2838    XZZ     -47.6973    YZZ     107.5108
       ZZZ     309.9226
    Hexadecapole Moments (Debye-Ang^3)
      XXXX   -2730.2950   XXXY     434.5687   XXYY    -423.9374
      XYYY     505.8675   YYYY   -2975.0455   XXXZ      56.8334
      XXYZ     156.9139   XYYZ    -132.7585   YYYZ    -665.4265
      XXZZ    -947.7674   XYZZ     313.4998   YYZZ   -1054.5916
      XZZZ     296.2270   YZZZ    -770.5961   ZZZZ   -3233.3479
 -----------------------------------------------------------------
 Calculating analytic gradient of the SCF energy
 Gradient of SCF Energy
            1           2           3           4           5           6
    1  -0.0111651   0.0014425   0.0009590   0.0026748   0.0077760   0.0054609
    2   0.0013202  -0.0040753   0.0001872   0.0007511  -0.0017198  -0.0053722
    3  -0.0009907  -0.0058591  -0.0005051  -0.0011153   0.0028285   0.0136999
            7           8           9          10          11          12
    1  -0.0134568  -0.0005671  -0.0015356   0.0038916   0.0058640  -0.0093387
    2  -0.0108970   0.0084394  -0.0028914   0.0011898   0.0067684   0.0025304
    3  -0.0119425   0.0001595  -0.0071542   0.0149766  -0.0046585  -0.0013806
           13          14          15          16          17          18
    1   0.0011947  -0.0053188   0.0043416  -0.0046601   0.0083883  -0.0043228
    2  -0.0010644  -0.0145444   0.0129702   0.0120736  -0.0113698  -0.0086465
    3   0.0028415  -0.0008394  -0.0000239   0.0024540   0.0033107  -0.0085618
           19          20          21          22          23          24
    1  -0.0011923   0.0091609  -0.0121769   0.0064809   0.0065094  -0.0157912
    2   0.0102164  -0.0006739   0.0033035  -0.0044104   0.0009983  -0.0081056
    3   0.0033689   0.0014790   0.0029273  -0.0012102  -0.0026250   0.0075231
           25          26          27          28          29          30
    1   0.0129232   0.0015300  -0.0020151   0.0017296  -0.0004769  -0.0175288
    2   0.0048928   0.0046659   0.0004649  -0.0004269  -0.0007915   0.0035186
    3  -0.0021309  -0.0051072  -0.0068308   0.0014624   0.0049106   0.0038913
           31          32          33          34          35          36
    1   0.0129182   0.0050710  -0.0034433   0.0022933   0.0025411  -0.0114280
    2  -0.0062565   0.0039496  -0.0047145   0.0000567   0.0058820  -0.0061199
    3  -0.0053300   0.0004054  -0.0024313  -0.0021875   0.0045764   0.0050497
           37          38
    1   0.0049729   0.0062938
    2   0.0025726   0.0053283
    3   0.0021741  -0.0071547
 Max gradient component =       1.753E-02
 RMS gradient           =       6.466E-03
 Computing fast CPCM-ISWIG gradient
 Updating gradient with PCM contributions...
 -- total gradient after adding PCM contribution --
---------------------------------------------------
  Atom         X              Y              Z     
---------------------------------------------------
   1       0.000002       0.000009       0.000003
   2       0.000001      -0.000000       0.000025
   3       0.000005       0.000000      -0.000001
   4      -0.000005      -0.000001      -0.000007
   5      -0.000001      -0.000002      -0.000002
   6       0.000014       0.000000      -0.000007
   7       0.000001       0.000019       0.000027
   8      -0.000011       0.000001      -0.000006
   9       0.000003       0.000001      -0.000001
  10       0.000001      -0.000001      -0.000000
  11       0.000001      -0.000005      -0.000004
  12       0.000014      -0.000004      -0.000014
  13      -0.000017      -0.000004       0.000019
  14       0.000019      -0.000004       0.000001
  15      -0.000014       0.000002      -0.000011
  16       0.000003      -0.000012      -0.000015
  17      -0.000011       0.000003      -0.000010
  18      -0.000003      -0.000000      -0.000012
  19       0.000003       0.000012       0.000017
  20      -0.000025      -0.000003       0.000015
  21       0.000024       0.000013       0.000002
  22      -0.000018      -0.000002      -0.000005
  23      -0.000001      -0.000010       0.000002
  24      -0.000001       0.000003       0.000009
  25      -0.000001      -0.000002      -0.000000
  26       0.000003      -0.000001      -0.000011
  27       0.000006       0.000008      -0.000022
  28       0.000004       0.000003       0.000013
  29       0.000007       0.000002       0.000004
  30       0.000034       0.000028      -0.000024
  31      -0.000012      -0.000014       0.000007
  32      -0.000014      -0.000013       0.000008
  33       0.000005      -0.000002       0.000001
  34      -0.000002      -0.000010       0.000006
  35       0.000004      -0.000004       0.000001
  36      -0.000010       0.000009      -0.000013
  37       0.000000      -0.000009      -0.000008
  38      -0.000007      -0.000006       0.000014
---------------------------------------------------
 Number of fixed atoms: 0
 Gradient time:  CPU 702.66 s  wall 58.03 s
Archival summary:
1\1\c5-71\JobtypUnspecified\ProcedureUnspecified\BasisUnspecified\211520\leeping\ThuJul1910:10:532018ThuJul1910:10:532018\0\\#,JobtypUnspecified,ProcedureUnspecified,BasisUnspecified,\\0,1\K\O,1,2.69215\C,2,1.3213,1,107.388\C,3,1.53199,2,114.249,1,133.883,0\H,4,1.09332,3,108.984,2,64.6837,0\H,4,1.09378,3,112.105,2,-174.988,0\H,4,1.09486,3,110.286,2,-52.6528,0\C,3,1.53984,2,114.018,1,-93.2015,0\H,8,1.09432,3,110.906,2,167.901,0\H,8,1.0957,3,106.353,2,50.4722,0\C,8,1.52866,3,112.53,2,-69.6032,0\H,11,1.09347,8,110.426,3,42.0873,0\H,11,1.09739,8,108.973,3,159.327,0\C,11,1.53242,8,115.13,3,-81.9724,0\O,14,1.26261,11,118.413,8,-39.9123,0\O,14,1.26478,11,117.624,8,141.952,0\H,2,1.54033,1,89.7771,3,121.683,0\O,17,1.02454,2,172.025,1,46.2192,0\H,18,0.96333,17,105.578,2,-139.819,0\O,3,1.5674,2,110.809,1,15.2354,0\O,20,1.4334,3,110.99,2,56.748,0\H,21,0.97072,20,104.385,3,76.1402,0\H,18,1.76336,17,101.534,2,-23.9476,0\O,23,0.985552,18,164.901,17,-2.58701,0\H,24,0.962659,23,105.94,18,-152.815,0\H,20,1.86482,3,115.681,2,179.345,0\O,26,0.975066,20,177.386,3,-106.525,0\H,27,0.963782,26,104.367,20,106.364,0\H,21,1.91682,20,95.9949,3,-175.776,0\O,29,0.973901,21,161.698,20,53.7229,0\H,30,0.964247,29,105.694,21,163.63,0\H,30,1.77984,29,104.853,21,39.0293,0\O,32,0.981879,30,163.766,29,-26.722,0\H,33,0.963445,32,106.313,30,150.291,0\H,33,1.91017,32,121.875,30,-63.8206,0\O,35,0.973532,33,147.106,32,102.648,0\H,36,0.963054,35,105.898,33,-144.138,0\K,16,2.67428,14,93.4378,11,-177.133,0\\\@

 Total job time:  382.41s(wall), 4505.82s(cpu) 
 Thu Jul 19 10:10:53 2018

        *************************************************************
        *                                                           *
        *  Thank you very much for using Q-Chem.  Have a nice day.  *
        *                                                           *
        *************************************************************


