38   
From 1-reactant-grad.out: Frame 1 / 1, Energy=   -2229.9754851723
C        0.4728262056    1.2273296706   -0.9612871092
C        0.4592250810   -0.3037697511   -0.9109853816
H        0.6964881560    1.6692182562    0.0139374516
H        1.2039136494    1.5764603039   -1.6977184306
H       -0.5084066543    1.5811419721   -1.2889346031
C       -0.4410076899   -0.8754472963    0.1998134195
C       -1.9156285632   -0.5283475913   -0.0046813386
H       -0.3113116635   -1.9631058261    0.1728178066
H       -0.1223975007   -0.5174376943    1.1836063557
H       -2.1915935895   -0.6400023857   -1.0568461649
H       -2.5310926996   -1.2360745897    0.5650454740
O        0.2965934950   -0.8839339637   -2.0869055245
O        1.8345354497   -0.7071352594   -0.2765181692
O        2.9201513258   -0.3804343614   -1.1536346616
H        3.0203334680    0.5810816134   -1.0656163285
C       -2.3285504320    0.8668188395    0.4762787477
O       -3.1680230589    1.5036524769   -0.2232830766
O       -1.8424430588    1.2972739982    1.5591463160
K       -3.0595269199    3.6753421790    1.3335546546
K        2.1146525998   -2.8613006808   -2.2667771962
O        2.2992600282   -2.3667793768   -4.9513269704
H        1.9826279208   -1.4390886669   -4.8491214015
H        3.0512393526   -2.3249212972   -5.5509002604
O        4.8069425543   -1.7887804075    0.4662321895
H        5.6944378623   -1.4182049612    0.5354965246
H        4.2962646568   -1.1519480442   -0.0649322435
O        1.7442884839   -5.1408461189   -0.7255894153
H        2.6883453373   -5.0102197677   -0.5269469351
H        1.3176334398   -5.3107463283    0.1209160792
O        4.3014955910   -4.0771780622   -0.9463810826
H        5.0801258054   -4.5353969548   -1.2810392529
H        4.6335304281   -3.3395625370   -0.3898184507
O        2.4402326637    0.4780247711    2.2314080743
H        1.6818316929    1.0389639568    2.4290226987
H        2.2128819236    0.0536654755    1.3834785283
O        1.2701567824    0.0611137638   -4.2564850967
H        1.9527542646    0.7064625944   -4.0429674742
H        0.8827645712   -0.2376749905   -3.3562993031
