21   
Iteration 0 Energy -722.75422456
C       -0.1486753537    0.6425723012   -1.8220121761
C        0.0689928594    0.7794737245   -3.3382327620
O       -0.5219996943    1.7430014256   -3.8934173471
O        0.8116961226   -0.0459777865   -3.9224140301
C        0.4291346676   -0.6042239741   -1.1689682680
H       -1.2268913238    0.7078340781   -1.6505490684
H        0.2763544759    1.5396340170   -1.3603951129
C        0.2511644934   -0.7522803499    0.3673552424
H        1.5030203775   -0.6660272202   -1.3633017036
H       -0.0220661379   -1.4978337346   -1.6142202251
C       -1.2384413335   -0.6975118028    0.7597208443
H       -1.7124754782    0.2490076219    0.4870187342
H       -1.3175272279   -0.8220523425    1.8417824368
H       -1.7853631618   -1.5128662708    0.2771176684
O        0.8388805309   -1.8790449360    0.8246650626
O        0.9059985353    0.4305376931    0.8888377907
O        1.2588832297   -0.0582487827    2.5936682166
H        1.2282028396   -0.9836071395    2.2306304331
O       -0.6793710010    0.5831663419    4.1931583913
H        0.0487045396    0.3071165960    3.5455637447
O       -1.1151028880    1.8112184912    3.7151044283
21   
Iteration 1 Energy -722.74437468
C       -0.1499525048    0.6381334251   -1.8264611959
C        0.0673118374    0.7815742304   -3.3409944326
O       -0.5249553078    1.7479734885   -3.8901908355
O        0.8110480680   -0.0404536802   -3.9290474709
C        0.4290094951   -0.6088090187   -1.1777384421
H       -1.2280307133    0.7018580457   -1.6536079173
H        0.2751440755    1.5337419787   -1.3613949696
C        0.2478976067   -0.7472500174    0.3557125390
H        1.5032918047   -0.6699189939   -1.3706493387
H       -0.0195783962   -1.5042113403   -1.6223849798
C       -1.2402549473   -0.6935177748    0.7557278260
H       -1.7187902578    0.2490808878    0.4777793912
H       -1.3131117830   -0.8091626134    1.8395863948
H       -1.7877035216   -1.5147514242    0.2833618199
O        0.8371040548   -1.8711367679    0.8219087563
O        0.9023081355    0.4421795934    0.8578632441
O        1.2598876377   -0.0618726401    2.6064857404
H        1.2281126586   -0.9820709336    2.2309932924
O       -0.6796507694    0.5846855758    4.1922999180
H        0.0502320295    0.3073559938    3.5436828719
O       -1.1137721354    1.8086373778    3.7156072156
21   
Iteration 2 Energy -722.75342755
C       -0.1492968019    0.6403471188   -1.8242142406
C        0.0681635149    0.7805281176   -3.3395906680
O       -0.5234750326    1.7455007091   -3.8917731867
O        0.8113831697   -0.0432121944   -3.9257196470
C        0.4290880216   -0.6065238522   -1.1733415362
H       -1.2274442628    0.7048382123   -1.6520547052
H        0.2757657606    1.5366837214   -1.3608674936
C        0.2495262325   -0.7497609054    0.3615415297
H        1.5031728840   -0.6679886407   -1.3669609840
H       -0.0208088510   -1.5010279236   -1.6182969309
C       -1.2393574779   -0.6955241030    0.7577434007
H       -1.7156452317    0.2490399778    0.4824141475
H       -1.3153188231   -0.8156218615    1.8407195437
H       -1.7865535391   -1.5138311819    0.2802547386
O        0.8379792911   -1.8751139000    0.8233029200
O        0.9041570159    0.4363869938    0.8733642858
O        1.2593826563   -0.0600395253    2.6000410746
H        1.2281576676   -0.9828536943    2.2308065503
O       -0.6795266645    0.5839442098    4.1927331003
H        0.0494677312    0.3072392779    3.5446210699
O       -1.1144292422    1.8099092724    3.7153611087
21   
Iteration 3 Energy -722.75524453
C       -0.1490818851    0.6415739329   -1.8231207681
C        0.0685109414    0.7800150308   -3.3389595131
O       -0.5229285560    1.7445080825   -3.8930335449
O        0.8117072249   -0.0449022332   -3.9241673054
C        0.4291348041   -0.6054202184   -1.1712223941
H       -1.2273638540    0.7064530031   -1.6512639416
H        0.2760050063    1.5383971341   -1.3606386865
C        0.2504260088   -0.7510797578    0.3644329208
H        1.5032223035   -0.6670457690   -1.3652650825
H       -0.0214996100   -1.4995500628   -1.6163929035
C       -1.2388714929   -0.6965509721    0.7586556934
H       -1.7139600267    0.2491202365    0.4845124208
H       -1.3165124984   -0.8188629391    1.8412873940
H       -1.7859376236   -1.5134783489    0.2784995180
O        0.8387035710   -1.8774975266    0.8241480792
O        0.9051931419    0.4334029067    0.8810966555
O        1.2591282591   -0.0590884969    2.5970971142
H        1.2281311644   -0.9832590127    2.2306722469
O       -0.6795508724    0.5837193872    4.1929244607
H        0.0491610209    0.3072003690    3.5448867415
O       -1.1146916584    1.8104120078    3.7153874118
21   
Iteration 4 Energy -722.75544217
C       -0.1489647706    0.6428467586   -1.8210763969
C        0.0682761791    0.7797032114   -3.3375683470
O       -0.5238050918    1.7447448507   -3.8949884496
O        0.8122863014   -0.0473801006   -3.9227902765
C        0.4303340513   -0.6056559925   -1.1693960036
H       -1.2281474040    0.7077711185   -1.6489462401
H        0.2765038734    1.5410683148   -1.3593247817
C        0.2523717194   -0.7526961144    0.3669259543
H        1.5052330981   -0.6673904306   -1.3644127696
H       -0.0217063737   -1.4999448524   -1.6155992369
C       -1.2379444017   -0.6977084152    0.7586433091
H       -1.7110935010    0.2499361302    0.4840826277
H       -1.3186110669   -0.8218256201    1.8418261608
H       -1.7847447071   -1.5142030318    0.2749835256
O        0.8410257251   -1.8829602605    0.8265965051
O        0.9074718031    0.4306088424    0.8889761585
O        1.2570350684   -0.0577204218    2.5967526431
H        1.2272981075   -0.9832047621    2.2301459405
O       -0.6798095005    0.5853322708    4.1918512311
H        0.0505744627    0.3077072138    3.5414760740
O       -1.1136508728    1.8084294439    3.7175482880
21   
Iteration 5 Energy -722.75550644
C       -0.1469222364    0.6431255557   -1.8178161190
C        0.0686146614    0.7786700979   -3.3344192886
O       -0.5249229512    1.7447673476   -3.8910272181
O        0.8116532902   -0.0490698211   -3.9219500562
C        0.4346990167   -0.6063221546   -1.1670904260
H       -1.2267664596    0.7074228646   -1.6449408821
H        0.2795527620    1.5428589815   -1.3578079445
C        0.2557895943   -0.7488997108    0.3692366797
H        1.5102950979   -0.6670863676   -1.3631373017
H       -0.0183928835   -1.5014943316   -1.6127715740
C       -1.2351066770   -0.6951947912    0.7592012169
H       -1.7073952244    0.2520163488    0.4788843644
H       -1.3191929519   -0.8164370953    1.8433192013
H       -1.7795030146   -1.5143512390    0.2751451582
O        0.8456281233   -1.8791100214    0.8350428719
O        0.9106038644    0.4354305392    0.8900140407
O        1.2513984633   -0.0576825338    2.5949137223
H        1.2243725348   -0.9859978531    2.2318896104
O       -0.6771451131    0.5853884605    4.1879797996
H        0.0525923783    0.3078552244    3.5328775373
O       -1.1130212780    1.8087392187    3.7241705599
21   
Iteration 6 Energy -722.75543106
C       -0.1451432400    0.6434271329   -1.8160305522
C        0.0712742339    0.7769524615   -3.3324881510
O       -0.5203131967    1.7419134382   -3.8949598139
O        0.8140525247   -0.0528641537   -3.9184089262
C        0.4374149368   -0.6083390554   -1.1672841649
H       -1.2256762546    0.7066421982   -1.6447053812
H        0.2815473792    1.5442371261   -1.3571442703
C        0.2580002986   -0.7545962481    0.3682675720
H        1.5135403089   -0.6672200416   -1.3639143408
H       -0.0176407234   -1.5014897288   -1.6160742793
C       -1.2325132140   -0.7021830705    0.7579956741
H       -1.7022745466    0.2472437302    0.4789070133
H       -1.3194849985   -0.8276896196    1.8418133466
H       -1.7759718343   -1.5191268255    0.2680774349
O        0.8482509030   -1.8888637038    0.8313265564
O        0.9137731881    0.4241907016    0.9006272865
O        1.2509497633   -0.0556002790    2.6045649037
H        1.2154184384   -0.9805136179    2.2271439492
O       -0.6734586657    0.5843231561    4.1832423383
H        0.0544030365    0.3074953425    3.5211026870
O       -1.1119314128    1.8108342405    3.7340640778
21   
Iteration 7 Energy -722.75550836
C       -0.1468366029    0.6438102730   -1.8175457405
C        0.0697018298    0.7779075040   -3.3340281716
O       -0.5221071450    1.7429478590   -3.8952324623
O        0.8129975270   -0.0512033762   -3.9196683630
C        0.4349745944   -0.6067635926   -1.1674739528
H       -1.2269521996    0.7078773890   -1.6455396475
H        0.2796150212    1.5440352965   -1.3580466068
C        0.2563451144   -0.7517069183    0.3683640619
H        1.5107726916   -0.6667593431   -1.3638400059
H       -0.0190639471   -1.5008187391   -1.6147248718
C       -1.2340963579   -0.6985966629    0.7588668244
H       -1.7052346629    0.2499343405    0.4801845506
H       -1.3189369463   -0.8225458675    1.8427478643
H       -1.7783937221   -1.5163084788    0.2719151178
O        0.8468908013   -1.8843238873    0.8318879274
O        0.9113436649    0.4298266236    0.8952238304
O        1.2517481074   -0.0565185755    2.5996343420
H        1.2209012133   -0.9836734458    2.2295685825
O       -0.6760581936    0.5852606474    4.1863593241
H        0.0536547470    0.3072860960    3.5285393282
O       -1.1128009264    1.8096416664    3.7278086566
21   
Iteration 8 Energy -722.75552517
C       -0.1461092866    0.6431899218   -1.8172402439
C        0.0698778646    0.7776523843   -3.3336860733
O       -0.5228147390    1.7434741041   -3.8922581181
O        0.8126026355   -0.0506554941   -3.9208469010
C        0.4357709311   -0.6069795360   -1.1667396733
H       -1.2260762964    0.7071780724   -1.6451417613
H        0.2805506046    1.5432393407   -1.3579123857
C        0.2565095659   -0.7498693142    0.3690072015
H        1.5114420156   -0.6667531629   -1.3630352756
H       -0.0179899427   -1.5013508241   -1.6133467036
C       -1.2340239932   -0.6971009262    0.7587314441
H       -1.7055177137    0.2505943477    0.4783990492
H       -1.3193534829   -0.8195721053    1.8425735973
H       -1.7775775529   -1.5157128674    0.2726692209
O        0.8471571418   -1.8814849102    0.8347936892
O        0.9111103506    0.4327964635    0.8944233647
O        1.2516775041   -0.0569603440    2.5981375921
H        1.2205072064   -0.9847829893    2.2299367803
O       -0.6760444517    0.5850288093    4.1864337072
H        0.0534932378    0.3072562192    3.5281867920
O       -1.1128062562    1.8101061011    3.7284113865
21   
Iteration 9 Energy -722.75553379
C       -0.1444858760    0.6434822055   -1.8170159271
C        0.0719432883    0.7767312734   -3.3334725621
O       -0.5186331094    1.7424371914   -3.8944346996
O        0.8138948215   -0.0530983950   -3.9190966561
C        0.4369984541   -0.6062093113   -1.1651747209
H       -1.2243644910    0.7076360693   -1.6455948869
H        0.2826500242    1.5435039232   -1.3584875986
C        0.2568475268   -0.7465744112    0.3701072096
H        1.5126600132   -0.6651478632   -1.3609912227
H       -0.0167294436   -1.5006232390   -1.6112187974
C       -1.2335237965   -0.6958644455    0.7598180691
H       -1.7066559804    0.2504135044    0.4779584493
H       -1.3188378862   -0.8171221555    1.8435935460
H       -1.7755097645   -1.5157844985    0.2745381319
O        0.8489937035   -1.8769281720    0.8382676144
O        0.9100752900    0.4371540442    0.8949653601
O        1.2508795980   -0.0579797030    2.5973315795
H        1.2178250242   -0.9862695092    2.2285897818
O       -0.6754963466    0.5843127736    4.1861688577
H        0.0535940947    0.3077797902    3.5257545648
O       -1.1119645290    1.8111823479    3.7318479584
21   
Iteration 10 Energy -722.75553682
C       -0.1408135472    0.6428218214   -1.8170985301
C        0.0773561864    0.7735456002   -3.3333959911
O       -0.5132737073    1.7414507647   -3.8903316329
O        0.8174242119   -0.0573719643   -3.9198008072
C        0.4394069123   -0.6062756056   -1.1630465022
H       -1.2208770557    0.7071180821   -1.6473159241
H        0.2863950479    1.5431415822   -1.3594787438
C        0.2559594241   -0.7436542650    0.3712799468
H        1.5153631658   -0.6646164137   -1.3567375140
H       -0.0141162404   -1.5005440283   -1.6090649583
C       -1.2347385044   -0.6950595859    0.7589967395
H       -1.7093017711    0.2497164587    0.4747562434
H       -1.3213227894   -0.8148567400    1.8426850920
H       -1.7745164248   -1.5163979617    0.2739198055
O        0.8485815211   -1.8730203059    0.8426072347
O        0.9071214850    0.4406822517    0.8973188530
O        1.2485813696   -0.0586199996    2.5978506651
H        1.2144357537   -0.9863769919    2.2250664212
O       -0.6743007264    0.5831477981    4.1857569359
H        0.0542590660    0.3079672370    3.5231140575
O       -1.1096665806    1.8127844073    3.7372704210
21   
Iteration 11 Energy -722.75554271
C       -0.1390591309    0.6430892845   -1.8178995059
C        0.0805720177    0.7728257084   -3.3341926895
O       -0.5061576436    1.7406109574   -3.8954919102
O        0.8195047634   -0.0607535388   -3.9181773521
C        0.4400119272   -0.6061416926   -1.1629008172
H       -1.2193404097    0.7076601756   -1.6491978255
H        0.2880802114    1.5435136888   -1.3603259328
C        0.2544047265   -0.7428818857    0.3708796304
H        1.5163404613   -0.6646717515   -1.3547433006
H       -0.0132679672   -1.5002653826   -1.6095151759
C       -1.2367384904   -0.6954108425    0.7569262230
H       -1.7120118542    0.2487585234    0.4715326685
H       -1.3241725881   -0.8145089376    1.8406867194
H       -1.7753347473   -1.5175960802    0.2718630825
O        0.8472553651   -1.8720074023    0.8433519803
O        0.9039373694    0.4418329186    0.8981560971
O        1.2483445563   -0.0582251859    2.5976966309
H        1.2128982936   -0.9862117194    2.2238396456
O       -0.6746384615    0.5827491380    4.1865784637
H        0.0540369537    0.3068190235    3.5240615017
O       -1.1074285348    1.8139864962    3.7402886193
21   
Iteration 12 Energy -722.75554613
C       -0.1358749401    0.6427899461   -1.8200896852
C        0.0866556854    0.7709733977   -3.3362253852
O       -0.4948588972    1.7398491274   -3.9009262788
O        0.8241836307   -0.0656862915   -3.9174962517
C        0.4412454395   -0.6062740708   -1.1628997013
H       -1.2164994526    0.7078108688   -1.6535067141
H        0.2905084176    1.5435311471   -1.3624971357
C        0.2525350748   -0.7423428849    0.3705509331
H        1.5180705215   -0.6654104538   -1.3517883342
H       -0.0112301983   -1.5004010398   -1.6103303779
C       -1.2394342126   -0.6955460237    0.7539390148
H       -1.7153844382    0.2477537725    0.4666107900
H       -1.3282765673   -0.8131113921    1.8378080368
H       -1.7767185208   -1.5189497180    0.2694053093
O        0.8451619506   -1.8711294459    0.8443371175
O        0.9006639603    0.4428210603    0.8988006971
O        1.2456817600   -0.0579461079    2.5979261003
H        1.2114495926   -0.9854862279    2.2214772138
O       -0.6749806634    0.5814441866    4.1882165814
H        0.0538460748    0.3067494918    3.5256972554
O       -1.1038754494    1.8151954177    3.7449908515
21   
Iteration 13 Energy -722.75554835
C       -0.1299508630    0.6419782632   -1.8249290525
C        0.0984083126    0.7676845973   -3.3404236991
O       -0.4759560148    1.7390877971   -3.9081015941
O        0.8326765111   -0.0741408422   -3.9185040288
C        0.4439419553   -0.6067229178   -1.1642390399
H       -1.2112546720    0.7075692201   -1.6623707221
H        0.2947917551    1.5433169780   -1.3669770635
C        0.2497283643   -0.7415301678    0.3684789735
H        1.5216468384   -0.6665434917   -1.3481521131
H       -0.0067798841   -1.5010416423   -1.6131407598
C       -1.2433676315   -0.6957286173    0.7478421071
H       -1.7201834408    0.2460725697    0.4567218722
H       -1.3345834557   -0.8101523723    1.8319820858
H       -1.7784180847   -1.5214146985    0.2645861211
O        0.8422968903   -1.8696878871    0.8446608025
O        0.8951738337    0.4443943222    0.8983033660
O        1.2449585257   -0.0563075001    2.5969100891
H        1.2063994682   -0.9843205144    2.2196238761
O       -0.6772726943    0.5794025859    4.1915458948
H        0.0516079393    0.3044436590    3.5290073354
O       -1.0976455333    1.8178301301    3.7538969802
21   
Iteration 14 Energy -722.75555127
C       -0.1271434159    0.6409897680   -1.8269977249
C        0.1035163423    0.7662972538   -3.3421395100
O       -0.4684211793    1.7390396561   -3.9098981639
O        0.8364302223   -0.0770062145   -3.9197289726
C        0.4457954954   -0.6071796718   -1.1647814507
H       -1.2087163988    0.7064515924   -1.6662209557
H        0.2965061848    1.5426052988   -1.3686839209
C        0.2497052882   -0.7410896748    0.3678848079
H        1.5237101086   -0.6672347556   -1.3472603332
H       -0.0041310100   -1.5018001112   -1.6138254092
C       -1.2437332335   -0.6943561182    0.7451804087
H       -1.7198701751    0.2469642947    0.4515864809
H       -1.3365312295   -0.8067194300    1.8293815342
H       -1.7782079580   -1.5208659671    0.2627886843
O        0.8409583670   -1.8690796989    0.8455565111
O        0.8949216288    0.4449368291    0.8978891393
O        1.2412222044   -0.0555222125    2.5969493235
H        1.2056366687   -0.9835008195    2.2196637940
O       -0.6774548361    0.5777349989    4.1918733862
H        0.0513358474    0.3033960555    3.5293175366
O       -1.0954031323    1.8184197581    3.7577928649
21   
Iteration 15 Energy -722.75555332
C       -0.1237412080    0.6395180636   -1.8295439185
C        0.1096843285    0.7645119617   -3.3441900538
O       -0.4585981383    1.7397225329   -3.9114657039
O        0.8417507568   -0.0798513577   -3.9213218600
C        0.4486173079   -0.6078701522   -1.1655815742
H       -1.2056975149    0.7044819837   -1.6711962495
H        0.2982083677    1.5416367949   -1.3706393832
C        0.2509898684   -0.7408697115    0.3671742845
H        1.5266987419   -0.6679838234   -1.3472109635
H       -0.0003983359   -1.5030993022   -1.6143432697
C       -1.2427657422   -0.6922270684    0.7426208459
H       -1.7176112934    0.2487564744    0.4460083493
H       -1.3372038348   -0.8018654839    1.8269342207
H       -1.7771757861   -1.5195149027    0.2615299970
O        0.8406460806   -1.8689487923    0.8459718995
O        0.8966745106    0.4451584217    0.8968025790
O        1.2387330827   -0.0548312823    2.5966404563
H        1.2039226375   -0.9824039332    2.2198511302
O       -0.6791195654    0.5752954442    4.1925443252
H        0.0493770651    0.3030605478    3.5287552162
O       -1.0939632370    1.8186212490    3.7633201560
21   
Iteration 16 Energy -722.75555476
C       -0.1192849794    0.6387420896   -1.8334079441
C        0.1187682277    0.7632168206   -3.3472944145
O       -0.4456326713    1.7400876544   -3.9156975994
O        0.8481148307   -0.0843595219   -3.9231499649
C        0.4517886690   -0.6079747028   -1.1672274944
H       -1.2018015001    0.7030939119   -1.6786835079
H        0.3004877892    1.5413636202   -1.3735603095
C        0.2518554269   -0.7401727830    0.3653758170
H        1.5301586501   -0.6680872907   -1.3472643123
H        0.0038115743   -1.5037400538   -1.6159343467
C       -1.2422470042   -0.6898011267    0.7390985495
H       -1.7160717925    0.2507699865    0.4396802858
H       -1.3380529485   -0.7967689762    1.8235337041
H       -1.7765953694   -1.5178932224    0.2593760305
O        0.8400297149   -1.8684435170    0.8451001587
O        0.8978041442    0.4456519642    0.8954067624
O        1.2360870298   -0.0534224329    2.5961799734
H        1.2020329931   -0.9814443577    2.2212138829
O       -0.6815829353    0.5722087652    4.1932302479
H        0.0471138016    0.3015764981    3.5287613367
O       -1.0924235823    1.8189145973    3.7698906104
21   
Iteration 17 Energy -722.75555587
C       -0.1145549441    0.6379445051   -1.8370480726
C        0.1281455784    0.7617869260   -3.3502728244
O       -0.4299691943    1.7415947261   -3.9199543930
O        0.8558105244   -0.0884259340   -3.9243418063
C        0.4554218169   -0.6080737701   -1.1685638234
H       -1.1977061878    0.7012940942   -1.6862294863
H        0.3027580029    1.5411414880   -1.3761122144
C        0.2530744104   -0.7390949195    0.3637785854
H        1.5340882326   -0.6681475151   -1.3469229073
H        0.0082590984   -1.5043437802   -1.6170473319
C       -1.2414467904   -0.6869080517    0.7354196420
H       -1.7142113480    0.2532655566    0.4330177564
H       -1.3387082418   -0.7910982737    1.8199847072
H       -1.7757164739   -1.5158019413    0.2569909040
O        0.8396904314   -1.8675150840    0.8449590921
O        0.8990704663    0.4466224813    0.8942864296
O        1.2342583154   -0.0517879727    2.5959239084
H        1.1996342175   -0.9800354813    2.2218735705
O       -0.6849862773    0.5686228083    4.1936658560
H        0.0443968410    0.2990361503    3.5291340900
O       -1.0913747973    1.8189467648    3.7765339555
21   
Iteration 18 Energy -722.75555692
C       -0.1100733909    0.6378002481   -1.8390013751
C        0.1367918747    0.7618197888   -3.3516056763
O       -0.4165903953    1.7435458954   -3.9226284369
O        0.8619909454   -0.0912632056   -3.9244554350
C        0.4591022726   -0.6077763580   -1.1689559083
H       -1.1938276642    0.6997499715   -1.6916912876
H        0.3047740333    1.5414076647   -1.3766993369
C        0.2542369876   -0.7378428302    0.3629614287
H        1.5380244157   -0.6677980671   -1.3457743009
H        0.0125323319   -1.5043234988   -1.6174326354
C       -1.2407623842   -0.6840617741    0.7324241899
H       -1.7124148823    0.2560135395    0.4278888182
H       -1.3394784742   -0.7864243232    1.8170287210
H       -1.7750552868   -1.5132593241    0.2545232346
O        0.8391744569   -1.8665251879    0.8456232568
O        0.9002828397    0.4476471941    0.8940679917
O        1.2334614263   -0.0506157353    2.5961212071
H        1.1981258268   -0.9786975164    2.2217345581
O       -0.6887438502    0.5647605853    4.1934398689
H        0.0416113365    0.2974883232    3.5287340312
O       -1.0916468091    1.8179467152    3.7818510588
21   
Iteration 19 Energy -722.75555861
C       -0.1025658667    0.6386949949   -1.8425524701
C        0.1522958115    0.7630203596   -3.3539017608
O       -0.3912333738    1.7491425880   -3.9268020052
O        0.8736795531   -0.0948512771   -3.9243202753
C        0.4649808423   -0.6062032114   -1.1697387448
H       -1.1873758603    0.6981619996   -1.7018408354
H        0.3076733375    1.5429646706   -1.3775757872
C        0.2560326938   -0.7349790446    0.3615430983
H        1.5443668964   -0.6660820493   -1.3437534450
H        0.0194964931   -1.5031298523   -1.6184749589
C       -1.2397375551   -0.6793170274    0.7277388054
H       -1.7099122319    0.2607753946    0.4208833167
H       -1.3406000385   -0.7798216716    1.8123026120
H       -1.7739778416   -1.5086610167    0.2500215523
O        0.8388218621   -1.8640810245    0.8460426389
O        0.9019905250    0.4500002073    0.8942800498
O        1.2317030813   -0.0482745202    2.5969044312
H        1.1963596074   -0.9766042120    2.2222920207
O       -0.6956288065    0.5570469696    4.1918341355
H        0.0370409799    0.2944420869    3.5275690426
O       -1.0928068102    1.8153201591    3.7904058181
21   
Iteration 20 Energy -722.75556499
C       -0.0768601111    0.6418625942   -1.8529246521
C        0.2040976115    0.7680164195   -3.3597267011
O       -0.3071692316    1.7689749136   -3.9365488057
O        0.9112589423   -0.1054710363   -3.9240401590
C        0.4850671635   -0.6007929934   -1.1710364085
H       -1.1647968248    0.6935102169   -1.7335663315
H        0.3181185820    1.5481984183   -1.3792870442
C        0.2622150719   -0.7251526207    0.3581778572
H        1.5660114579   -0.6602927037   -1.3352671956
H        0.0437941768   -1.4990839802   -1.6210052047
C       -1.2363692383   -0.6642078239    0.7117488440
H       -1.7015766708    0.2756900793    0.3965403323
H       -1.3459909210   -0.7587553469    1.7959378386
H       -1.7692370743   -1.4943476088    0.2338500478
O        0.8382085705   -1.8550690532    0.8496116348
O        0.9067130742    0.4590448040    0.8954550871
O        1.2249614090   -0.0410814428    2.5997574278
H        1.1901682088   -0.9689594894    2.2217469518
O       -0.7187183211    0.5317693794    4.1858242919
H        0.0220902614    0.2828102335    3.5247741790
O       -1.0953323055    1.8068437332    3.8189838773
21   
Iteration 21 Energy -722.73342591
C       -0.0784133946    0.6361245264   -1.8532518821
C        0.1975598469    0.7612640811   -3.3447064913
O       -0.3687167342    1.8148006314   -3.7580597733
O        0.9044299149   -0.0794231106   -3.9825541196
C        0.4807938815   -0.5950378755   -1.1778841722
H       -1.1670414867    0.6959649646   -1.7306684250
H        0.3176311990    1.5435280583   -1.3778709735
C        0.2566419860   -0.7213213586    0.3584695909
H        1.5646149235   -0.6554382230   -1.3410916361
H        0.0491480163   -1.4965431419   -1.6295350234
C       -1.2372726008   -0.6698509368    0.6859622556
H       -1.6881624416    0.2678508700    0.3575724627
H       -1.3851637510   -0.7669337357    1.7671170584
H       -1.7469924591   -1.5037132307    0.1946133143
O        0.8268644839   -1.8331717400    0.8607577553
O        0.8894905812    0.4558546968    0.9049630327
O        1.2096113706   -0.0469112348    2.5645693979
H        1.2059730448   -0.9818506015    2.2518305660
O       -0.7182989773    0.5299415997    4.1803896319
H        0.0076039245    0.2833101718    3.5087676551
O       -1.0607138705    1.8239316412    3.8467146329
21   
Iteration 22 Energy -722.74934645
C       -0.0774519209    0.6388574166   -1.8529730109
C        0.2010756959    0.7644605092   -3.3521565611
O       -0.3391179924    1.7939920154   -3.8491200330
O        0.9084729238   -0.0932551419   -3.9531462854
C        0.4830743544   -0.5980816918   -1.1742440748
H       -1.1657452214    0.6945913904   -1.7320528670
H        0.3180550416    1.5457319895   -1.3784915588
C        0.2595097265   -0.7233279789    0.3585271059
H        1.5654487360   -0.6580655955   -1.3379208664
H        0.0465655470   -1.4979816538   -1.6250373140
C       -1.2368503326   -0.6670296307    0.6989807725
H       -1.6949367169    0.2717777094    0.3770655487
H       -1.3655589524   -0.7627447371    1.7818289553
H       -1.7582666477   -1.4990526217    0.2143191200
O        0.8326032653   -1.8442666493    0.8554928566
O        0.8982405320    0.4574015131    0.9003951157
O        1.2172575888   -0.0436321002    2.5822646874
H        1.1980810825   -0.9756940973    2.2366529707
O       -0.7184618833    0.5308018606    4.1831270728
H        0.0149302518    0.2829048002    3.5168406316
O       -1.0782461943    1.8154939069    3.8327018698
21   
Iteration 23 Energy -722.75391386
C       -0.0770836964    0.6403268432   -1.8528984634
C        0.2026757770    0.7661894407   -3.3559292977
O       -0.3233854402    1.7819371334   -3.8933916273
O        0.9100398986   -0.0995854833   -3.9385287179
C        0.4841346090   -0.5994879983   -1.1725354201
H       -1.1652016567    0.6939998184   -1.7327760227
H        0.3181536850    1.5469367309   -1.3788593283
C        0.2609072521   -0.7242504051    0.3584581464
H        1.5657859767   -0.6592442712   -1.3364765111
H        0.0452123044   -1.4985806076   -1.6229026191
C       -1.2366105716   -0.6655831158    0.7054319580
H       -1.6982728397    0.2737726886    0.3868350902
H       -1.3557477708   -0.7606749843    1.7889930881
H       -1.7638038652   -1.4966664940    0.2241516889
O        0.8354411545   -1.8497124705    0.8526967869
O        0.9025561949    0.4582380933    0.8980134473
O        1.2211077850   -0.0422594564    2.5910743212
H        1.1941089188   -0.9723752989    2.2290956934
O       -0.7185700516    0.5312620770    4.1844689898
H        0.0185593356    0.2828072158    3.5208686384
O       -1.0869223349    1.8111630154    3.8257404487
21   
Iteration 24 Energy -722.75514306
C       -0.0769288106    0.6410806185   -1.8528798901
C        0.2034318956    0.7670774085   -3.3578171539
O       -0.3153476648    1.7755537742   -3.9150567786
O        0.9107087794   -0.1025896307   -3.9312918491
C        0.4846411600   -0.6001587487   -1.1717158972
H       -1.1649577454    0.6937284355   -1.7331457772
H        0.3181743753    1.5475594091   -1.3790591373
C        0.2615917636   -0.7246889936    0.3583979249
H        1.5659336416   -0.6597970227   -1.3357952809
H        0.0445250628   -1.4988497027   -1.6218716750
C       -1.2364846782   -0.6648566019    0.7086205584
H       -1.6999173736    0.2747702492    0.3916915371
H       -1.3508730812   -0.7596534019    1.7925030046
H       -1.7665293547   -1.4954688883    0.2290293632
O        0.8368425264   -1.8523920155    0.8512659094
O        0.9046836742    0.4586689382    0.8968046899
O        1.2230258247   -0.0416433858    2.5954386165
H        1.1921309039   -0.9706681287    2.2253526349
O       -0.7186305779    0.5314983325    4.1851295787
H        0.0203525400    0.2827849978    3.5228659621
O       -1.0912074651    1.8089854908    3.8222958028
21   
Iteration 25 Energy -722.75545958
C       -0.0768606048    0.6414602239   -1.8528766397
C        0.2037954479    0.7675244794   -3.3587563348
O       -0.3113124336    1.7722973183   -3.9257082222
O        0.9110124527   -0.1040436197   -3.9277125767
C        0.4848854173   -0.6004836188   -1.1713197427
H       -1.1648449313    0.6936007452   -1.7333329201
H        0.3181763244    1.5478740355   -1.3791632829
C        0.2619272252   -0.7249029827    0.3583587789
H        1.5660004078   -0.6600618401   -1.3354696674
H        0.0441799051   -1.4989754619   -1.6213714042
C       -1.2364209810   -0.6644973216    0.7101949683