
Running Job 1 of 1 qc-freq1.in
qchem qc-freq1.in_6866.0 /scratch/leeping/1862665/qc-freq1.d/ 1
/home/leeping/opt/qchem/5.0.2-openmp/exe/qcprog.exe_s qc-freq1.in_6866.0 /scratch/leeping/1862665/qc-freq1.d/
Check license passed

                  Welcome to Q-Chem
     A Quantum Leap Into The Future Of Chemistry


 Q-Chem 5.0, Q-Chem, Inc., Pleasanton, CA (2017)

 Yihan Shao,  Zhengting Gan,  E. Epifanovsky,  A. T. B. Gilbert,  M. Wormit,  
 J. Kussmann,  A. W. Lange,  A. Behn,  Jia Deng,  Xintian Feng,  D. Ghosh,  
 M. Goldey,  P. R. Horn,  L. D. Jacobson,  I. Kaliman,  T. Kus,  A. Landau,  
 Jie Liu,  E. I. Proynov,  R. M. Richard,  R. P. Steele,  E. J. Sundstrom,  
 H. L. Woodcock III,  P. M. Zimmerman,  D. Zuev,  B. Albrecht,  E. Alguire,  
 S. A. Baeppler,  D. Barton,  Z. Benda,  Y. A. Bernard,  E. J. Berquist,  
 K. B. Bravaya,  H. Burton,  D. Casanova,  Chun-Min Chang,  Yunqing Chen,  
 A. Chien,  K. D. Closser,  M. P. Coons,  S. Dasgupta,  A. L. Dempwolff,  
 M. Diedenhofen,  Hainam Do,  R. G. Edgar,  Po-Tung Fang,  S. Fatehi,  
 Qingguo Feng,  J. Fosso-Tande,  Qinghui Ge,  A. Ghysels,  G. Gidofalvi,  
 J. Gomes,  J. Gonthier,  A. Gunina,  M. W. D. Hanson-Heine,  
 P. H. P. Harbach,  A. W. Hauser,  J. E. Herr,  E. G. Hohenstein,  
 Z. C. Holden,  Kerwin Hui,  T.-C. Jagau,  Hyunjun Ji,  B. Kaduk,  
 K. Khistyaev,  Jaehoon Kim,  P. Klunzinger,  K. Koh,  D. Kosenkov,  
 L. Koulias,  T. Kowalczyk,  C. M. Krauter,  A. Kunitsa,  Ka Un Lao,  
 A. Laurent,  K. V. Lawler,  Joonho Lee,  D. Lefrancois,  S. Lehtola,  
 D. S. Levine,  Yi-Pei Li,  You-Sheng Lin,  Fenglai Liu,  E. Livshits,  
 A. Luenser,  P. Manohar,  E. Mansoor,  S. F. Manzer,  Shan-Ping Mao,  
 Yuezhi Mao,  N. Mardirossian,  A. V. Marenich,  T. Markovich,  
 L. A. Martinez-Martinez,  S. A. Maurer,  N. J. Mayhall,  S. C. McKenzie,  
 J.-M. Mewes,  A. F. Morrison,  J. W. Mullinax,  K. Nanda,  
 T. S. Nguyen-Beck,  R. Olivares-Amaya,  J. A. Parkhill,  T. M. Perrine,  
 F. Plasser,  S. Prager,  A. Prociuk,  E. Ramos,  D. R. Rehn,  F. Rob,  
 M. Schneider,  N. Sergueev,  S. M. Sharada,  S. Sharma,  D. W. Small,  
 T. Stauch,  T. Stein,  Yu-Chuan Su,  A. J. W. Thom,  A. Tkatchenko,  
 T. Tsuchimochi,  L. Vogt,  O. Vydrov,  M. A. Watson,  J. Wenzel,  
 M. de Wergifosse,  T. A. Wesolowski,  A. White,  J. Witte,  A. Yamada,  
 Jun Yang,  K. Yao,  S. Yeganeh,  S. R. Yost,  Zhi-Qiang You,  A. Zech,  
 Igor Ying Zhang,  Xing Zhang,  Yan Zhao,  Ying Zhu,  B. R. Brooks,  
 G. K. L. Chan,  C. J. Cramer,  M. S. Gordon,  W. J. Hehre,  A. Klamt,  
 M. W. Schmidt,  C. D. Sherrill,  D. G. Truhlar,  A. Aspuru-Guzik,  R. Baer,  
 A. T. Bell,  N. A. Besley,  Jeng-Da Chai,  R. A. DiStasio Jr.,  A. Dreuw,  
 B. D. Dunietz,  T. R. Furlani,  Chao-Ping Hsu,  Yousung Jung,  Jing Kong,  
 D. S. Lambrecht,  WanZhen Liang,  C. Ochsenfeld,  V. A. Rassolov,  
 L. V. Slipchenko,  J. E. Subotnik,  T. Van Voorhis,  J. M. Herbert,  
 A. I. Krylov,  P. M. W. Gill,  M. Head-Gordon

 Contributors to earlier versions of Q-Chem not listed above: 
 R. D. Adamson,  B. Austin,  J. Baker,  G. J. O. Beran,  K. Brandhorst,  
 S. T. Brown,  E. F. C. Byrd,  A. K. Chakraborty,  C.-L. Cheng,  
 Siu Hung Chien,  D. M. Chipman,  D. L. Crittenden,  H. Dachsel,  
 R. J. Doerksen,  A. D. Dutoi,  L. Fusti-Molnar,  W. A. Goddard III,  
 A. Golubeva-Zadorozhnaya,  S. R. Gwaltney,  G. Hawkins,  A. Heyden,  
 S. Hirata,  G. Kedziora,  F. J. Keil,  C. Kelley,  Jihan Kim,  R. A. King,  
 R. Z. Khaliullin,  P. P. Korambath,  W. Kurlancheek,  A. M. Lee,  M. S. Lee,  
 S. V. Levchenko,  Ching Yeh Lin,  D. Liotard,  R. C. Lochan,  I. Lotan,  
 P. E. Maslen,  N. Nair,  D. P. O'Neill,  D. Neuhauser,  E. Neuscamman,  
 C. M. Oana,  R. Olson,  B. Peters,  R. Peverati,  P. A. Pieniazek,  
 Y. M. Rhee,  J. Ritchie,  M. A. Rohrdanz,  E. Rosta,  N. J. Russ,  
 H. F. Schaefer III,  N. E. Schultz,  N. Shenvi,  A. C. Simmonett,  A. Sodt,  
 D. Stuck,  K. S. Thanthiriwatte,  V. Vanovschi,  Tao Wang,  A. Warshel,  
 C. F. Williams,  Q. Wu,  X. Xu,  W. Zhang

 Please cite Q-Chem as follows:
 Y. Shao et al., Mol. Phys. 113, 184-215 (2015)
 DOI: 10.1080/00268976.2014.952696

 Q-Chem 5.0.2 for Intel X86 EM64T Linux

 Parts of Q-Chem use Armadillo 5.200.1 (Boston Tea Smuggler).
 http://arma.sourceforge.net/

 Q-Chem begins on Fri Mar 20 12:12:53 2020  

Host: 
0

     Scratch files written to /scratch/leeping/1862665/qc-freq1.d//
 Dec517 15110_ 26548  26544 5633   
Processing $rem in /home/leeping/opt/qchem/5.0.2-openmp/config/preferences.
 MEM_STATIC 2000
 MEM_TOTAL  8000
 SYMMETRY   OFF
 SYM_IGNORE TRUE 
Symmetry turned off for PCM/SM12/SMD calculation

Checking the input file for inconsistencies... 	...done.

--------------------------------------------------------------
User input:
--------------------------------------------------------------
$molecule
-2 1
C        2.0078351379    1.5435570458    0.3235128568
C        1.0699582368    0.3938107598   -0.0709485059
H        2.2682679340    1.5094688133    1.3869173638
H        2.9259054073    1.4844311941   -0.2690920613
H        1.5195799862    2.5010070823    0.1135407976
C       -0.1089655462    0.2990726905    0.9088619794
C       -1.1962996713   -0.6848338676    0.4899284112
H        0.2917153391    0.0227860867    1.8928394923
H       -0.5436328081    1.2988686315    1.0138100831
H       -0.7505937852   -1.6108489456    0.1178955245
H       -1.7953069000   -0.9530006840    1.3711681246
O        0.7633514506    0.3852193927   -1.3714744508
O        1.8419402589   -0.8892192819    0.2414457901
O        2.5560378704   -1.2010413123   -0.9603501296
H        1.9443999673   -0.6666233928   -1.5718690247
C       -2.2026471095   -0.1655834099   -0.5473913079
O       -2.6374425805   -0.9962355976   -1.3931186515
O       -2.5797162800    1.0329992273   -0.4553632820
$end

$rem
jobtype               freq
method                wb97x-v
basis                 def2-tzvpd
symmetry              off
sym_ignore            true
incdft                false
incfock               0
!scf_algorithm        diis_gdm
scf_convergence       8
thresh                14
!purecart             112
max_scf_cycles        1000
geom_opt_max_cycles   500
geom_opt_dmax         100
geom_opt_tol_gradient 10
solvent_method        pcm
ideriv                1
rpath_tol_displacement 1000
rpath_max_cycles      100
rpath_direction       1
!scf_guess            read
scf_guess             read
$end

$pcm
theory              cosmo
method              iswig
Radii               bondi
vdwScale            1.20
hpoints             110
heavypoints         110
$end

$solvent
dielectric 78.400000
$end

--------------------------------------------------------------
 ----------------------------------------------------------------
             Standard Nuclear Orientation (Angstroms)
    I     Atom           X                Y                Z
 ----------------------------------------------------------------
    1      C       2.0078351379     1.5435570458     0.3235128568
    2      C       1.0699582368     0.3938107598    -0.0709485059
    3      H       2.2682679340     1.5094688133     1.3869173638
    4      H       2.9259054073     1.4844311941    -0.2690920613
    5      H       1.5195799862     2.5010070823     0.1135407976
    6      C      -0.1089655462     0.2990726905     0.9088619794
    7      C      -1.1962996713    -0.6848338676     0.4899284112
    8      H       0.2917153391     0.0227860867     1.8928394923
    9      H      -0.5436328081     1.2988686315     1.0138100831
   10      H      -0.7505937852    -1.6108489456     0.1178955245
   11      H      -1.7953069000    -0.9530006840     1.3711681246
   12      O       0.7633514506     0.3852193927    -1.3714744508
   13      O       1.8419402589    -0.8892192819     0.2414457901
   14      O       2.5560378704    -1.2010413123    -0.9603501296
   15      H       1.9443999673    -0.6666233928    -1.5718690247
   16      C      -2.2026471095    -0.1655834099    -0.5473913079
   17      O      -2.6374425805    -0.9962355976    -1.3931186515
   18      O      -2.5797162800     1.0329992273    -0.4553632820
 ----------------------------------------------------------------
 Nuclear Repulsion Energy =   561.8456322786 hartrees
 There are       40 alpha and       40 beta electrons
 Requested basis set is def2-TZVPD
 There are 175 shells and 457 basis functions

 Total QAlloc Memory Limit   8000 MB
 Mega-Array Size      1956 MB
 MEM_STATIC part      2000 MB
 Discretize the solute cavity surface with Lebedev spheres
	Using 110 Lebedev grid points for each H atom
	Using 110 Lebedev grid points for other atoms
	Atomic van der Waals radii will be scaled by 1.20
 Remove points where switching function is < 1.0e-08
 Keep 1042 surface tesserae and discard 938 interior tesserae
 Molecular Surface Area = 185.260 Angst**2
 A cutoff of  1.0D-14 yielded  14285 shell pairs
 There are     98205 function pairs (    125309 Cartesian)
 
 -------------------------------------------------------
 OpenMP Integral Computing Module                       
 Release: version 1.0, May 2013, Q-Chem Inc. Pittsburgh 
 -------------------------------------------------------
 Integral Job Info:
 Integral job number is                      11
 Integral operator is                         1
 short-range coefficients              16700000
 long-range coefficients              100000000
 Omega coefficients                         300
 if combine SR and LR in K                    1
 Integral screening is                        0
 Integral computing path is                   2
 max size of driver memory is            800000
 size of driver memory is                776718
 size of scratch memory is              4473992
 max col of scratch BK array              10000
 max len of scratch array in speh3          662
 max len of scratch index in speh4           32
 max int batch size is                      520
 min int batch size is                       52
 fixed nKL is                                52
 max L of basis functions is                  3
 order of int derivative is                   0
 number of shells is                        175
 number of basis is                         517
 number of cartesian basis is               517
 number of contracted shell pairs         14285
 number of primitive shell pairs          29062
 maxK2 (contraction) of shell pair           36
 max number of K2 of shell pair               1
 max number of CS2 of shell pair           2329
 max number of PS2 of shell pair           3330
 mem total for path MDJ                  788552
 -------------------------------------------------------
 Smallest overlap matrix eigenvalue = 2.57E-06
 Guess MOs from SCF MO coefficient file
 Reading MOs from coefficient file
 Reading MOs from coefficient file
 Long-range K will be added via erf
 Coulomb attenuation parameter = 0.3 bohr**(-1)
 A restricted hybrid HF-DFT SCF calculation will be
 performed using Pulay DIIS extrapolation
 Polarizable Continuum solvation model will be applied
 Exchange:     0.1670 Hartree-Fock + 1.0000 wB97X-V + LR-HF
 Correlation:  1.0000 wB97X-V
 Using SG-2 standard quadrature grid
 Nonlocal Correlation:  VV10 with C = 0.0100 and b = 6.00
 Grid used for NLC:  SG-1 standard quadrature
 SCF converges when DIIS error is below 1.0E-08
Using Q-Chem read-in guess as SCF_GUESS READ specified.

 using 16 threads for integral computing
 -------------------------------------------------------
 OpenMP Integral computing Module                
 Release: version 1.0, May 2013, Q-Chem Inc. Pittsburgh 
 -------------------------------------------------------
 using 16 threads for integral computing
 -------------------------------------------------------
 OpenMP Integral computing Module                
 Release: version 1.0, May 2013, Q-Chem Inc. Pittsburgh 
 -------------------------------------------------------
 -------------------------------------------------------
 OpenMP BLAS3 based DFT computing Module                
 Release: version 1.0, May 2013, Q-Chem Inc. Pittsburgh 
 -------------------------------------------------------
 -------------------------------------------------------
 OpenMP BLAS3 based DFT computing Module                
 Release: version 1.0, May 2013, Q-Chem Inc. Pittsburgh 
 -------------------------------------------------------
 -------------------------------------------------------
 OpenMP BLAS3 based DFT computing Module                
 Release: version 1.0, May 2013, Q-Chem Inc. Pittsburgh 
 -------------------------------------------------------
 ---------------------------------------
  Cycle       Energy         DIIS Error
 ---------------------------------------
    1    -571.4008247048      4.64E-04
    2    -571.7134034348      5.20E-04
    3    -571.7230113141      2.28E-04
    4    -571.7245073516      1.68E-04
    5    -571.7253758210      1.29E-04
    6    -571.7258679667      1.01E-04
    7    -571.7262155508      7.60E-05
    8    -571.7264024423      5.83E-05
    9    -571.7265200969      4.35E-05
   10    -571.7265842701      3.27E-05
   11    -571.7266183829      2.52E-05
   12    -571.7266373954      1.97E-05
   13    -571.7266497012      1.52E-05
   14    -571.7266583258      1.10E-05
   15    -571.7266617940      8.77E-06
   16    -571.7266641731      6.80E-06
   17    -571.7266677782      6.13E-09 Convergence criterion met
 ---------------------------------------

************** Final PCM Free Energy Summary **************
 G_electrostatic  =      -0.32584398 hartree =    -204.47018452 kcal/mol
 G_cavitation     =       0.00000000 hartree =       0.00000000 kcal/mol
 G_dispersion     =       0.00000000 hartree =       0.00000000 kcal/mol
 G_repulsion      =       0.00000000 hartree =       0.00000000 kcal/mol
 --------------------------------------------------
 Non-electrostatic Free Energy =       0.00000000 hartree =       0.00000000 kcal/mol
 Total                         =      -0.32584398 hartree =    -204.47018452 kcal/mol
 --------------------------------------------------
 SCF Energy (H0 + V/2)                       =    -571.72666778 
 Solute Internal Energy (H0)                 =    -571.40082380 
 Total Free Energy (H0 + V/2 + non-elec)     =    -571.72666778 hartree
                                             = -358763.89885408 kcal/mol
***********************************************************

 SCF time:  CPU 4463.40 s  wall 316.52 s
 SCF   energy in the final basis set = -571.72666778
 Total energy in the final basis set = -571.72666778
 
 --------------------------------------------------------------
 
                    Orbital Energies (a.u.)
 --------------------------------------------------------------
 
 Alpha MOs
 -- Occupied --
-19.221 -19.219 -19.134 -19.134 -19.113 -10.335 -10.327 -10.240
-10.238 -10.232  -1.214  -1.137  -1.059  -1.042  -0.964  -0.877
 -0.829  -0.750  -0.652  -0.610  -0.582  -0.562  -0.545  -0.531
 -0.519  -0.511  -0.493  -0.487  -0.465  -0.455  -0.450  -0.426
 -0.421  -0.404  -0.344  -0.335  -0.330  -0.326  -0.323  -0.296
 -- Virtual --
  0.062   0.076   0.080   0.087   0.100   0.105   0.108   0.118
  0.122   0.139   0.143   0.151   0.152   0.155   0.169   0.173
  0.182   0.182   0.186   0.197   0.203   0.204   0.211   0.215
  0.226   0.236   0.241   0.262   0.267   0.271   0.275   0.284
  0.285   0.290   0.298   0.300   0.306   0.311   0.315   0.324
  0.325   0.338   0.348   0.350   0.352   0.359   0.369   0.376
  0.377   0.385   0.390   0.393   0.394   0.405   0.407   0.414
  0.422   0.424   0.426   0.435   0.438   0.445   0.448   0.453
  0.462   0.466   0.476   0.480   0.486   0.490   0.497   0.501
  0.512   0.514   0.519   0.525   0.532   0.534   0.544   0.552
  0.554   0.567   0.570   0.577   0.583   0.587   0.596   0.603
  0.611   0.615   0.623   0.630   0.638   0.645   0.653   0.663
  0.671   0.676   0.680   0.685   0.697   0.699   0.702   0.717
  0.718   0.720   0.726   0.742   0.750   0.756   0.766   0.774
  0.777   0.788   0.791   0.792   0.798   0.805   0.813   0.818
  0.823   0.832   0.836   0.844   0.847   0.851   0.857   0.871
  0.877   0.881   0.890   0.902   0.914   0.925   0.932   0.943
  0.947   0.962   0.978   0.981   0.993   1.004   1.016   1.024
  1.041   1.062   1.072   1.074   1.093   1.099   1.117   1.135
  1.147   1.161   1.178   1.187   1.197   1.203   1.214   1.238
  1.255   1.265   1.282   1.300   1.303   1.313   1.321   1.342
  1.351   1.373   1.383   1.387   1.418   1.426   1.450   1.471
  1.484   1.501   1.510   1.532   1.541   1.557   1.569   1.574
  1.593   1.632   1.644   1.671   1.703   1.726   1.753   1.785
  1.814   1.842   1.885   1.914   1.920   1.936   1.950   1.966
  1.971   1.996   2.000   2.012   2.027   2.044   2.047   2.047
  2.059   2.069   2.089   2.101   2.134   2.161   2.172   2.176
  2.208   2.213   2.228   2.232   2.273   2.280   2.306   2.316
  2.329   2.343   2.366   2.391   2.425   2.427   2.437   2.441
  2.457   2.481   2.498   2.505   2.526   2.547   2.574   2.601
  2.613   2.636   2.655   2.665   2.693   2.704   2.719   2.723
  2.733   2.768   2.797   2.851   2.866   2.887   2.897   2.911
  2.919   2.934   2.952   2.982   2.993   3.003   3.042   3.052
  3.079   3.091   3.113   3.144   3.171   3.178   3.203   3.210
  3.228   3.249   3.281   3.293   3.306   3.321   3.332   3.350
  3.380   3.409   3.420   3.442   3.458   3.480   3.489   3.502
  3.508   3.532   3.551   3.564   3.593   3.606   3.611   3.633
  3.640   3.656   3.668   3.683   3.698   3.705   3.726   3.740
  3.761   3.770   3.787   3.808   3.817   3.825   3.838   3.875
  3.890   3.934   3.959   3.981   4.036   4.076   4.094   4.099
  4.135   4.147   4.191   4.247   4.277   4.302   4.345   4.404
  4.417   4.449   4.471   4.517   4.612   4.651   4.696   4.706
  4.775   4.825   4.862   4.866   4.908   4.949   4.959   5.033
  5.043   5.093   5.137   5.171   5.228   5.290   5.319   5.333
  5.370   5.374   5.386   5.413   5.420   5.505   5.529   5.567
  5.613   5.651   5.715   5.717   5.728   5.766   5.786   5.834
  6.002   6.011   6.047   6.106   6.229   6.255   6.267   6.306
  6.341   6.368   6.407   6.612   6.622   6.647   6.678   6.699
  6.709   6.768   6.783   6.803   6.855   6.933   6.954   6.985
  7.001   7.064   7.068   7.174   7.198   7.237   7.262   7.311
  7.375   7.383   7.423   7.429   7.528   7.614   8.335  22.737
 22.841  22.949  23.133  23.750  44.229  44.345  44.471  44.607
 44.723
 --------------------------------------------------------------
 
          Ground-State Mulliken Net Atomic Charges

     Atom                 Charge (a.u.)
  ----------------------------------------
      1 C                    -1.312670
      2 C                     1.108889
      3 H                     0.222986
      4 H                     0.241634
      5 H                     0.250638
      6 C                    -0.480220
      7 C                    -0.201911
      8 H                     0.229178
      9 H                     0.228121
     10 H                     0.134330
     11 H                     0.202784
     12 O                    -0.961556
     13 O                    -0.314867
     14 O                    -0.446466
     15 H                     0.377619
     16 C                     0.177414
     17 O                    -0.735781
     18 O                    -0.720122
  ----------------------------------------
  Sum of atomic charges =    -2.000000

 -----------------------------------------------------------------
                    Cartesian Multipole Moments
 -----------------------------------------------------------------
    Charge (ESU x 10^10)
                -9.6064
    Dipole Moment (Debye)
         X       6.6225      Y       1.6228      Z      10.5088
       Tot      12.5271
    Quadrupole Moments (Debye-Ang)
        XX    -120.8575     XY       8.0887     YY     -79.0164
        XZ     -12.8162     YZ      -1.9373     ZZ     -79.1574
    Octopole Moments (Debye-Ang^2)
       XXX      70.1840    XXY      14.8710    XYY       9.3501
       YYY       4.0331    XXZ      69.5355    XYZ       7.9348
       YYZ      28.1389    XZZ      18.2621    YZZ       1.5447
       ZZZ      71.5336
    Hexadecapole Moments (Debye-Ang^3)
      XXXX   -1911.1982   XXXY      31.5992   XXYY    -410.4367
      XYYY     -16.7862   YYYY    -447.1677   XXXZ    -164.8459
      XXYZ     -48.4870   XYYZ     -31.2671   YYYZ     -48.0349
      XXZZ    -374.3590   XYZZ     -25.4601   YYZZ    -149.6206
      XZZZ     -84.2397   YZZZ     -41.6053   ZZZZ    -392.6938
 -----------------------------------------------------------------
 Calculating analytic gradient of the SCF energy
 Gradient of SCF Energy
            1           2           3           4           5           6
    1   0.0512699  -0.0428036  -0.0111608  -0.0672682   0.0421407  -0.0215551
    2   0.0796581  -0.0038021   0.0096107   0.0040747  -0.0690014   0.0279344
    3   0.0014056   0.0430988  -0.0702473   0.0403277   0.0213159   0.0182588
            7           8           9          10          11          12
    1   0.0592871  -0.0277650   0.0271368  -0.0391538   0.0321934  -0.0166686
    2  -0.0904301   0.0215883  -0.0648532   0.0607525   0.0171755   0.0083659
    3   0.0244857  -0.0583068   0.0229922   0.0147313  -0.0384594  -0.0152823
           13          14          15          16          17          18
    1  -0.0283518  -0.0102160   0.0312406  -0.0353071   0.0289236   0.0280579
    2   0.0089797   0.0106339  -0.0283535   0.0331307   0.0390512  -0.0645154
    3   0.0208712  -0.0640443   0.0279861  -0.0348187   0.0466412  -0.0009557
 Max gradient component =       9.043E-02
 RMS gradient           =       3.969E-02
 Computing fast CPCM-ISWIG gradient
 Updating gradient with PCM contributions...
 -- total gradient after adding PCM contribution --
---------------------------------------------------
  Atom         X              Y              Z     
---------------------------------------------------
   1      -0.000004       0.000001      -0.000004
   2       0.000003       0.000001       0.000004
   3       0.000001      -0.000000       0.000001
   4       0.000002      -0.000001       0.000001
   5       0.000000      -0.000000       0.000001
   6      -0.000004      -0.000002      -0.000000
   7       0.000002       0.000004      -0.000005
   8      -0.000000       0.000000      -0.000000
   9       0.000002       0.000001       0.000000
  10       0.000000      -0.000001       0.000002
  11      -0.000001      -0.000001       0.000000
  12      -0.000000      -0.000001      -0.000003
  13       0.000001       0.000001      -0.000001
  14      -0.000000      -0.000002       0.000004
  15      -0.000001       0.000002      -0.000003
  16       0.000002      -0.000001       0.000005
  17      -0.000000      -0.000000      -0.000002
  18      -0.000002       0.000001      -0.000001
---------------------------------------------------
 Number of fixed atoms: 0
 Gradient time:  CPU 944.65 s  wall 67.36 s
 ######################################################
 ######################################################
 # Starting finite difference calculation for IDERIV  #
 Finite diff step size:  1.88973e-03 a.u.
 ----------------------------------------------------------------
             Standard Nuclear Orientation (Angstroms)
    I     Atom           X                Y                Z
 ----------------------------------------------------------------
    1      C       2.0088351379     1.5435570458     0.3235128568
    2      C       1.0699582368     0.3938107598    -0.0709485059
    3      H       2.2682679340     1.5094688133     1.3869173638
    4      H       2.9259054073     1.4844311941    -0.2690920613
    5      H       1.5195799862     2.5010070823     0.1135407976
    6      C      -0.1089655462     0.2990726905     0.9088619794
    7      C      -1.1962996713    -0.6848338676     0.4899284112
    8      H       0.2917153391     0.0227860867     1.8928394923
    9      H      -0.5436328081     1.2988686315     1.0138100831
   10      H      -0.7505937852    -1.6108489456     0.1178955245
   11      H      -1.7953069000    -0.9530006840     1.3711681246
   12      O       0.7633514506     0.3852193927    -1.3714744508
   13      O       1.8419402589    -0.8892192819     0.2414457901
   14      O       2.5560378704    -1.2010413123    -0.9603501296
   15      H       1.9443999673    -0.6666233928    -1.5718690247
   16      C      -2.2026471095    -0.1655834099    -0.5473913079
   17      O      -2.6374425805    -0.9962355976    -1.3931186515
   18      O      -2.5797162800     1.0329992273    -0.4553632820
 ----------------------------------------------------------------
 Nuclear Repulsion Energy =   561.8331768487 hartrees
 There are       40 alpha and       40 beta electrons
 Discretize the solute cavity surface with Lebedev spheres
	Using 110 Lebedev grid points for each H atom
	Using 110 Lebedev grid points for other atoms
	Atomic van der Waals radii will be scaled by 1.20
 Remove points where switching function is < 1.0e-08
 Keep 1042 surface tesserae and discard 938 interior tesserae
 Molecular Surface Area = 185.267 Angst**2
 Requested basis set is def2-TZVPD
 There are 175 shells and 457 basis functions
 A cutoff of  1.0D-14 yielded  14285 shell pairs
 There are     98205 function pairs (    125309 Cartesian)
 Smallest overlap matrix eigenvalue = 2.57E-06
 Guess MOs from SCF MO coefficient file
 Reading MOs from coefficient file
 Reading MOs from coefficient file
 Long-range K will be added via erf
 Coulomb attenuation parameter = 0.3 bohr**(-1)
 A restricted hybrid HF-DFT SCF calculation will be
 performed using Pulay DIIS extrapolation
 Polarizable Continuum solvation model will be applied
 Exchange:     0.1670 Hartree-Fock + 1.0000 wB97X-V + LR-HF
 Correlation:  1.0000 wB97X-V
 Using SG-2 standard quadrature grid
 Nonlocal Correlation:  VV10 with C = 0.0100 and b = 6.00
 Grid used for NLC:  SG-1 standard quadrature
 SCF converges when DIIS error is below 1.0E-08
Using Q-Chem read-in guess as SCF_GUESS READ specified.

 using 16 threads for integral computing
 -------------------------------------------------------
 OpenMP Integral computing Module                
 Release: version 1.0, May 2013, Q-Chem Inc. Pittsburgh 
 -------------------------------------------------------
 using 16 threads for integral computing
 -------------------------------------------------------
 OpenMP Integral computing Module                
 Release: version 1.0, May 2013, Q-Chem Inc. Pittsburgh 
 -------------------------------------------------------
 -------------------------------------------------------
 OpenMP BLAS3 based DFT computing Module                
 Release: version 1.0, May 2013, Q-Chem Inc. Pittsburgh 
 -------------------------------------------------------
 -------------------------------------------------------
 OpenMP BLAS3 based DFT computing Module                
 Release: version 1.0, May 2013, Q-Chem Inc. Pittsburgh 
 -------------------------------------------------------
 -------------------------------------------------------
 OpenMP BLAS3 based DFT computing Module                
 Release: version 1.0, May 2013, Q-Chem Inc. Pittsburgh 
 -------------------------------------------------------
 ---------------------------------------
  Cycle       Energy         DIIS Error
 ---------------------------------------
    1    -571.4011008309      4.64E-04
    2    -571.7134078005      5.20E-04
    3    -571.7230123034      2.28E-04
    4    -571.7245083378      1.68E-04
    5    -571.7253791116      1.28E-04
    6    -571.7258824311      1.00E-04
    7    -571.7262596150      7.21E-05
    8    -571.7264769327      4.93E-05
    9    -571.7265983587      2.96E-05
   10    -571.7266536125      1.30E-05
   11    -571.7266652554      4.51E-06
   12    -571.7266667338      1.07E-06
   13    -571.7266668201      1.63E-07
   14    -571.7266668220      2.16E-08
   15    -571.7266668221      6.03E-09 Convergence criterion met
 ---------------------------------------

************** Final PCM Free Energy Summary **************
 G_electrostatic  =      -0.32583760 hartree =    -204.46617797 kcal/mol
 G_cavitation     =       0.00000000 hartree =       0.00000000 kcal/mol
 G_dispersion     =       0.00000000 hartree =       0.00000000 kcal/mol
 G_repulsion      =       0.00000000 hartree =       0.00000000 kcal/mol
 --------------------------------------------------
 Non-electrostatic Free Energy =       0.00000000 hartree =       0.00000000 kcal/mol
 Total                         =      -0.32583760 hartree =    -204.46617797 kcal/mol
 --------------------------------------------------
 SCF Energy (H0 + V/2)                       =    -571.72666682 
 Solute Internal Energy (H0)                 =    -571.40082923 
 Total Free Energy (H0 + V/2 + non-elec)     =    -571.72666682 hartree
                                             = -358763.89825411 kcal/mol
***********************************************************

 SCF time:  CPU 3928.90 s  wall 278.46 s
 SCF   energy in the final basis set = -571.72666682
 Total energy in the final basis set = -571.72666682
 
 --------------------------------------------------------------
 
                    Orbital Energies (a.u.)
 --------------------------------------------------------------
 
 Alpha MOs
 -- Occupied --
-19.221 -19.218 -19.134 -19.134 -19.113 -10.335 -10.327 -10.240
-10.238 -10.232  -1.214  -1.137  -1.059  -1.042  -0.964  -0.877
 -0.829  -0.750  -0.652  -0.610  -0.582  -0.562  -0.545  -0.531
 -0.519  -0.511  -0.493  -0.487  -0.465  -0.455  -0.450  -0.426
 -0.422  -0.404  -0.344  -0.335  -0.330  -0.326  -0.323  -0.296
 -- Virtual --
  0.062   0.076   0.080   0.087   0.100   0.105   0.108   0.118
  0.122   0.139   0.143   0.151   0.152   0.155   0.169   0.173
  0.182   0.182   0.186   0.197   0.203   0.204   0.211   0.215
  0.226   0.236   0.241   0.262   0.267   0.271   0.275   0.284
  0.285   0.290   0.298   0.300   0.306   0.311   0.315   0.324
  0.325   0.338   0.348   0.350   0.352   0.359   0.369   0.376
  0.377   0.385   0.390   0.393   0.394   0.405   0.407   0.414
  0.422   0.424   0.426   0.435   0.438   0.445   0.448   0.453
  0.462   0.466   0.476   0.480   0.486   0.490   0.497   0.501
  0.512   0.514   0.519   0.525   0.532   0.534   0.544   0.552
  0.554   0.567   0.570   0.577   0.583   0.587   0.596   0.603
  0.611   0.615   0.623   0.630   0.638   0.645   0.653   0.664
  0.671   0.676   0.680   0.685   0.697   0.699   0.702   0.717
  0.718   0.720   0.726   0.742   0.750   0.756   0.766   0.774
  0.777   0.788   0.791   0.792   0.798   0.805   0.813   0.818
  0.823   0.832   0.836   0.844   0.847   0.851   0.857   0.871
  0.877   0.881   0.890   0.902   0.914   0.925   0.932   0.943
  0.947   0.962   0.978   0.981   0.993   1.004   1.016   1.024
  1.041   1.062   1.072   1.073   1.093   1.099   1.117   1.134
  1.147   1.161   1.178   1.187   1.197   1.203   1.214   1.238
  1.255   1.265   1.282   1.300   1.303   1.313   1.321   1.342
  1.351   1.373   1.383   1.387   1.418   1.426   1.450   1.471
  1.484   1.501   1.510   1.532   1.541   1.557   1.569   1.574
  1.593   1.632   1.644   1.671   1.703   1.726   1.753   1.785
  1.814   1.842   1.885   1.914   1.920   1.936   1.950   1.966
  1.971   1.996   2.000   2.012   2.027   2.043   2.047   2.047
  2.059   2.069   2.089   2.101   2.134   2.161   2.172   2.176
  2.208   2.213   2.228   2.232   2.273   2.280   2.306   2.316
  2.329   2.343   2.366   2.391   2.425   2.427   2.437   2.441
  2.457   2.481   2.498   2.505   2.526   2.547   2.574   2.601
  2.613   2.636   2.654   2.665   2.693   2.704   2.719   2.723
  2.733   2.768   2.797   2.851   2.866   2.888   2.897   2.911
  2.919   2.933   2.952   2.982   2.993   3.003   3.042   3.052
  3.078   3.091   3.113   3.144   3.171   3.178   3.202   3.210
  3.228   3.249   3.281   3.293   3.306   3.321   3.332   3.350
  3.380   3.410   3.420   3.442   3.458   3.480   3.489   3.502
  3.509   3.532   3.551   3.564   3.593   3.607   3.611   3.633
  3.640   3.656   3.668   3.683   3.698   3.705   3.726   3.740
  3.761   3.770   3.787   3.808   3.817   3.825   3.838   3.875
  3.890   3.934   3.959   3.981   4.036   4.075   4.094   4.099
  4.135   4.147   4.191   4.247   4.277   4.301   4.345   4.404
  4.417   4.449   4.471   4.517   4.612   4.651   4.696   4.707
  4.775   4.825   4.862   4.866   4.908   4.949   4.958   5.033
  5.043   5.093   5.137   5.171   5.228   5.290   5.319   5.333
  5.370   5.374   5.386   5.413   5.420   5.505   5.529   5.567
  5.613   5.651   5.715   5.717   5.728   5.766   5.786   5.834
  6.002   6.011   6.047   6.106   6.229   6.255   6.267   6.306
  6.341   6.368   6.407   6.612   6.622   6.647   6.678   6.699
  6.709   6.768   6.783   6.803   6.855   6.933   6.954   6.985
  7.001   7.064   7.068   7.174   7.198   7.237   7.262   7.311
  7.375   7.383   7.423   7.429   7.528   7.614   8.335  22.737
 22.841  22.949  23.133  23.750  44.229  44.345  44.471  44.607
 44.723
 --------------------------------------------------------------
 
          Ground-State Mulliken Net Atomic Charges

     Atom                 Charge (a.u.)
  ----------------------------------------
      1 C                    -1.312159
      2 C                     1.107585
      3 H                     0.222995
      4 H                     0.242129
      5 H                     0.250319
      6 C                    -0.479632
      7 C                    -0.201867
      8 H                     0.229103
      9 H                     0.228131
     10 H                     0.134358
     11 H                     0.202775
     12 O                    -0.961508
     13 O                    -0.314879
     14 O                    -0.446486
     15 H                     0.377617
     16 C                     0.177411
     17 O                    -0.735776
     18 O                    -0.720119
  ----------------------------------------
  Sum of atomic charges =    -2.000000

 -----------------------------------------------------------------
                    Cartesian Multipole Moments
 -----------------------------------------------------------------
    Charge (ESU x 10^10)
                -9.6064
    Dipole Moment (Debye)
         X       6.6219      Y       1.6216      Z      10.5084
       Tot      12.5262
    Quadrupole Moments (Debye-Ang)
        XX    -120.8565     XY       8.0869     YY     -79.0220
        XZ     -12.8185     YZ      -1.9381     ZZ     -79.1553
    Octopole Moments (Debye-Ang^2)
       XXX      70.1729    XXY      14.8676    XYY       9.3331
       YYY       4.0139    XXZ      69.5275    XYZ       7.9309
       YYZ      28.1372    XZZ      18.2588    YZZ       1.5463
       ZZZ      71.5343
    Hexadecapole Moments (Debye-Ang^3)
      XXXX   -1911.2762   XXXY      31.5768   XXYY    -410.4776
      XYYY     -16.8448   YYYY    -447.2427   XXXZ    -164.8775
      XXYZ     -48.5021   XYYZ     -31.2768   YYYZ     -48.0397
      XXZZ    -374.3732   XYZZ     -25.4642   YYZZ    -149.6196
      XZZZ     -84.2465   YZZZ     -41.6046   ZZZZ    -392.6819
 -----------------------------------------------------------------
 Calculating analytic gradient of the SCF energy
 Gradient of SCF Energy
            1           2           3           4           5           6
    1   0.0520078  -0.0428039  -0.0111943  -0.0677456   0.0419994  -0.0216159
    2   0.0795343  -0.0040269   0.0096264   0.0041020  -0.0687164   0.0279277
    3   0.0013917   0.0430556  -0.0703757   0.0405922   0.0212699   0.0182577
            7           8           9          10          11          12
    1   0.0592712  -0.0277467   0.0271082  -0.0391675   0.0321987  -0.0166877
    2  -0.0904535   0.0216287  -0.0648637   0.0607524   0.0171783   0.0083744
    3   0.0245076  -0.0583231   0.0229838   0.0147354  -0.0384614  -0.0153203
           13          14          15          16          17          18
    1  -0.0283349  -0.0102211   0.0312386  -0.0352859   0.0289229   0.0280568
    2   0.0089856   0.0106354  -0.0283533   0.0331318   0.0390508  -0.0645139
    3   0.0208710  -0.0640418   0.0279875  -0.0348146   0.0466398  -0.0009552
 Max gradient component =       9.045E-02
 RMS gradient           =       3.971E-02
 Computing fast CPCM-ISWIG gradient
 Updating gradient with PCM contributions...
 -- total gradient after adding PCM contribution --
---------------------------------------------------
  Atom         X              Y              Z     
---------------------------------------------------
   1       0.001016      -0.000096      -0.000038
   2      -0.000227      -0.000106      -0.000001
   3      -0.000117       0.000004      -0.000113
   4      -0.000441       0.000028       0.000234
   5      -0.000190       0.000196      -0.000043
   6      -0.000044      -0.000048      -0.000006
   7      -0.000003       0.000006       0.000001
   8       0.000000      -0.000000      -0.000000
   9       0.000002      -0.000000      -0.000001
  10       0.000001      -0.000001       0.000002
  11      -0.000003      -0.000003      -0.000000
  12      -0.000006      -0.000018      -0.000037
  13       0.000014       0.000042      -0.000000
  14       0.000002      -0.000005       0.000005
  15      -0.000004       0.000003      -0.000004
  16       0.000004      -0.000003       0.000007
  17      -0.000001      -0.000000      -0.000003
  18      -0.000002       0.000002      -0.000001
---------------------------------------------------
 Number of fixed atoms: 0
 Gradient time:  CPU 951.35 s  wall 67.73 s
 ----------------------------------------------------------------
             Standard Nuclear Orientation (Angstroms)
    I     Atom           X                Y                Z
 ----------------------------------------------------------------
    1      C       2.0068351379     1.5435570458     0.3235128568
    2      C       1.0699582368     0.3938107598    -0.0709485059
    3      H       2.2682679340     1.5094688133     1.3869173638
    4      H       2.9259054073     1.4844311941    -0.2690920613
    5      H       1.5195799862     2.5010070823     0.1135407976
    6      C      -0.1089655462     0.2990726905     0.9088619794
    7      C      -1.1962996713    -0.6848338676     0.4899284112
    8      H       0.2917153391     0.0227860867     1.8928394923
    9      H      -0.5436328081     1.2988686315     1.0138100831
   10      H      -0.7505937852    -1.6108489456     0.1178955245
   11      H      -1.7953069000    -0.9530006840     1.3711681246
   12      O       0.7633514506     0.3852193927    -1.3714744508
   13      O       1.8419402589    -0.8892192819     0.2414457901
   14      O       2.5560378704    -1.2010413123    -0.9603501296
   15      H       1.9443999673    -0.6666233928    -1.5718690247
   16      C      -2.2026471095    -0.1655834099    -0.5473913079
   17      O      -2.6374425805    -0.9962355976    -1.3931186515
   18      O      -2.5797162800     1.0329992273    -0.4553632820
 ----------------------------------------------------------------
 Nuclear Repulsion Energy =   561.8580879696 hartrees
 There are       40 alpha and       40 beta electrons
 Discretize the solute cavity surface with Lebedev spheres
	Using 110 Lebedev grid points for each H atom
	Using 110 Lebedev grid points for other atoms
	Atomic van der Waals radii will be scaled by 1.20
 Remove points where switching function is < 1.0e-08
 Keep 1042 surface tesserae and discard 938 interior tesserae
 Molecular Surface Area = 185.254 Angst**2
 Requested basis set is def2-TZVPD
 There are 175 shells and 457 basis functions
 A cutoff of  1.0D-14 yielded  14285 shell pairs
 There are     98205 function pairs (    125309 Cartesian)
 Smallest overlap matrix eigenvalue = 2.57E-06
 Guess MOs from SCF MO coefficient file
 Reading MOs from coefficient file
 Reading MOs from coefficient file
 Long-range K will be added via erf
 Coulomb attenuation parameter = 0.3 bohr**(-1)
 A restricted hybrid HF-DFT SCF calculation will be
 performed using Pulay DIIS extrapolation
 Polarizable Continuum solvation model will be applied
 Exchange:     0.1670 Hartree-Fock + 1.0000 wB97X-V + LR-HF
 Correlation:  1.0000 wB97X-V
 Using SG-2 standard quadrature grid
 Nonlocal Correlation:  VV10 with C = 0.0100 and b = 6.00
 Grid used for NLC:  SG-1 standard quadrature
 SCF converges when DIIS error is below 1.0E-08
Using Q-Chem read-in guess as SCF_GUESS READ specified.

 using 16 threads for integral computing
 -------------------------------------------------------
 OpenMP Integral computing Module                
 Release: version 1.0, May 2013, Q-Chem Inc. Pittsburgh 
 -------------------------------------------------------
 using 16 threads for integral computing
 -------------------------------------------------------
 OpenMP Integral computing Module                
 Release: version 1.0, May 2013, Q-Chem Inc. Pittsburgh 
 -------------------------------------------------------
 -------------------------------------------------------
 OpenMP BLAS3 based DFT computing Module                
 Release: version 1.0, May 2013, Q-Chem Inc. Pittsburgh 
 -------------------------------------------------------
 -------------------------------------------------------
 OpenMP BLAS3 based DFT computing Module                
 Release: version 1.0, May 2013, Q-Chem Inc. Pittsburgh 
 -------------------------------------------------------
 -------------------------------------------------------
 OpenMP BLAS3 based DFT computing Module                
 Release: version 1.0, May 2013, Q-Chem Inc. Pittsburgh 
 -------------------------------------------------------
 ---------------------------------------
  Cycle       Energy         DIIS Error
 ---------------------------------------
    1    -571.4002774067      4.65E-04
    2    -571.7133921769      5.20E-04
    3    -571.7230129920      2.28E-04
    4    -571.7245124025      1.68E-04
    5    -571.7253928949      1.28E-04
    6    -571.7259246368      9.74E-05
    7    -571.7263615773      6.24E-05
    8    -571.7265807822      3.32E-05
    9    -571.7266522256      1.37E-05
   10    -571.7266658806      3.48E-06
   11    -571.7266667562      8.39E-07
   12    -571.7266668067      1.71E-07
   13    -571.7266668088      2.04E-08
   14    -571.7266668088      5.62E-09 Convergence criterion met
 ---------------------------------------

************** Final PCM Free Energy Summary **************
 G_electrostatic  =      -0.32585043 hartree =    -204.47423240 kcal/mol
 G_cavitation     =       0.00000000 hartree =       0.00000000 kcal/mol
 G_dispersion     =       0.00000000 hartree =       0.00000000 kcal/mol
 G_repulsion      =       0.00000000 hartree =       0.00000000 kcal/mol
 --------------------------------------------------
 Non-electrostatic Free Energy =       0.00000000 hartree =       0.00000000 kcal/mol
 Total                         =      -0.32585043 hartree =    -204.47423240 kcal/mol
 --------------------------------------------------
 SCF Energy (H0 + V/2)                       =    -571.72666681 
 Solute Internal Energy (H0)                 =    -571.40081638 
 Total Free Energy (H0 + V/2 + non-elec)     =    -571.72666681 hartree
                                             = -358763.89824577 kcal/mol
***********************************************************

 SCF time:  CPU 3672.44 s  wall 260.24 s
 SCF   energy in the final basis set = -571.72666681
 Total energy in the final basis set = -571.72666681
 
 --------------------------------------------------------------
 
                    Orbital Energies (a.u.)
 --------------------------------------------------------------
 
 Alpha MOs
 -- Occupied --
-19.221 -19.219 -19.134 -19.134 -19.113 -10.335 -10.327 -10.240
-10.237 -10.232  -1.214  -1.137  -1.059  -1.042  -0.964  -0.877
 -0.829  -0.750  -0.652  -0.610  -0.582  -0.562  -0.545  -0.531
 -0.520  -0.511  -0.493  -0.487  -0.465  -0.455  -0.450  -0.426
 -0.421  -0.404  -0.344  -0.335  -0.330  -0.326  -0.323  -0.296
 -- Virtual --
  0.062   0.076   0.080   0.087   0.100   0.105   0.108   0.118
  0.122   0.139   0.143   0.151   0.152   0.155   0.169   0.173
  0.182   0.182   0.186   0.197   0.203   0.204   0.211   0.215
  0.226   0.236   0.241   0.262   0.267   0.271   0.275   0.284
  0.285   0.290   0.298   0.300   0.306   0.311   0.315   0.324
  0.325   0.338   0.348   0.350   0.352   0.359   0.369   0.376
  0.377   0.385   0.390   0.393   0.394   0.405   0.407   0.414
  0.422   0.424   0.426   0.435   0.438   0.445   0.448   0.453
  0.462   0.466   0.476   0.480   0.486   0.490   0.497   0.501
  0.512   0.514   0.519   0.525   0.532   0.534   0.544   0.553
  0.554   0.567   0.570   0.577   0.583   0.587   0.596   0.603
  0.611   0.615   0.623   0.630   0.638   0.645   0.653   0.663
  0.671   0.676   0.680   0.685   0.697   0.699   0.702   0.717
  0.718   0.720   0.726   0.742   0.750   0.756   0.766   0.774
  0.777   0.788   0.791   0.792   0.798   0.805   0.813   0.819
  0.823   0.832   0.836   0.844   0.847   0.851   0.857   0.871
  0.877   0.881   0.890   0.902   0.914   0.925   0.932   0.943
  0.947   0.962   0.978   0.981   0.993   1.004   1.016   1.024
  1.041   1.062   1.072   1.074   1.093   1.099   1.117   1.135
  1.147   1.161   1.178   1.187   1.197   1.203   1.214   1.238
  1.255   1.265   1.282   1.300   1.303   1.313   1.321   1.342
  1.351   1.373   1.383   1.387   1.418   1.426   1.451   1.471
  1.484   1.501   1.510   1.532   1.541   1.557   1.569   1.574
  1.593   1.632   1.644   1.671   1.703   1.726   1.753   1.785
  1.814   1.842   1.885   1.914   1.920   1.936   1.950   1.966
  1.971   1.996   2.000   2.012   2.028   2.044   2.047   2.047
  2.059   2.069   2.089   2.101   2.134   2.161   2.172   2.176
  2.208   2.213   2.228   2.232   2.273   2.280   2.306   2.316
  2.329   2.343   2.366   2.391   2.426   2.427   2.437   2.441
  2.457   2.481   2.498   2.505   2.526   2.547   2.574   2.601
  2.613   2.636   2.655   2.665   2.693   2.705   2.719   2.723
  2.733   2.768   2.797   2.851   2.866   2.887   2.897   2.911
  2.919   2.934   2.952   2.982   2.993   3.003   3.042   3.052
  3.079   3.091   3.113   3.144   3.171   3.178   3.203   3.210
  3.228   3.249   3.281   3.293   3.306   3.321   3.332   3.350
  3.380   3.409   3.420   3.442   3.458   3.480   3.489   3.502
  3.508   3.532   3.551   3.564   3.593   3.606   3.611   3.633
  3.640   3.657   3.668   3.683   3.698   3.705   3.726   3.740
  3.761   3.770   3.787   3.808   3.817   3.825   3.838   3.875
  3.890   3.934   3.959   3.981   4.037   4.076   4.094   4.099
  4.135   4.147   4.191   4.247   4.278   4.302   4.345   4.404
  4.417   4.449   4.471   4.517   4.612   4.651   4.696   4.706
  4.775   4.825   4.862   4.866   4.908   4.949   4.959   5.033
  5.043   5.093   5.137   5.171   5.228   5.290   5.319   5.333
  5.370   5.374   5.386   5.413   5.420   5.505   5.529   5.567
  5.613   5.651   5.715   5.717   5.728   5.766   5.786   5.834
  6.002   6.011   6.047   6.106   6.229   6.255   6.267   6.306
  6.341   6.368   6.407   6.612   6.622   6.647   6.678   6.699
  6.709   6.768   6.783   6.803   6.856   6.933   6.954   6.985
  7.001   7.064   7.068   7.174   7.198   7.237   7.262   7.311
  7.376   7.383   7.423   7.429   7.528   7.614   8.335  22.737
 22.841  22.949  23.133  23.750  44.229  44.345  44.471  44.607
 44.723
 --------------------------------------------------------------
 
          Ground-State Mulliken Net Atomic Charges

     Atom                 Charge (a.u.)
  ----------------------------------------
      1 C                    -1.313187
      2 C                     1.110190
      3 H                     0.222977
      4 H                     0.241142
      5 H                     0.250957
      6 C                    -0.480806
      7 C                    -0.201957
      8 H                     0.229253
      9 H                     0.228110
     10 H                     0.134303
     11 H                     0.202792
     12 O                    -0.961603
     13 O                    -0.314854
     14 O                    -0.446446
     15 H                     0.377621
     16 C                     0.177414
     17 O                    -0.735783
     18 O                    -0.720123
  ----------------------------------------
  Sum of atomic charges =    -2.000000

 -----------------------------------------------------------------
                    Cartesian Multipole Moments
 -----------------------------------------------------------------
    Charge (ESU x 10^10)
                -9.6064
    Dipole Moment (Debye)
         X       6.6232      Y       1.6240      Z      10.5093
       Tot      12.5279
    Quadrupole Moments (Debye-Ang)
        XX    -120.8586     XY       8.0904     YY     -79.0108
        XZ     -12.8139     YZ      -1.9365     ZZ     -79.1595
    Octopole Moments (Debye-Ang^2)
       XXX      70.1950    XXY      14.8743    XYY       9.3670
       YYY       4.0524    XXZ      69.5437    XYZ       7.9387
       YYZ      28.1406    XZZ      18.2655    YZZ       1.5430
       ZZZ      71.5330
    Hexadecapole Moments (Debye-Ang^3)
      XXXX   -1911.1208   XXXY      31.6215   XXYY    -410.3958
      XYYY     -16.7276   YYYY    -447.0928   XXXZ    -164.8143
      XXYZ     -48.4719   XYYZ     -31.2574   YYYZ     -48.0300
      XXZZ    -374.3449   XYZZ     -25.4561   YYZZ    -149.6217
      XZZZ     -84.2329   YZZZ     -41.6060   ZZZZ    -392.7058
 -----------------------------------------------------------------
 Calculating analytic gradient of the SCF energy
 Gradient of SCF Energy
            1           2           3           4           5           6
    1   0.0505333  -0.0428034  -0.0111269  -0.0667927   0.0422820  -0.0214940
    2   0.0797819  -0.0035772   0.0095949   0.0040476  -0.0692868   0.0279418
    3   0.0014177   0.0431423  -0.0701189   0.0400648   0.0213620   0.0182590
            7           8           9          10          11          12
    1   0.0593031  -0.0277833   0.0271652  -0.0391402   0.0321881  -0.0166495
    2  -0.0904074   0.0215480  -0.0648428   0.0607531   0.0171728   0.0083574
    3   0.0244652  -0.0582905   0.0230005   0.0147271  -0.0384575  -0.0152442
           13          14          15          16          17          18
    1  -0.0283689  -0.0102108   0.0312428  -0.0353276   0.0289244   0.0280582
    2   0.0089738   0.0106326  -0.0283538   0.0331302   0.0390513  -0.0645175
    3   0.0208716  -0.0640471   0.0279847  -0.0348250   0.0466430  -0.0009543
 Max gradient component =       9.041E-02
 RMS gradient           =       3.966E-02
 Computing fast CPCM-ISWIG gradient
 Updating gradient with PCM contributions...
 -- total gradient after adding PCM contribution --
---------------------------------------------------
  Atom         X              Y              Z     
---------------------------------------------------
   1      -0.001022       0.000098       0.000029
   2       0.000232       0.000108       0.000010
   3       0.000119      -0.000005       0.000114
   4       0.000443      -0.000030      -0.000230
   5       0.000190      -0.000197       0.000046
   6       0.000037       0.000044       0.000006
   7       0.000007       0.000003      -0.000012
   8      -0.000001       0.000000      -0.000001
   9       0.000001       0.000002       0.000002
  10      -0.000001      -0.000000       0.000002
  11       0.000001       0.000000       0.000001
  12       0.000005       0.000016       0.000032
  13      -0.000011      -0.000040      -0.000002
  14      -0.000002       0.000001       0.000002
  15       0.000002      -0.000000      -0.000002
  16      -0.000000       0.000000       0.000003
  17       0.000001       0.000000      -0.000000
  18      -0.000001      -0.000000      -0.000000
---------------------------------------------------
 Number of fixed atoms: 0
 Gradient time:  CPU 934.83 s  wall 66.71 s
 ----------------------------------------------------------------
             Standard Nuclear Orientation (Angstroms)
    I     Atom           X                Y                Z
 ----------------------------------------------------------------
    1      C       2.0078351379     1.5445570458     0.3235128568
    2      C       1.0699582368     0.3938107598    -0.0709485059
    3      H       2.2682679340     1.5094688133     1.3869173638
    4      H       2.9259054073     1.4844311941    -0.2690920613
    5      H       1.5195799862     2.5010070823     0.1135407976
    6      C      -0.1089655462     0.2990726905     0.9088619794
    7      C      -1.1962996713    -0.6848338676     0.4899284112
    8      H       0.2917153391     0.0227860867     1.8928394923
    9      H      -0.5436328081     1.2988686315     1.0138100831
   10      H      -0.7505937852    -1.6108489456     0.1178955245
   11      H      -1.7953069000    -0.9530006840     1.3711681246
   12      O       0.7633514506     0.3852193927    -1.3714744508
   13      O       1.8419402589    -0.8892192819     0.2414457901
   14      O       2.5560378704    -1.2010413123    -0.9603501296
   15      H       1.9443999673    -0.6666233928    -1.5718690247
   16      C      -2.2026471095    -0.1655834099    -0.5473913079
   17      O      -2.6374425805    -0.9962355976    -1.3931186515
   18      O      -2.5797162800     1.0329992273    -0.4553632820
 ----------------------------------------------------------------
 Nuclear Repulsion Energy =   561.8291231494 hartrees
 There are       40 alpha and       40 beta electrons
 Discretize the solute cavity surface with Lebedev spheres
	Using 110 Lebedev grid points for each H atom
	Using 110 Lebedev grid points for other atoms
	Atomic van der Waals radii will be scaled by 1.20
 Remove points where switching function is < 1.0e-08
 Keep 1042 surface tesserae and discard 938 interior tesserae
 Molecular Surface Area = 185.269 Angst**2
 Requested basis set is def2-TZVPD
 There are 175 shells and 457 basis functions
 A cutoff of  1.0D-14 yielded  14285 shell pairs
 There are     98205 function pairs (    125309 Cartesian)
 Smallest overlap matrix eigenvalue = 2.57E-06
 Guess MOs from SCF MO coefficient file
 Reading MOs from coefficient file
 Reading MOs from coefficient file
 Long-range K will be added via erf
 Coulomb attenuation parameter = 0.3 bohr**(-1)
 A restricted hybrid HF-DFT SCF calculation will be
 performed using Pulay DIIS extrapolation
 Polarizable Continuum solvation model will be applied
 Exchange:     0.1670 Hartree-Fock + 1.0000 wB97X-V + LR-HF
 Correlation:  1.0000 wB97X-V
 Using SG-2 standard quadrature grid
 Nonlocal Correlation:  VV10 with C = 0.0100 and b = 6.00
 Grid used for NLC:  SG-1 standard quadrature
 SCF converges when DIIS error is below 1.0E-08
Using Q-Chem read-in guess as SCF_GUESS READ specified.

 using 16 threads for integral computing
 -------------------------------------------------------
 OpenMP Integral computing Module                
 Release: version 1.0, May 2013, Q-Chem Inc. Pittsburgh 
 -------------------------------------------------------
 using 16 threads for integral computing
 -------------------------------------------------------
 OpenMP Integral computing Module                
 Release: version 1.0, May 2013, Q-Chem Inc. Pittsburgh 
 -------------------------------------------------------
 -------------------------------------------------------
 OpenMP BLAS3 based DFT computing Module                
 Release: version 1.0, May 2013, Q-Chem Inc. Pittsburgh 
 -------------------------------------------------------
 -------------------------------------------------------
 OpenMP BLAS3 based DFT computing Module                
 Release: version 1.0, May 2013, Q-Chem Inc. Pittsburgh 
 -------------------------------------------------------
 -------------------------------------------------------
 OpenMP BLAS3 based DFT computing Module                
 Release: version 1.0, May 2013, Q-Chem Inc. Pittsburgh 
 -------------------------------------------------------
 ---------------------------------------
  Cycle       Energy         DIIS Error
 ---------------------------------------
    1    -571.4014031119      4.64E-04
    2    -571.7134101874      5.20E-04
    3    -571.7230138383      2.28E-04
    4    -571.7245102726      1.68E-04
    5    -571.7253839109      1.28E-04
    6    -571.7258998175      9.90E-05
    7    -571.7263053064      6.79E-05
    8    -571.7265323689      4.15E-05
    9    -571.7266332130      2.08E-05
   10    -571.7266636742      6.43E-06
   11    -571.7266666640      1.63E-06
   12    -571.7266668574      3.39E-07
   13    -571.7266668659      3.88E-08
   14    -571.7266668660      5.20E-09 Convergence criterion met
 ---------------------------------------

************** Final PCM Free Energy Summary **************
 G_electrostatic  =      -0.32583501 hartree =    -204.46455700 kcal/mol
 G_cavitation     =       0.00000000 hartree =       0.00000000 kcal/mol
 G_dispersion     =       0.00000000 hartree =       0.00000000 kcal/mol
 G_repulsion      =       0.00000000 hartree =       0.00000000 kcal/mol
 --------------------------------------------------
 Non-electrostatic Free Energy =       0.00000000 hartree =       0.00000000 kcal/mol
 Total                         =      -0.32583501 hartree =    -204.46455700 kcal/mol
 --------------------------------------------------
 SCF Energy (H0 + V/2)                       =    -571.72666687 
 Solute Internal Energy (H0)                 =    -571.40083185 
 Total Free Energy (H0 + V/2 + non-elec)     =    -571.72666687 hartree
                                             = -358763.89828169 kcal/mol
***********************************************************

 SCF time:  CPU 3675.54 s  wall 260.57 s
 SCF   energy in the final basis set = -571.72666687
 Total energy in the final basis set = -571.72666687
 
 --------------------------------------------------------------
 
                    Orbital Energies (a.u.)
 --------------------------------------------------------------
 
 Alpha MOs
 -- Occupied --
-19.221 -19.219 -19.134 -19.134 -19.113 -10.335 -10.327 -10.240
-10.237 -10.232  -1.214  -1.137  -1.059  -1.042  -0.964  -0.877
 -0.829  -0.750  -0.652  -0.610  -0.582  -0.562  -0.545  -0.531
 -0.520  -0.511  -0.493  -0.487  -0.465  -0.455  -0.450  -0.426
 -0.421  -0.404  -0.344  -0.335  -0.330  -0.326  -0.323  -0.296
 -- Virtual --
  0.062   0.076   0.080   0.087   0.100   0.105   0.108   0.118
  0.122   0.139   0.143   0.151   0.152   0.155   0.169   0.173
  0.182   0.182   0.186   0.197   0.203   0.204   0.211   0.215
  0.226   0.236   0.241   0.262   0.267   0.271   0.275   0.284
  0.285   0.290   0.298   0.300   0.306   0.311   0.315   0.324
  0.325   0.338   0.348   0.350   0.352   0.359   0.369   0.376
  0.377   0.385   0.390   0.393   0.394   0.405   0.407   0.414
  0.422   0.424   0.426   0.435   0.438   0.445   0.448   0.453
  0.462   0.466   0.476   0.480   0.486   0.490   0.497   0.501
  0.512   0.514   0.519   0.525   0.532   0.534   0.544   0.552
  0.554   0.567   0.570   0.577   0.583   0.587   0.596   0.603
  0.611   0.615   0.623   0.630   0.638   0.645   0.653   0.664
  0.671   0.676   0.680   0.685   0.697   0.699   0.702   0.717
  0.717   0.720   0.726   0.742   0.750   0.756   0.766   0.774
  0.777   0.788   0.791   0.792   0.798   0.805   0.813   0.818
  0.823   0.832   0.836   0.844   0.847   0.851   0.857   0.871
  0.877   0.881   0.890   0.902   0.914   0.925   0.932   0.943
  0.947   0.962   0.978   0.981   0.993   1.004   1.016   1.024
  1.040   1.062   1.072   1.074   1.093   1.099   1.117   1.134
  1.147   1.161   1.178   1.187   1.197   1.203   1.214   1.238
  1.255   1.265   1.282   1.300   1.303   1.313   1.321   1.342
  1.351   1.373   1.383   1.387   1.418   1.426   1.450   1.471
  1.484   1.501   1.510   1.532   1.541   1.557   1.569   1.574
  1.593   1.632   1.644   1.671   1.703   1.726   1.753   1.785
  1.814   1.842   1.885   1.914   1.920   1.936   1.950   1.966
  1.971   1.996   2.000   2.012   2.028   2.043   2.047   2.047
  2.059   2.069   2.089   2.101   2.134   2.161   2.172   2.176
  2.208   2.213   2.228   2.232   2.273   2.280   2.306   2.316
  2.329   2.343   2.366   2.391   2.425   2.427   2.437   2.441
  2.457   2.481   2.498   2.505   2.526   2.547   2.574   2.601
  2.613   2.636   2.655   2.665   2.693   2.704   2.719   2.723
  2.732   2.768   2.797   2.851   2.866   2.887   2.897   2.911
  2.919   2.934   2.952   2.982   2.993   3.003   3.042   3.052
  3.079   3.091   3.113   3.144   3.171   3.178   3.202   3.210
  3.228   3.249   3.281   3.293   3.306   3.321   3.332   3.350
  3.380   3.409   3.420   3.442   3.458   3.480   3.489   3.502
  3.509   3.532   3.551   3.564   3.593   3.606   3.611   3.633
  3.640   3.656   3.668   3.683   3.697   3.705   3.726   3.740
  3.761   3.770   3.786   3.808   3.817   3.825   3.838   3.875
  3.889   3.934   3.959   3.981   4.036   4.076   4.094   4.099
  4.135   4.147   4.191   4.247   4.276   4.301   4.345   4.404
  4.417   4.449   4.471   4.517   4.611   4.651   4.696   4.707
  4.775   4.825   4.862   4.866   4.908   4.949   4.959   5.033
  5.043   5.093   5.137   5.171   5.228   5.290   5.319   5.333
  5.370   5.374   5.386   5.413   5.420   5.505   5.529   5.567
  5.613   5.651   5.715   5.717   5.728   5.766   5.786   5.834
  6.002   6.011   6.047   6.106   6.229   6.255   6.267   6.306
  6.341   6.368   6.407   6.612   6.622   6.647   6.678   6.699
  6.709   6.768   6.783   6.803   6.855   6.933   6.954   6.985
  7.001   7.064   7.068   7.174   7.198   7.237   7.262   7.311
  7.375   7.383   7.423   7.429   7.528   7.614   8.335  22.737
 22.841  22.949  23.133  23.750  44.229  44.345  44.471  44.607
 44.723
 --------------------------------------------------------------
 
          Ground-State Mulliken Net Atomic Charges

     Atom                 Charge (a.u.)
  ----------------------------------------
      1 C                    -1.311934
      2 C                     1.107969
      3 H                     0.222904
      4 H                     0.241461
      5 H                     0.251076
      6 C                    -0.480230
      7 C                    -0.201841
      8 H                     0.229207
      9 H                     0.228048
     10 H                     0.134319
     11 H                     0.202760
     12 O                    -0.961562
     13 O                    -0.314810
     14 O                    -0.446465
     15 H                     0.377603
     16 C                     0.177393
     17 O                    -0.735778
     18 O                    -0.720119
  ----------------------------------------
  Sum of atomic charges =    -2.000000

 -----------------------------------------------------------------
                    Cartesian Multipole Moments
 -----------------------------------------------------------------
    Charge (ESU x 10^10)
                -9.6064
    Dipole Moment (Debye)
         X       6.6216      Y       1.6221      Z      10.5082
       Tot      12.5259
    Quadrupole Moments (Debye-Ang)
        XX    -120.8615     XY       8.0836     YY     -79.0160
        XZ     -12.8175     YZ      -1.9390     ZZ     -79.1577
    Octopole Moments (Debye-Ang^2)
       XXX      70.1711    XXY      14.8491    XYY       9.3413
       YYY       4.0205    XXZ      69.5323    XYZ       7.9310
       YYZ      28.1348    XZZ      18.2610    YZZ       1.5378
       ZZZ      71.5316
    Hexadecapole Moments (Debye-Ang^3)
      XXXX   -1911.2469   XXXY      31.5128   XXYY    -410.4883
      XYYY     -16.8394   YYYY    -447.2358   XXXZ    -164.8551
      XXYZ     -48.4974   XYYZ     -31.2772   YYYZ     -48.0500
      XXZZ    -374.3640   XYZZ     -25.4776   YYZZ    -149.6395
      XZZZ     -84.2440   YZZZ     -41.6156   ZZZZ    -392.6973
 -----------------------------------------------------------------
 Calculating analytic gradient of the SCF energy
 Gradient of SCF Energy
            1           2           3           4           5           6
    1   0.0511747  -0.0430563  -0.0111381  -0.0672148   0.0423961  -0.0215414
    2   0.0803455  -0.0038132   0.0095894   0.0040702  -0.0695086   0.0278752
    3   0.0012492   0.0431501  -0.0702213   0.0403194   0.0214209   0.0182941
            7           8           9          10          11          12
    1   0.0592960  -0.0277513   0.0271424  -0.0391480   0.0321951  -0.0166776
    2  -0.0904185   0.0215832  -0.0648375   0.0607526   0.0171807   0.0083367
    3   0.0244973  -0.0583046   0.0229810   0.0147205  -0.0384608  -0.0153121
           13          14          15          16          17          18
    1  -0.0283481  -0.0102056   0.0312203  -0.0353218   0.0289225   0.0280560
    2   0.0089167   0.0106351  -0.0283660   0.0331233   0.0390504  -0.0645151
    3   0.0208653  -0.0640510   0.0279811  -0.0348158   0.0466412  -0.0009544
 Max gradient component =       9.042E-02
 RMS gradient           =       3.973E-02
 Computing fast CPCM-ISWIG gradient
 Updating gradient with PCM contributions...
 -- total gradient after adding PCM contribution --
---------------------------------------------------
  Atom         X              Y              Z     
---------------------------------------------------
   1      -0.000102       0.000965      -0.000043
   2      -0.000098      -0.000237      -0.000025
   3       0.000003      -0.000091       0.000017
   4       0.000028      -0.000087      -0.000015
   5       0.000201      -0.000470       0.000088
   6      -0.000016      -0.000004       0.000001
   7       0.000004       0.000006      -0.000006
   8      -0.000000      -0.000000      -0.000002
   9       0.000002       0.000001       0.000000
  10       0.000000      -0.000001       0.000002
  11      -0.000001      -0.000001       0.000000
  12      -0.000011       0.000007      -0.000020
  13      -0.000008      -0.000085       0.000000
  14      -0.000002      -0.000002       0.000002
  15      -0.000001       0.000001      -0.000003
  16       0.000001      -0.000001       0.000004
  17       0.000000       0.000000      -0.000001
  18      -0.000001       0.000001      -0.000001
---------------------------------------------------
 Number of fixed atoms: 0
 Gradient time:  CPU 933.17 s  wall 66.49 s
 ----------------------------------------------------------------
             Standard Nuclear Orientation (Angstroms)
    I     Atom           X                Y                Z
 ----------------------------------------------------------------
    1      C       2.0078351379     1.5425570458     0.3235128568
    2      C       1.0699582368     0.3938107598    -0.0709485059
    3      H       2.2682679340     1.5094688133     1.3869173638
    4      H       2.9259054073     1.4844311941    -0.2690920613
    5      H       1.5195799862     2.5010070823     0.1135407976
    6      C      -0.1089655462     0.2990726905     0.9088619794
    7      C      -1.1962996713    -0.6848338676     0.4899284112
    8      H       0.2917153391     0.0227860867     1.8928394923
    9      H      -0.5436328081     1.2988686315     1.0138100831
   10      H      -0.7505937852    -1.6108489456     0.1178955245
   11      H      -1.7953069000    -0.9530006840     1.3711681246
   12      O       0.7633514506     0.3852193927    -1.3714744508
   13      O       1.8419402589    -0.8892192819     0.2414457901
   14      O       2.5560378704    -1.2010413123    -0.9603501296
   15      H       1.9443999673    -0.6666233928    -1.5718690247
   16      C      -2.2026471095    -0.1655834099    -0.5473913079
   17      O      -2.6374425805    -0.9962355976    -1.3931186515
   18      O      -2.5797162800     1.0329992273    -0.4553632820
 ----------------------------------------------------------------
 Nuclear Repulsion Energy =   561.8621466370 hartrees
 There are       40 alpha and       40 beta electrons
 Discretize the solute cavity surface with Lebedev spheres
	Using 110 Lebedev grid points for each H atom
	Using 110 Lebedev grid points for other atoms
	Atomic van der Waals radii will be scaled by 1.20
 Remove points where switching function is < 1.0e-08
 Keep 1042 surface tesserae and discard 938 interior tesserae
 Molecular Surface Area = 185.251 Angst**2
 Requested basis set is def2-TZVPD
 There are 175 shells and 457 basis functions
 A cutoff of  1.0D-14 yielded  14285 shell pairs
 There are     98205 function pairs (    125309 Cartesian)
 Smallest overlap matrix eigenvalue = 2.57E-06
 Guess MOs from SCF MO coefficient file
 Reading MOs from coefficient file
 Reading MOs from coefficient file
 Long-range K will be added via erf
 Coulomb attenuation parameter = 0.3 bohr**(-1)
 A restricted hybrid HF-DFT SCF calculation will be
 performed using Pulay DIIS extrapolation
 Polarizable Continuum solvation model will be applied
 Exchange:     0.1670 Hartree-Fock + 1.0000 wB97X-V + LR-HF
 Correlation:  1.0000 wB97X-V
 Using SG-2 standard quadrature grid
 Nonlocal Correlation:  VV10 with C = 0.0100 and b = 6.00
 Grid used for NLC:  SG-1 standard quadrature
 SCF converges when DIIS error is below 1.0E-08
Using Q-Chem read-in guess as SCF_GUESS READ specified.

 using 16 threads for integral computing
 -------------------------------------------------------
 OpenMP Integral computing Module                
 Release: version 1.0, May 2013, Q-Chem Inc. Pittsburgh 
 -------------------------------------------------------
 using 16 threads for integral computing
 -------------------------------------------------------
 OpenMP Integral computing Module                
 Release: version 1.0, May 2013, Q-Chem Inc. Pittsburgh 
 -------------------------------------------------------
 -------------------------------------------------------
 OpenMP BLAS3 based DFT computing Module                
 Release: version 1.0, May 2013, Q-Chem Inc. Pittsburgh 
 -------------------------------------------------------
 -------------------------------------------------------
 OpenMP BLAS3 based DFT computing Module                
 Release: version 1.0, May 2013, Q-Chem Inc. Pittsburgh 
 -------------------------------------------------------
 -------------------------------------------------------
 OpenMP BLAS3 based DFT computing Module                
 Release: version 1.0, May 2013, Q-Chem Inc. Pittsburgh 
 -------------------------------------------------------
 ---------------------------------------
  Cycle       Energy         DIIS Error
 ---------------------------------------
    1    -571.4002228044      4.65E-04
    2    -571.7133972570      5.20E-04
    3    -571.7230144859      2.28E-04
    4    -571.7245133764      1.68E-04
    5    -571.7253938302      1.28E-04
    6    -571.7259260765      9.73E-05
    7    -571.7263628520      6.23E-05
    8    -571.7265817752      3.30E-05
    9    -571.7266525233      1.36E-05
   10    -571.7266659324      3.50E-06
   11    -571.7266668152      8.56E-07
   12    -571.7266668678      1.77E-07
   13    -571.7266668700      2.18E-08
   14    -571.7266668700      5.18E-09 Convergence criterion met
 ---------------------------------------

************** Final PCM Free Energy Summary **************
 G_electrostatic  =      -0.32585318 hartree =    -204.47595579 kcal/mol
 G_cavitation     =       0.00000000 hartree =       0.00000000 kcal/mol
 G_dispersion     =       0.00000000 hartree =       0.00000000 kcal/mol
 G_repulsion      =       0.00000000 hartree =       0.00000000 kcal/mol
 --------------------------------------------------
 Non-electrostatic Free Energy =       0.00000000 hartree =       0.00000000 kcal/mol
 Total                         =      -0.32585318 hartree =    -204.47595579 kcal/mol
 --------------------------------------------------
 SCF Energy (H0 + V/2)                       =    -571.72666687 
 Solute Internal Energy (H0)                 =    -571.40081369 
 Total Free Energy (H0 + V/2 + non-elec)     =    -571.72666687 hartree
                                             = -358763.89828418 kcal/mol
***********************************************************

 SCF time:  CPU 3675.94 s  wall 260.39 s
 SCF   energy in the final basis set = -571.72666687
 Total energy in the final basis set = -571.72666687
 
 --------------------------------------------------------------
 
                    Orbital Energies (a.u.)
 --------------------------------------------------------------
 
 Alpha MOs
 -- Occupied --
-19.221 -19.219 -19.134 -19.134 -19.113 -10.335 -10.327 -10.240
-10.238 -10.232  -1.214  -1.137  -1.059  -1.042  -0.964  -0.877
 -0.829  -0.750  -0.652  -0.610  -0.582  -0.562  -0.545  -0.531
 -0.519  -0.511  -0.493  -0.487  -0.465  -0.455  -0.450  -0.426
 -0.421  -0.404  -0.344  -0.335  -0.330  -0.326  -0.323  -0.296
 -- Virtual --
  0.062   0.076   0.080   0.087   0.100   0.105   0.108   0.118
  0.122   0.139   0.143   0.151   0.152   0.155   0.169   0.173
  0.182   0.182   0.186   0.197   0.203   0.204   0.211   0.215
  0.226   0.236   0.241   0.262   0.267   0.271   0.275   0.284
  0.285   0.290   0.298   0.300   0.306   0.311   0.315   0.324
  0.325   0.338   0.348   0.350   0.352   0.359   0.369   0.376
  0.377   0.385   0.390   0.393   0.394   0.405   0.407   0.414
  0.422   0.424   0.425   0.435   0.438   0.445   0.448   0.453
  0.462   0.466   0.476   0.480   0.486   0.490   0.497   0.501
  0.512   0.514   0.519   0.525   0.532   0.534   0.544   0.553
  0.554   0.567   0.570   0.577   0.583   0.587   0.596   0.603
  0.611   0.615   0.623   0.630   0.638   0.645   0.653   0.663
  0.671   0.676   0.680   0.685   0.697   0.699   0.702   0.717
  0.718   0.720   0.726   0.742   0.750   0.756   0.766   0.775
  0.777   0.788   0.791   0.792   0.798   0.805   0.813   0.818
  0.823   0.832   0.836   0.844   0.847   0.851   0.857   0.871
  0.877   0.881   0.890   0.902   0.914   0.925   0.932   0.943
  0.947   0.962   0.978   0.981   0.993   1.004   1.016   1.024
  1.041   1.062   1.072   1.074   1.093   1.099   1.117   1.135
  1.147   1.161   1.178   1.187   1.197   1.203   1.214   1.238
  1.255   1.265   1.282   1.300   1.303   1.313   1.321   1.342
  1.351   1.373   1.383   1.387   1.418   1.426   1.450   1.471
  1.484   1.501   1.510   1.532   1.541   1.557   1.569   1.574
  1.593   1.632   1.644   1.671   1.703   1.726   1.753   1.785
  1.814   1.842   1.885   1.914   1.920   1.936   1.950   1.966
  1.971   1.996   2.000   2.012   2.027   2.044   2.047   2.047
  2.059   2.069   2.089   2.101   2.134   2.161   2.172   2.176
  2.208   2.213   2.228   2.232   2.273   2.280   2.306   2.316
  2.329   2.343   2.366   2.391   2.426   2.427   2.437   2.441
  2.457   2.481   2.497   2.505   2.526   2.547   2.574   2.601
  2.613   2.636   2.654   2.665   2.693   2.704   2.719   2.723
  2.733   2.768   2.797   2.851   2.866   2.887   2.897   2.911
  2.919   2.934   2.952   2.982   2.993   3.003   3.042   3.052
  3.079   3.091   3.113   3.145   3.171   3.178   3.203   3.210
  3.228   3.249   3.281   3.293   3.306   3.321   3.332   3.350
  3.380   3.409   3.420   3.442   3.458   3.480   3.489   3.502
  3.508   3.532   3.551   3.564   3.593   3.607   3.611   3.633
  3.640   3.657   3.668   3.683   3.698   3.705   3.726   3.740
  3.761   3.770   3.787   3.808   3.817   3.825   3.838   3.875
  3.890   3.934   3.959   3.981   4.036   4.076   4.094   4.099
  4.135   4.147   4.191   4.247   4.278   4.302   4.345   4.404
  4.417   4.449   4.471   4.517   4.612   4.652   4.696   4.705
  4.775   4.825   4.862   4.866   4.908   4.949   4.959   5.033
  5.043   5.093   5.137   5.171   5.228   5.290   5.319   5.333
  5.370   5.374   5.386   5.413   5.420   5.505   5.529   5.567
  5.613   5.651   5.715   5.717   5.728   5.766   5.786   5.834
  6.002   6.011   6.047   6.106   6.229   6.255   6.267   6.306
  6.341   6.368   6.407   6.612   6.622   6.647   6.678   6.699
  6.709   6.768   6.783   6.803   6.856   6.933   6.954   6.985
  7.001   7.064   7.068   7.174   7.198   7.237   7.262   7.311
  7.375   7.383   7.423   7.429   7.528   7.614   8.335  22.737
 22.841  22.949  23.134  23.750  44.229  44.345  44.471  44.607
 44.723
 --------------------------------------------------------------
 
          Ground-State Mulliken Net Atomic Charges

     Atom                 Charge (a.u.)
  ----------------------------------------
      1 C                    -1.313407
      2 C                     1.109802
      3 H                     0.223068
      4 H                     0.241808
      5 H                     0.250203
      6 C                    -0.480207
      7 C                    -0.201983
      8 H                     0.229149
      9 H                     0.228195
     10 H                     0.134342
     11 H                     0.202808
     12 O                    -0.961550
     13 O                    -0.314923
     14 O                    -0.446468
     15 H                     0.377634
     16 C                     0.177432
     17 O                    -0.735782
     18 O                    -0.720123
  ----------------------------------------
  Sum of atomic charges =    -2.000000

 -----------------------------------------------------------------
                    Cartesian Multipole Moments
 -----------------------------------------------------------------
    Charge (ESU x 10^10)
                -9.6064
    Dipole Moment (Debye)
         X       6.6235      Y       1.6236      Z      10.5095
       Tot      12.5282
    Quadrupole Moments (Debye-Ang)
        XX    -120.8535     XY       8.0937     YY     -79.0168
        XZ     -12.8149     YZ      -1.9356     ZZ     -79.1570
    Octopole Moments (Debye-Ang^2)
       XXX      70.1969    XXY      14.8928    XYY       9.3588
       YYY       4.0458    XXZ      69.5389    XYZ       7.9386
       YYZ      28.1431    XZZ      18.2633    YZZ       1.5515
       ZZZ      71.5358
    Hexadecapole Moments (Debye-Ang^3)
      XXXX   -1911.1494   XXXY      31.6857   XXYY    -410.3849
      XYYY     -16.7329   YYYY    -447.0998   XXXZ    -164.8368
      XXYZ     -48.4765   XYYZ     -31.2571   YYYZ     -48.0197
      XXZZ    -374.3540   XYZZ     -25.4427   YYZZ    -149.6018
      XZZZ     -84.2354   YZZZ     -41.5950   ZZZZ    -392.6904
 -----------------------------------------------------------------
 Calculating analytic gradient of the SCF energy
 Gradient of SCF Energy
            1           2           3           4           5           6
    1   0.0513617  -0.0425499  -0.0111834  -0.0673217   0.0418871  -0.0215683
    2   0.0789735  -0.0037914   0.0096321   0.0040793  -0.0684968   0.0279940
    3   0.0015614   0.0430472  -0.0702733   0.0403360   0.0212117   0.0182230
            7           8           9          10          11          12
    1   0.0592784  -0.0277789   0.0271312  -0.0391599   0.0321919  -0.0166597
    2  -0.0904429   0.0215937  -0.0648693   0.0607533   0.0171705   0.0083951
    3   0.0244758  -0.0583095   0.0230033   0.0147420  -0.0384585  -0.0152524
           13          14          15          16          17          18
    1  -0.0283558  -0.0102264   0.0312613  -0.0352919   0.0289250   0.0280592
    2   0.0090430   0.0106329  -0.0283412   0.0331389   0.0390518  -0.0645165
    3   0.0208774  -0.0640382   0.0279914  -0.0348241   0.0466419  -0.0009551
 Max gradient component =       9.044E-02
 RMS gradient           =       3.964E-02
 Computing fast CPCM-ISWIG gradient
 Updating gradient with PCM contributions...
 -- total gradient after adding PCM contribution --
---------------------------------------------------
  Atom         X              Y              Z     
---------------------------------------------------
   1       0.000092      -0.000961       0.000035
   2       0.000103       0.000239       0.000034
   3      -0.000001       0.000091      -0.000016
   4      -0.000024       0.000085       0.000018
   5      -0.000199       0.000467      -0.000085
[...]
 O         -0.012  0.007  0.011   -0.032  0.016  0.039    0.262 -0.100 -0.418
 H         -0.009  0.025  0.021    0.045  0.013 -0.011   -0.316 -0.103  0.075
 C         -0.054 -0.065  0.130    0.103  0.021 -0.055    0.048  0.012 -0.028
 O          0.024  0.064  0.010   -0.017  0.013  0.025   -0.009  0.005  0.010
 O          0.042 -0.092 -0.034   -0.004 -0.054  0.012    0.001 -0.031  0.006
 TransDip  -0.028  0.071  0.113    0.045  0.110 -0.211   -0.027  0.022  0.065

 Mode:                25                     26                     27
 Frequency:      1057.81                1098.27                1165.88
 Force Cnst:      1.1255                 1.5872                 1.9951
 Red. Mass:       1.7072                 2.2334                 2.4912
 IR Active:          YES                    YES                    YES
 IR Intens:       43.065                 59.081                148.442
 Raman Active:       YES                    YES                    YES
               X      Y      Z        X      Y      Z        X      Y      Z
 C          0.027 -0.091  0.080   -0.072  0.063 -0.008   -0.103 -0.021  0.033
 C         -0.029  0.118 -0.022    0.066 -0.101  0.029    0.259  0.139  0.071
 H          0.138  0.360  0.057    0.051 -0.181 -0.041    0.051 -0.143 -0.022
 H         -0.121  0.055 -0.158   -0.069 -0.251  0.020   -0.255 -0.421 -0.160
 H         -0.314 -0.323 -0.215    0.273  0.251  0.086    0.019 -0.010 -0.115
 C          0.102  0.054  0.048    0.031  0.183  0.024    0.011  0.041 -0.007
 C         -0.076 -0.032 -0.064   -0.038 -0.178 -0.100   -0.044 -0.013  0.040
 H          0.334  0.278  0.015    0.207 -0.030 -0.096   -0.420 -0.170  0.118
 H         -0.045  0.003 -0.024    0.350  0.291  0.236   -0.293 -0.107  0.205
 H         -0.376 -0.100 -0.239   -0.041 -0.299  0.201   -0.183  0.014 -0.192
 H         -0.249 -0.027 -0.175   -0.363  0.027 -0.244    0.256 -0.043  0.231
 O         -0.002 -0.030 -0.011   -0.017  0.020 -0.015   -0.060 -0.015 -0.097
 O          0.001  0.007 -0.002    0.010 -0.015 -0.010    0.004 -0.039 -0.013
 O         -0.000 -0.000 -0.003   -0.003 -0.000  0.013   -0.002 -0.005  0.017
 H          0.021  0.004 -0.003   -0.013  0.020  0.010   -0.022  0.106  0.067
 C         -0.002 -0.010  0.029   -0.033 -0.017  0.039    0.052  0.019 -0.034
 O          0.011  0.022  0.017    0.027  0.018  0.026   -0.013 -0.012 -0.003
 O          0.013 -0.044 -0.008   -0.008  0.025 -0.013   -0.006 -0.004  0.009
 TransDip  -0.081  0.194 -0.008    0.112 -0.214  0.049    0.242  0.182  0.247

 Mode:                28                     29                     30
 Frequency:      1202.28                1241.71                1311.33
 Force Cnst:      1.1174                 1.2727                 2.8170
 Red. Mass:       1.3120                 1.4010                 2.7804
 IR Active:          YES                    YES                    YES
 IR Intens:        6.272                 34.466                208.794
 Raman Active:       YES                    YES                    YES
               X      Y      Z        X      Y      Z        X      Y      Z
 C         -0.000 -0.032  0.020    0.032 -0.013 -0.015    0.037  0.003 -0.074
 C          0.036  0.122 -0.024   -0.107  0.026  0.060   -0.029  0.056  0.322
 H         -0.018  0.029  0.018   -0.073  0.055  0.016   -0.233 -0.128 -0.004
 H         -0.077 -0.036 -0.091    0.064  0.132  0.029    0.132 -0.006  0.106
 H         -0.104 -0.109 -0.083   -0.050 -0.033  0.052   -0.168 -0.049  0.195
 C          0.004 -0.067 -0.008    0.036  0.033  0.024   -0.011 -0.052 -0.054
 C         -0.014 -0.016 -0.011   -0.054 -0.072 -0.039   -0.023  0.022 -0.010
 H         -0.299 -0.082  0.108   -0.362 -0.117  0.140    0.542  0.251 -0.189
 H          0.421  0.137 -0.212    0.517  0.254 -0.075   -0.028 -0.067 -0.024
 H          0.526  0.067  0.414   -0.165 -0.111 -0.080    0.241  0.108  0.104
 H         -0.270 -0.101 -0.205    0.487  0.084  0.367   -0.084  0.006 -0.060
 O         -0.005 -0.018 -0.007    0.012 -0.003 -0.033   -0.035  0.006 -0.126
 O         -0.010 -0.005  0.010    0.006  0.003 -0.014    0.013 -0.003 -0.063
 O         -0.003  0.003 -0.004    0.005 -0.005  0.004    0.041 -0.039  0.022
 H          0.011  0.019  0.012   -0.036 -0.012  0.027   -0.314  0.121  0.278
 C         -0.033 -0.022  0.018    0.043  0.018 -0.037   -0.044  0.004 -0.024
 O          0.015  0.014  0.013   -0.003  0.000  0.013    0.015  0.023  0.023
 O         -0.004  0.024 -0.006   -0.007 -0.005  0.005    0.012 -0.027 -0.002
 TransDip   0.023  0.054 -0.055   -0.113  0.047  0.143   -0.179  0.141  0.403

 Mode:                31                     32                     33
 Frequency:      1338.24                1378.80                1390.38
 Force Cnst:      1.8457                 1.5011                 2.1264
 Red. Mass:       1.7492                 1.3402                 1.8669
 IR Active:          YES                    YES                    YES
 IR Intens:       92.306                 25.485                 62.202
 Raman Active:       YES                    YES                    YES
               X      Y      Z        X      Y      Z        X      Y      Z
 C         -0.025 -0.002  0.015   -0.088 -0.116 -0.035    0.059  0.057  0.002
 C          0.041 -0.024 -0.068   -0.003  0.021  0.036   -0.109 -0.060  0.027
 H          0.098  0.011 -0.016    0.255  0.450 -0.088   -0.169 -0.103  0.053
 H         -0.022 -0.009  0.009    0.131  0.465  0.228   -0.017 -0.206 -0.075
 H          0.070  0.031 -0.050    0.475  0.232  0.177   -0.228 -0.079  0.057
 C          0.012 -0.014  0.057    0.064  0.021 -0.025    0.199  0.085 -0.043
 C         -0.137 -0.013 -0.108   -0.019 -0.002  0.010   -0.068 -0.009  0.002
 H          0.317  0.227  0.007   -0.158 -0.089  0.031   -0.419 -0.310  0.088
 H         -0.239 -0.112  0.012   -0.164 -0.085  0.022   -0.547 -0.248  0.005
 H          0.461  0.089  0.337    0.078  0.031  0.042    0.219  0.063  0.152
 H          0.487  0.073  0.337   -0.095 -0.067 -0.061   -0.133 -0.171 -0.090
 O          0.002  0.001  0.027   -0.001 -0.001 -0.011    0.012  0.005 -0.004
 O         -0.004  0.000  0.013    0.000  0.001 -0.007    0.003  0.007 -0.004
 O         -0.008  0.008 -0.004    0.006 -0.005  0.001    0.004 -0.003 -0.002
 H          0.056 -0.018 -0.052   -0.041  0.016  0.038   -0.000 -0.022 -0.012
 C         -0.046  0.017 -0.086   -0.001 -0.007  0.000    0.000 -0.021 -0.007
 O          0.032  0.049  0.066    0.002  0.002  0.003    0.007  0.009  0.013
 O          0.016 -0.050  0.002   -0.001  0.004 -0.000   -0.005  0.011 -0.000
 TransDip  -0.086 -0.090 -0.281    0.054  0.119  0.095   -0.134 -0.214 -0.006

 Mode:                34                     35                     36
 Frequency:      1439.38                1448.95                1457.39
 Force Cnst:      3.8280                 1.3581                 1.6735
 Red. Mass:       3.1360                 1.0979                 1.3373
 IR Active:          YES                    YES                    YES
 IR Intens:      257.018                 16.534                132.365
 Raman Active:       YES                    YES                    YES
               X      Y      Z        X      Y      Z        X      Y      Z
 C         -0.007 -0.004 -0.006    0.002  0.004  0.000   -0.001  0.007 -0.011
 C          0.018  0.012  0.011   -0.010 -0.009 -0.003   -0.012 -0.008  0.005
 H          0.030  0.019 -0.013    0.011 -0.010 -0.002    0.079  0.014 -0.026
 H          0.022 -0.026  0.041    0.008 -0.004  0.011    0.065 -0.066  0.101
 H         -0.016 -0.001  0.033   -0.010 -0.004 -0.005   -0.078 -0.021  0.055
 C         -0.005  0.011  0.077    0.020 -0.019 -0.032    0.012 -0.041 -0.058
 C         -0.116 -0.010 -0.081   -0.016 -0.070  0.021   -0.028  0.046 -0.047
 H          0.399 -0.287 -0.187   -0.144  0.286  0.132   -0.132  0.574  0.185
 H         -0.158 -0.007 -0.513    0.053 -0.034  0.319    0.080 -0.067  0.555
 H          0.303  0.198 -0.059    0.341  0.299 -0.427   -0.085 -0.127  0.303
 H          0.119  0.282  0.153   -0.202  0.571  0.071    0.139 -0.309 -0.038
 O         -0.002  0.000 -0.006    0.003  0.000  0.001    0.002 -0.000 -0.001
 O          0.000 -0.000 -0.001    0.000  0.001  0.004    0.001  0.000  0.002
 O          0.003 -0.002  0.000   -0.004  0.003 -0.002   -0.004  0.003 -0.001
 H         -0.028  0.018  0.030    0.045 -0.027 -0.049    0.043 -0.025 -0.046
 C          0.222 -0.102  0.206   -0.002  0.010  0.016    0.077 -0.035  0.070
 O         -0.066 -0.085 -0.108   -0.003 -0.006 -0.006   -0.022 -0.027 -0.036
 O         -0.061  0.144 -0.007    0.003 -0.003 -0.002   -0.020  0.049 -0.002
 TransDip   0.392 -0.127  0.307    0.030  0.125  0.018    0.205 -0.125  0.280

 Mode:                37                     38                     39
 Frequency:      1467.72                1471.03                1513.27
 Force Cnst:      1.3595                 1.3481                 1.6815
 Red. Mass:       1.0712                 1.0573                 1.2463
 IR Active:          YES                    YES                    YES
 IR Intens:       13.247                  1.937                300.284
 Raman Active:       YES                    YES                    YES
               X      Y      Z        X      Y      Z        X      Y      Z
 C          0.020 -0.012  0.051   -0.040  0.029  0.020    0.004  0.003  0.001
 C         -0.011 -0.019  0.012   -0.029  0.009  0.010    0.003 -0.016 -0.104
 H         -0.316 -0.248  0.108    0.527 -0.446 -0.138    0.026  0.152  0.001
 H         -0.250  0.443 -0.423    0.201  0.147  0.356    0.007 -0.151  0.021
 H          0.368  0.072 -0.426   -0.090 -0.127 -0.510   -0.081 -0.006  0.152
 C          0.010 -0.002 -0.011    0.014  0.004 -0.003   -0.004 -0.000  0.011
 C         -0.010  0.006 -0.009    0.000 -0.001  0.005    0.001 -0.004 -0.001
 H         -0.009  0.082  0.022   -0.038 -0.049  0.001   -0.076  0.034  0.047
 H         -0.024 -0.027  0.088   -0.010 -0.004 -0.033    0.008  0.003  0.053
 H          0.010 -0.004  0.038    0.003  0.004 -0.006    0.006  0.005 -0.019
 H          0.014 -0.031 -0.005   -0.020 -0.006 -0.011    0.011  0.032  0.015
 O         -0.001  0.006  0.001    0.002  0.001 -0.001   -0.006  0.015  0.036
 O          0.000  0.003 -0.012    0.001  0.003 -0.010   -0.004  0.011 -0.041
 O          0.013 -0.010  0.004    0.009 -0.007  0.003    0.050 -0.038  0.017
 H         -0.136  0.070  0.139   -0.097  0.043  0.100   -0.591  0.340  0.653
 C          0.016 -0.008  0.015   -0.002 -0.001 -0.003    0.002  0.003  0.001
 O         -0.004 -0.005 -0.007    0.001  0.001  0.002   -0.001 -0.001 -0.001
 O         -0.004  0.010 -0.001    0.000 -0.000  0.000   -0.000 -0.001  0.000
 TransDip  -0.090  0.070  0.026   -0.041  0.017 -0.004   -0.443  0.334 -0.013

 Mode:                40                     41                     42
 Frequency:      1570.75                2916.59                3035.01
 Force Cnst:     13.9063                 5.3388                 5.7795
 Red. Mass:       9.5664                 1.0652                 1.0649
 IR Active:          YES                    YES                    YES
 IR Intens:     1260.589                720.108                 27.993
 Raman Active:       YES                    YES                    YES
               X      Y      Z        X      Y      Z        X      Y      Z
 C         -0.000  0.000  0.000   -0.001  0.001 -0.002   -0.007 -0.009 -0.006
 C         -0.007 -0.001  0.006    0.003 -0.004  0.008    0.001  0.001  0.001
 H          0.004 -0.006 -0.001   -0.001 -0.003  0.009    0.038 -0.008  0.161
 H          0.003  0.004  0.005    0.001 -0.001 -0.002    0.101 -0.009 -0.068
 H         -0.000 -0.000 -0.006    0.006 -0.007  0.002   -0.062  0.116 -0.028
 C          0.020  0.017 -0.007   -0.001  0.002 -0.002    0.009  0.006  0.045
 C         -0.026 -0.048 -0.046    0.000  0.000 -0.000    0.023  0.027 -0.040
 H         -0.034 -0.110 -0.026    0.010 -0.003  0.007   -0.215  0.158 -0.527
 H         -0.064 -0.002 -0.060   -0.003 -0.004  0.002    0.105 -0.236 -0.014
 H          0.250 -0.079  0.419    0.001 -0.001 -0.000    0.086 -0.161 -0.078
 H          0.003 -0.109 -0.032   -0.002 -0.001  0.003   -0.374 -0.161  0.561
 O          0.001 -0.002 -0.001    0.003 -0.004 -0.005   -0.000 -0.000 -0.000
 O          0.000  0.000 -0.000   -0.001  0.003 -0.006   -0.000 -0.000  0.000
 O          0.000  0.000 -0.001   -0.034  0.029 -0.040   -0.000  0.000 -0.000
 H          0.004 -0.003 -0.006    0.484 -0.428  0.761    0.002 -0.002  0.002
 C          0.003  0.682  0.303   -0.000  0.000 -0.000    0.001  0.000 -0.000
 O         -0.082 -0.188 -0.176    0.000  0.000  0.000   -0.000 -0.000 -0.000
 O          0.076 -0.280 -0.032    0.000 -0.000 -0.000   -0.000 -0.000 -0.000
 TransDip   0.023  1.026  0.489    0.588 -0.531  0.333    0.137  0.087  0.048

 Mode:                43                     44                     45
 Frequency:      3039.75                3050.56                3094.62
 Force Cnst:      5.6492                 5.8461                 6.1928
 Red. Mass:       1.0377                 1.0662                 1.0975
 IR Active:          YES                    YES                    YES
 IR Intens:       50.273                 75.930                 16.020
 Raman Active:       YES                    YES                    YES
               X      Y      Z        X      Y      Z        X      Y      Z
 C         -0.027 -0.036 -0.016   -0.004 -0.006 -0.001   -0.008  0.009 -0.009
 C          0.002  0.002  0.001   -0.002  0.000  0.000    0.000 -0.001  0.001
 H          0.136 -0.030  0.581    0.019 -0.004  0.079    0.022 -0.003  0.095
 H          0.420 -0.037 -0.279    0.071 -0.005 -0.045    0.013  0.002 -0.012
 H         -0.256  0.479 -0.112   -0.042  0.079 -0.018    0.056 -0.107  0.023
 C         -0.001  0.000 -0.004   -0.008 -0.014 -0.053    0.040 -0.073  0.024
 C         -0.009 -0.011  0.015    0.019  0.027 -0.033   -0.011  0.011  0.013
 H          0.017 -0.013  0.042    0.243 -0.175  0.594   -0.149  0.102 -0.382
 H         -0.004  0.009 -0.000   -0.148  0.337  0.024   -0.339  0.784  0.085
 H         -0.036  0.067  0.032    0.089 -0.172 -0.079    0.082 -0.169 -0.067
 H          0.140  0.060 -0.211   -0.321 -0.141  0.477    0.057  0.029 -0.089
 O         -0.000 -0.000 -0.000    0.000  0.000 -0.000   -0.000 -0.000 -0.000
 O         -0.000 -0.000  0.000   -0.000  0.000  0.000   -0.000  0.000 -0.000
 O          0.000  0.000 -0.000    0.001 -0.000  0.000   -0.000  0.000 -0.000
 H         -0.001  0.001 -0.000   -0.006  0.005 -0.006    0.004 -0.003  0.004
 C         -0.000 -0.000 -0.000    0.002 -0.001  0.001    0.000 -0.001  0.001
 O          0.000  0.000  0.000   -0.000 -0.000 -0.000   -0.000  0.000 -0.000
 O          0.000  0.000  0.000   -0.000  0.000 -0.000    0.000  0.001  0.000
 TransDip  -0.132 -0.179 -0.046   -0.005  0.018 -0.278    0.026 -0.114  0.053

 Mode:                46                     47                     48
 Frequency:      3114.03                3116.55                3123.53
 Force Cnst:      6.2972                 6.2601                 6.3386
 Red. Mass:       1.1022                 1.0939                 1.1027
 IR Active:          YES                    YES                    YES
 IR Intens:       69.840                 59.000                 67.844
 Raman Active:       YES                    YES                    YES
               X      Y      Z        X      Y      Z        X      Y      Z
 C         -0.031  0.049 -0.069   -0.001 -0.005  0.018   -0.067  0.034  0.053
 C         -0.001  0.001 -0.002    0.000 -0.001  0.000   -0.002  0.001  0.001
 H          0.158 -0.020  0.674   -0.037  0.006 -0.150   -0.081  0.018 -0.284
 H         -0.084  0.015  0.038    0.086 -0.007 -0.053    0.702 -0.046 -0.454
 H          0.303 -0.586  0.121   -0.034  0.064 -0.011    0.189 -0.382  0.097
 C         -0.005  0.008 -0.004    0.010 -0.019  0.004   -0.002  0.005 -0.001
 C          0.009 -0.012 -0.009    0.042 -0.059 -0.042   -0.004  0.006  0.004
 H          0.024 -0.018  0.063   -0.031  0.019 -0.076    0.006 -0.004  0.015
 H          0.034 -0.079 -0.010   -0.088  0.209  0.021    0.025 -0.055 -0.006
 H         -0.080  0.165  0.067   -0.370  0.769  0.316    0.035 -0.074 -0.030
 H         -0.031 -0.017  0.049   -0.135 -0.072  0.207    0.011  0.006 -0.017
 O          0.000 -0.000  0.000    0.000  0.000 -0.000    0.000 -0.000 -0.000
 O          0.000 -0.000  0.000    0.000  0.000  0.000    0.000 -0.000  0.000
 O          0.000 -0.000  0.001   -0.000  0.000 -0.000    0.000 -0.000  0.000
 H         -0.008  0.007 -0.010    0.002 -0.002  0.002   -0.002  0.000 -0.003
 C         -0.000 -0.000 -0.000   -0.000 -0.002 -0.002    0.000  0.000  0.000
 O         -0.000  0.000  0.000   -0.000  0.001  0.000   -0.000 -0.000 -0.000
 O         -0.000 -0.000  0.000    0.000  0.000  0.000   -0.000 -0.000 -0.000
 TransDip  -0.094  0.114 -0.223    0.096 -0.225 -0.025   -0.188  0.108  0.151

 STANDARD THERMODYNAMIC QUANTITIES AT   298.15 K  AND     1.00 ATM

   This Molecule has  0 Imaginary Frequencies
   Zero point vibrational energy:       83.890 kcal/mol

   Atom    1 Element C  Has Mass   12.00000
   Atom    2 Element C  Has Mass   12.00000
   Atom    3 Element H  Has Mass    1.00783
   Atom    4 Element H  Has Mass    1.00783
   Atom    5 Element H  Has Mass    1.00783
   Atom    6 Element C  Has Mass   12.00000
   Atom    7 Element C  Has Mass   12.00000
   Atom    8 Element H  Has Mass    1.00783
   Atom    9 Element H  Has Mass    1.00783
   Atom   10 Element H  Has Mass    1.00783
   Atom   11 Element H  Has Mass    1.00783
   Atom   12 Element O  Has Mass   15.99491
   Atom   13 Element O  Has Mass   15.99491
   Atom   14 Element O  Has Mass   15.99491
   Atom   15 Element H  Has Mass    1.00783
   Atom   16 Element C  Has Mass   12.00000
   Atom   17 Element O  Has Mass   15.99491
   Atom   18 Element O  Has Mass   15.99491
   Molecular Mass:   148.037190 amu
   Principal axes and moments of inertia in amu*Bohr^2:
                             1           2           3
    Eigenvalues --      772.34695  2236.32944  2470.40942
          X               0.99643    -0.04161    -0.07346
          Y              -0.00038     0.86789    -0.49676
          Z               0.08442     0.49501     0.86477
   Rotational Symmetry Number is   1
   The Molecule is an Asymmetric Top
   Translational Enthalpy:        0.889 kcal/mol
   Rotational Enthalpy:           0.889 kcal/mol
   Vibrational Enthalpy:         88.543 kcal/mol
   gas constant (RT):             0.592 kcal/mol
   Translational Entropy:        40.887  cal/mol.K
   Rotational Entropy:           29.835  cal/mol.K
   Vibrational Entropy:          28.938  cal/mol.K

   Total Enthalpy:               90.912 kcal/mol
   Total Entropy:                99.660  cal/mol.K
Archival summary:
1\1\c4-89\FREQ\ProcedureUnspecified\BasisUnspecified\558(2-,1)\leeping\FriMar2022:53:452020FriMar2022:53:452020\0\\#,FREQ,ProcedureUnspecified,BasisUnspecified,\\-2,1\O\O,1,1.4323\H,2,1.01669,1,95.1814\C,1,1.52961,2,105.24,3,-21.9699,0\O,4,1.33621,1,108.01,2,31.1887,0\C,4,1.53529,1,105.508,2,-90.2322,0\H,6,1.09432,4,109.445,1,60.5212,0\H,6,1.09508,4,109.459,1,179.323,0\H,6,1.09536,4,111.8,1,-60.2713,0\C,4,1.53586,1,101.851,2,154.26,0\H,10,1.09524,4,108.027,1,161.563,0\H,10,1.09777,4,107.89,1,46.4697,0\C,10,1.52508,4,114.32,1,-76.3943,0\H,13,1.09296,10,110.448,4,43.2619,0\H,13,1.09878,10,109.016,4,160.276,0\C,13,1.5357,10,115.761,4,-81.0446,0\O,16,1.25986,13,117.934,10,-38.3441,0\O,16,1.26265,13,117.107,10,144.899,0\\\@

 Total job time:  38451.93s(wall), 541996.48s(cpu) 
 Fri Mar 20 22:53:45 2020

        *************************************************************
        *                                                           *
        *  Thank you very much for using Q-Chem.  Have a nice day.  *
        *                                                           *
        *************************************************************


