
Running Job 1 of 1 qc-3-tshess.in
qchem qc-3-tshess.in_86747.0 ./qc-3-tshess.d/ 1
/home/leeping/opt/qchem/5.0.2-openmp/exe/qcprog.exe_s qc-3-tshess.in_86747.0 ./qc-3-tshess.d/
Check license passed

                  Welcome to Q-Chem
     A Quantum Leap Into The Future Of Chemistry


 Q-Chem 5.0, Q-Chem, Inc., Pleasanton, CA (2017)

 Yihan Shao,  Zhengting Gan,  E. Epifanovsky,  A. T. B. Gilbert,  M. Wormit,  
 J. Kussmann,  A. W. Lange,  A. Behn,  Jia Deng,  Xintian Feng,  D. Ghosh,  
 M. Goldey,  P. R. Horn,  L. D. Jacobson,  I. Kaliman,  T. Kus,  A. Landau,  
 Jie Liu,  E. I. Proynov,  R. M. Richard,  R. P. Steele,  E. J. Sundstrom,  
 H. L. Woodcock III,  P. M. Zimmerman,  D. Zuev,  B. Albrecht,  E. Alguire,  
 S. A. Baeppler,  D. Barton,  Z. Benda,  Y. A. Bernard,  E. J. Berquist,  
 K. B. Bravaya,  H. Burton,  D. Casanova,  Chun-Min Chang,  Yunqing Chen,  
 A. Chien,  K. D. Closser,  M. P. Coons,  S. Dasgupta,  A. L. Dempwolff,  
 M. Diedenhofen,  Hainam Do,  R. G. Edgar,  Po-Tung Fang,  S. Fatehi,  
 Qingguo Feng,  J. Fosso-Tande,  Qinghui Ge,  A. Ghysels,  G. Gidofalvi,  
 J. Gomes,  J. Gonthier,  A. Gunina,  M. W. D. Hanson-Heine,  
 P. H. P. Harbach,  A. W. Hauser,  J. E. Herr,  E. G. Hohenstein,  
 Z. C. Holden,  Kerwin Hui,  T.-C. Jagau,  Hyunjun Ji,  B. Kaduk,  
 K. Khistyaev,  Jaehoon Kim,  P. Klunzinger,  K. Koh,  D. Kosenkov,  
 L. Koulias,  T. Kowalczyk,  C. M. Krauter,  A. Kunitsa,  Ka Un Lao,  
 A. Laurent,  K. V. Lawler,  Joonho Lee,  D. Lefrancois,  S. Lehtola,  
 D. S. Levine,  Yi-Pei Li,  You-Sheng Lin,  Fenglai Liu,  E. Livshits,  
 A. Luenser,  P. Manohar,  E. Mansoor,  S. F. Manzer,  Shan-Ping Mao,  
 Yuezhi Mao,  N. Mardirossian,  A. V. Marenich,  T. Markovich,  
 L. A. Martinez-Martinez,  S. A. Maurer,  N. J. Mayhall,  S. C. McKenzie,  
 J.-M. Mewes,  A. F. Morrison,  J. W. Mullinax,  K. Nanda,  
 T. S. Nguyen-Beck,  R. Olivares-Amaya,  J. A. Parkhill,  T. M. Perrine,  
 F. Plasser,  S. Prager,  A. Prociuk,  E. Ramos,  D. R. Rehn,  F. Rob,  
 M. Schneider,  N. Sergueev,  S. M. Sharada,  S. Sharma,  D. W. Small,  
 T. Stauch,  T. Stein,  Yu-Chuan Su,  A. J. W. Thom,  A. Tkatchenko,  
 T. Tsuchimochi,  L. Vogt,  O. Vydrov,  M. A. Watson,  J. Wenzel,  
 M. de Wergifosse,  T. A. Wesolowski,  A. White,  J. Witte,  A. Yamada,  
 Jun Yang,  K. Yao,  S. Yeganeh,  S. R. Yost,  Zhi-Qiang You,  A. Zech,  
 Igor Ying Zhang,  Xing Zhang,  Yan Zhao,  Ying Zhu,  B. R. Brooks,  
 G. K. L. Chan,  C. J. Cramer,  M. S. Gordon,  W. J. Hehre,  A. Klamt,  
 M. W. Schmidt,  C. D. Sherrill,  D. G. Truhlar,  A. Aspuru-Guzik,  R. Baer,  
 A. T. Bell,  N. A. Besley,  Jeng-Da Chai,  R. A. DiStasio Jr.,  A. Dreuw,  
 B. D. Dunietz,  T. R. Furlani,  Chao-Ping Hsu,  Yousung Jung,  Jing Kong,  
 D. S. Lambrecht,  WanZhen Liang,  C. Ochsenfeld,  V. A. Rassolov,  
 L. V. Slipchenko,  J. E. Subotnik,  T. Van Voorhis,  J. M. Herbert,  
 A. I. Krylov,  P. M. W. Gill,  M. Head-Gordon

 Contributors to earlier versions of Q-Chem not listed above: 
 R. D. Adamson,  B. Austin,  J. Baker,  G. J. O. Beran,  K. Brandhorst,  
 S. T. Brown,  E. F. C. Byrd,  A. K. Chakraborty,  C.-L. Cheng,  
 Siu Hung Chien,  D. M. Chipman,  D. L. Crittenden,  H. Dachsel,  
 R. J. Doerksen,  A. D. Dutoi,  L. Fusti-Molnar,  W. A. Goddard III,  
 A. Golubeva-Zadorozhnaya,  S. R. Gwaltney,  G. Hawkins,  A. Heyden,  
 S. Hirata,  G. Kedziora,  F. J. Keil,  C. Kelley,  Jihan Kim,  R. A. King,  
 R. Z. Khaliullin,  P. P. Korambath,  W. Kurlancheek,  A. M. Lee,  M. S. Lee,  
 S. V. Levchenko,  Ching Yeh Lin,  D. Liotard,  R. C. Lochan,  I. Lotan,  
 P. E. Maslen,  N. Nair,  D. P. O'Neill,  D. Neuhauser,  E. Neuscamman,  
 C. M. Oana,  R. Olson,  B. Peters,  R. Peverati,  P. A. Pieniazek,  
 Y. M. Rhee,  J. Ritchie,  M. A. Rohrdanz,  E. Rosta,  N. J. Russ,  
 H. F. Schaefer III,  N. E. Schultz,  N. Shenvi,  A. C. Simmonett,  A. Sodt,  
 D. Stuck,  K. S. Thanthiriwatte,  V. Vanovschi,  Tao Wang,  A. Warshel,  
 C. F. Williams,  Q. Wu,  X. Xu,  W. Zhang

 Please cite Q-Chem as follows:
 Y. Shao et al., Mol. Phys. 113, 184-215 (2015)
 DOI: 10.1080/00268976.2014.952696

 Q-Chem 5.0.2 for Intel X86 EM64T Linux

 Parts of Q-Chem use Armadillo 5.200.1 (Boston Tea Smuggler).
 http://arma.sourceforge.net/

 Q-Chem begins on Sat Jun 23 11:55:50 2018  

Host: 
0

     Scratch files written to ./qc-3-tshess.d//
 Dec517 15110_ 26548  26544 5633   
Processing $rem in /home/leeping/opt/qchem/5.0.2-openmp/config/preferences.
 MEM_STATIC 2000
 MEM_TOTAL  8000
 SYMMETRY   OFF
 SYM_IGNORE TRUE 
Symmetry turned off for PCM/SM12/SMD calculation

Checking the input file for inconsistencies... 	...done.

--------------------------------------------------------------
User input:
--------------------------------------------------------------
$molecule
-2 1
C        1.5848386864    1.6205053443   -0.2837823599
C        1.1707880111    0.1859076976   -0.0582512461
H        1.9386555496    2.0622234057    0.6521187771
H        2.3940285293    1.6665672809   -1.0209824455
H        0.7412844520    2.2066031267   -0.6560299954
C       -0.2741441362    0.1491696871    1.1993299894
C       -1.3691484359   -0.5632399626    0.6569445585
H        0.2115298580   -0.2710530258    2.0767650686
H       -0.3743990849    1.2326028605    1.2619532896
H       -0.2513308488   -0.7374588429   -0.8872539032
H       -1.5113402904   -1.6069855323    0.9304796296
O        0.6336691360   -0.3983727911   -1.1992839682
O        1.9883372803   -0.5734246896    0.6218698408
O        3.5000563134   -0.8201862295   -0.2074238785
H        3.1856379981   -1.5419705929   -0.7669903956
C       -2.4281465826    0.0629222637   -0.1411488887
O       -3.4261193203   -0.6611717276   -0.4890090324
O       -2.3337541153    1.2960587279   -0.4625410400
$end

$rem
jobtype               freq
method                wb97x-v
basis                 def2-tzvpd
symmetry              off
sym_ignore            true
incdft                false
incfock               0
!scf_algorithm        diis_gdm
scf_convergence       8
thresh                14
!purecart             112
max_scf_cycles        1000
geom_opt_max_cycles   500
geom_opt_dmax         100
geom_opt_tol_gradient 10
solvent_method        pcm
ideriv                1
rpath_tol_displacement 1000
rpath_max_cycles      100
rpath_direction       1
!scf_guess            read
scf_guess             read
$end

$pcm
theory              cosmo
method              iswig
Radii               bondi
vdwScale            1.20
hpoints             110
heavypoints         110
$end

$solvent
dielectric 78.400000
$end

--------------------------------------------------------------
 ----------------------------------------------------------------
             Standard Nuclear Orientation (Angstroms)
    I     Atom           X                Y                Z
 ----------------------------------------------------------------
    1      C       1.5848386864     1.6205053443    -0.2837823599
    2      C       1.1707880111     0.1859076976    -0.0582512461
    3      H       1.9386555496     2.0622234057     0.6521187771
    4      H       2.3940285293     1.6665672809    -1.0209824455
    5      H       0.7412844520     2.2066031267    -0.6560299954
    6      C      -0.2741441362     0.1491696871     1.1993299894
    7      C      -1.3691484359    -0.5632399626     0.6569445585
    8      H       0.2115298580    -0.2710530258     2.0767650686
    9      H      -0.3743990849     1.2326028605     1.2619532896
   10      H      -0.2513308488    -0.7374588429    -0.8872539032
   11      H      -1.5113402904    -1.6069855323     0.9304796296
   12      O       0.6336691360    -0.3983727911    -1.1992839682
   13      O       1.9883372803    -0.5734246896     0.6218698408
   14      O       3.5000563134    -0.8201862295    -0.2074238785
   15      H       3.1856379981    -1.5419705929    -0.7669903956
   16      C      -2.4281465826     0.0629222637    -0.1411488887
   17      O      -3.4261193203    -0.6611717276    -0.4890090324
   18      O      -2.3337541153     1.2960587279    -0.4625410400
 ----------------------------------------------------------------
 Nuclear Repulsion Energy =   545.0844936487 hartrees
 There are       40 alpha and       40 beta electrons
 Requested basis set is def2-TZVPD
 There are 175 shells and 457 basis functions

 Total QAlloc Memory Limit   8000 MB
 Mega-Array Size      1956 MB
 MEM_STATIC part      2000 MB
 Discretize the solute cavity surface with Lebedev spheres
	Using 110 Lebedev grid points for each H atom
	Using 110 Lebedev grid points for other atoms
	Atomic van der Waals radii will be scaled by 1.20
 Remove points where switching function is < 1.0e-08
 Keep 1075 surface tesserae and discard 905 interior tesserae
 Molecular Surface Area = 191.503 Angst**2
 A cutoff of  1.0D-14 yielded  14154 shell pairs
 There are     97146 function pairs (    123811 Cartesian)
 
 -------------------------------------------------------
 OpenMP Integral Computing Module                       
 Release: version 1.0, May 2013, Q-Chem Inc. Pittsburgh 
 -------------------------------------------------------
 Integral Job Info:
 Integral job number is                      11
 Integral operator is                         1
 short-range coefficients              16700000
 long-range coefficients              100000000
 Omega coefficients                         300
 if combine SR and LR in K                    1
 Integral screening is                        0
 Integral computing path is                   2
 max size of driver memory is            800000
 size of driver memory is                776718
 size of scratch memory is              4473992
 max col of scratch BK array              10000
 max len of scratch array in speh3          662
 max len of scratch index in speh4           32
 max int batch size is                      520
 min int batch size is                       52
 fixed nKL is                                52
 max L of basis functions is                  3
 order of int derivative is                   0
 number of shells is                        175
 number of basis is                         517
 number of cartesian basis is               517
 number of contracted shell pairs         14154
 number of primitive shell pairs          28691
 maxK2 (contraction) of shell pair           36
 max number of K2 of shell pair               1
 max number of CS2 of shell pair           2318
 max number of PS2 of shell pair           3246
 mem total for path MDJ                  786480
 -------------------------------------------------------
 Smallest overlap matrix eigenvalue = 2.47E-06
 Guess MOs from SCF MO coefficient file
 Reading MOs from coefficient file
 Reading MOs from coefficient file
 Long-range K will be added via erf
 Coulomb attenuation parameter = 0.3 bohr**(-1)
 A restricted hybrid HF-DFT SCF calculation will be
 performed using Pulay DIIS extrapolation
 Polarizable Continuum solvation model will be applied
 Exchange:     0.1670 Hartree-Fock + 1.0000 wB97X-V + LR-HF
 Correlation:  1.0000 wB97X-V
 Using SG-2 standard quadrature grid
 Nonlocal Correlation:  VV10 with C = 0.0100 and b = 6.00
 Grid used for NLC:  SG-1 standard quadrature
 SCF converges when DIIS error is below 1.0E-08
Using Q-Chem read-in guess as SCF_GUESS READ specified.

 using 16 threads for integral computing
 -------------------------------------------------------
 OpenMP Integral computing Module                
 Release: version 1.0, May 2013, Q-Chem Inc. Pittsburgh 
 -------------------------------------------------------
 using 16 threads for integral computing
 -------------------------------------------------------
 OpenMP Integral computing Module                
 Release: version 1.0, May 2013, Q-Chem Inc. Pittsburgh 
 -------------------------------------------------------
 -------------------------------------------------------
 OpenMP BLAS3 based DFT computing Module                
 Release: version 1.0, May 2013, Q-Chem Inc. Pittsburgh 
 -------------------------------------------------------
 -------------------------------------------------------
 OpenMP BLAS3 based DFT computing Module                
 Release: version 1.0, May 2013, Q-Chem Inc. Pittsburgh 
 -------------------------------------------------------
 -------------------------------------------------------
 OpenMP BLAS3 based DFT computing Module                
 Release: version 1.0, May 2013, Q-Chem Inc. Pittsburgh 
 -------------------------------------------------------
 ---------------------------------------
  Cycle       Energy         DIIS Error
 ---------------------------------------
    1    -571.3236363838      3.60E-04
    2    -571.6296150138      4.05E-04
    3    -571.6362240821      1.82E-04
    4    -571.6372983678      1.30E-04
    5    -571.6378801850      1.01E-04
    6    -571.6383206771      7.44E-05
    7    -571.6385346743      5.86E-05
    8    -571.6386607582      4.74E-05
    9    -571.6387263106      4.08E-05
   10    -571.6387787079      3.48E-05
   11    -571.6388440367      2.54E-05
   12    -571.6388804684      1.82E-05
   13    -571.6388982404      1.32E-05
   14    -571.6389053410      1.06E-05
   15    -571.6389089740      9.00E-06
   16    -571.6389122647      7.21E-06
   17    -571.6389181958      3.29E-08
   18    -571.6389181959      7.24E-09 Convergence criterion met
 ---------------------------------------

************** Final PCM Free Energy Summary **************
 G_electrostatic  =      -0.31528182 hartree =    -197.84232539 kcal/mol
 G_cavitation     =       0.00000000 hartree =       0.00000000 kcal/mol
 G_dispersion     =       0.00000000 hartree =       0.00000000 kcal/mol
 G_repulsion      =       0.00000000 hartree =       0.00000000 kcal/mol
 --------------------------------------------------
 Non-electrostatic Free Energy =       0.00000000 hartree =       0.00000000 kcal/mol
 Total                         =      -0.31528182 hartree =    -197.84232539 kcal/mol
 --------------------------------------------------
 SCF Energy (H0 + V/2)                       =    -571.63891820 
 Solute Internal Energy (H0)                 =    -571.32363638 
 Total Free Energy (H0 + V/2 + non-elec)     =    -571.63891820 hartree
                                             = -358708.83516011 kcal/mol
***********************************************************

 SCF time:  CPU 4650.81 s  wall 342.28 s
 SCF   energy in the final basis set = -571.63891820
 Total energy in the final basis set = -571.63891820
 
 --------------------------------------------------------------
 
                    Orbital Energies (a.u.)
 --------------------------------------------------------------
 
 Alpha MOs
 -- Occupied --
-19.244 -19.192 -19.186 -19.119 -19.118 -10.341 -10.321 -10.263
-10.245 -10.203  -1.188  -1.116  -1.112  -1.032  -1.019  -0.866
 -0.846  -0.721  -0.675  -0.610  -0.589  -0.562  -0.560  -0.538
 -0.525  -0.505  -0.492  -0.486  -0.481  -0.475  -0.459  -0.434
 -0.395  -0.381  -0.375  -0.350  -0.329  -0.327  -0.309  -0.235
 -- Virtual --
  0.015   0.061   0.076   0.083   0.089   0.102   0.106   0.109
  0.117   0.128   0.133   0.139   0.143   0.153   0.157   0.165
  0.175   0.178   0.183   0.191   0.199   0.203   0.214   0.220
  0.230   0.234   0.243   0.245   0.246   0.257   0.264   0.279
  0.286   0.288   0.293   0.301   0.311   0.313   0.323   0.323
  0.325   0.339   0.340   0.349   0.356   0.360   0.366   0.370
  0.374   0.377   0.380   0.388   0.390   0.393   0.405   0.407
  0.410   0.417   0.430   0.433   0.439   0.447   0.452   0.458
  0.461   0.468   0.475   0.482   0.485   0.491   0.494   0.497
  0.501   0.512   0.520   0.521   0.525   0.535   0.536   0.539
  0.547   0.559   0.570   0.571   0.572   0.583   0.590   0.594
  0.600   0.609   0.611   0.622   0.629   0.637   0.641   0.648
  0.662   0.668   0.673   0.677   0.685   0.695   0.701   0.703
  0.712   0.723   0.728   0.736   0.744   0.746   0.751   0.758
  0.773   0.777   0.784   0.789   0.800   0.804   0.810   0.818
  0.822   0.827   0.842   0.848   0.853   0.857   0.862   0.872
  0.874   0.887   0.893   0.898   0.909   0.920   0.925   0.934
  0.939   0.948   0.955   0.964   0.983   0.991   1.011   1.022
  1.036   1.049   1.067   1.071   1.079   1.089   1.099   1.113
  1.118   1.137   1.149   1.159   1.169   1.185   1.198   1.223
  1.242   1.252   1.274   1.281   1.292   1.310   1.330   1.341
  1.356   1.364   1.385   1.400   1.415   1.423   1.437   1.445
  1.456   1.465   1.492   1.523   1.531   1.550   1.561   1.570
  1.587   1.607   1.612   1.650   1.722   1.762   1.777   1.798
  1.826   1.856   1.869   1.887   1.898   1.913   1.931   1.942
  1.950   1.963   1.973   1.989   1.998   2.007   2.014   2.022
  2.034   2.040   2.052   2.073   2.077   2.112   2.123   2.133
  2.150   2.168   2.187   2.204   2.217   2.255   2.268   2.274
  2.316   2.318   2.367   2.374   2.376   2.412   2.417   2.429
  2.458   2.472   2.476   2.490   2.494   2.507   2.531   2.558
  2.577   2.600   2.629   2.639   2.661   2.677   2.695   2.721
  2.737   2.757   2.764   2.796   2.802   2.837   2.864   2.892
  2.914   2.933   2.943   2.953   2.964   2.997   3.001   3.012
  3.032   3.037   3.069   3.100   3.111   3.116   3.123   3.154
  3.185   3.205   3.242   3.271   3.277   3.306   3.322   3.329
  3.335   3.346   3.374   3.394   3.418   3.419   3.434   3.466
  3.467   3.491   3.510   3.533   3.540   3.562   3.584   3.595
  3.604   3.617   3.634   3.651   3.666   3.676   3.700   3.711
  3.717   3.732   3.775   3.780   3.796   3.821   3.839   3.854
  3.863   3.895   3.926   3.959   3.989   4.010   4.037   4.065
  4.093   4.116   4.128   4.186   4.195   4.251   4.259   4.335
  4.341   4.383   4.436   4.468   4.564   4.584   4.653   4.680
  4.727   4.791   4.825   4.921   4.941   4.970   4.998   5.062
  5.125   5.151   5.168   5.265   5.293   5.323   5.341   5.361
  5.379   5.400   5.406   5.430   5.486   5.493   5.496   5.552
  5.576   5.601   5.618   5.672   5.732   5.738   5.777   5.804
  5.908   5.986   6.012   6.164   6.199   6.217   6.289   6.368
  6.381   6.399   6.458   6.486   6.580   6.613   6.656   6.660
  6.689   6.731   6.762   6.777   6.806   6.820   6.895   6.971
  6.990   6.992   7.022   7.054   7.098   7.226   7.270   7.290
  7.300   7.372   7.383   7.398   7.409   7.518   7.717  22.737
 22.780  23.023  23.304  23.681  44.079  44.365  44.440  44.467
 44.557
 --------------------------------------------------------------
 
          Ground-State Mulliken Net Atomic Charges

     Atom                 Charge (a.u.)
  ----------------------------------------
      1 C                    -1.111431
      2 C                     0.778175
      3 H                     0.244775
      4 H                     0.228663
      5 H                     0.220454
      6 C                    -0.249438
      7 C                    -0.666508
      8 H                     0.221076
      9 H                     0.213349
     10 H                     0.333259
     11 H                     0.246521
     12 O                    -0.539644
     13 O                    -0.403470
     14 O                    -0.627075
     15 H                     0.297323
     16 C                     0.350466
     17 O                    -0.785992
     18 O                    -0.750503
  ----------------------------------------
  Sum of atomic charges =    -2.000000

 -----------------------------------------------------------------
                    Cartesian Multipole Moments
 -----------------------------------------------------------------
    Charge (ESU x 10^10)
                -9.6064
    Dipole Moment (Debye)
         X      10.2081      Y       0.3296      Z       3.4202
       Tot      10.7708
    Quadrupole Moments (Debye-Ang)
        XX    -154.7269     XY       6.7715     YY     -73.2071
        XZ     -10.3549     YZ       3.4933     ZZ     -71.7639
    Octopole Moments (Debye-Ang^2)
       XXX     104.2482    XXY      18.6271    XYY      33.0518
       YYY     -20.6294    XXZ      25.9273    XYZ       2.8343
       YYZ       4.2094    XZZ      13.6692    YZZ      -3.7467
       ZZZ      11.7800
    Hexadecapole Moments (Debye-Ang^3)
      XXXX   -2977.1104   XXXY      38.7693   XXYY    -445.4893
      XYYY      28.4404   YYYY    -399.3197   XXXZ    -143.8787
      XXYZ      26.7745   XYYZ     -27.2649   YYYZ      24.2633
      XXZZ    -388.8804   XYZZ       6.8025   YYZZ    -109.4708
      XZZZ     -11.9957   YZZZ      15.3467   ZZZZ    -286.3260
 -----------------------------------------------------------------
 Calculating analytic gradient of the SCF energy
 Gradient of SCF Energy
            1           2           3           4           5           6
    1  -0.0128628  -0.0169544  -0.0261340  -0.0523288   0.0694001   0.0865691
    2   0.1167083  -0.0823171  -0.0259078  -0.0075731  -0.0467796   0.1175825
    3  -0.0162788  -0.0014493  -0.0696795   0.0528350   0.0283994   0.1351814
            7           8           9          10          11          12
    1   0.0288928  -0.0276403  -0.0174906   0.0420895  -0.0207880  -0.0332043
    2  -0.1584285   0.0228499  -0.0715546   0.0192811   0.0840001  -0.0058278
    3  -0.0523453  -0.0525931   0.0061373  -0.0021414   0.0040016   0.0012021
           13          14          15          16          17          18
    1  -0.0352689   0.0082914   0.0194652  -0.0529191   0.0456568  -0.0047736
    2   0.0134855  -0.0437721   0.0437668   0.0524984   0.0236058  -0.0516177
    3  -0.0027467  -0.0414859   0.0320081  -0.0539709   0.0176589   0.0152671
 Max gradient component =       1.584E-01
 RMS gradient           =       5.307E-02
 Computing fast CPCM-ISWIG gradient
 Updating gradient with PCM contributions...
 -- total gradient after adding PCM contribution --
---------------------------------------------------
  Atom         X              Y              Z     
---------------------------------------------------
   1       0.000007      -0.000005       0.000004
   2       0.000001      -0.000003      -0.000007
   3       0.000017      -0.000016       0.000005
   4       0.000003      -0.000005      -0.000001
   5       0.000009       0.000003       0.000015
   6       0.000007      -0.000006       0.000004
   7      -0.000001       0.000006       0.000004
   8       0.000011      -0.000017      -0.000004
   9       0.000016      -0.000006       0.000014
  10      -0.000006       0.000015      -0.000007
  11      -0.000006       0.000005      -0.000003
  12      -0.000020       0.000005      -0.000005
  13      -0.000003      -0.000017      -0.000020
  14      -0.000007      -0.000020      -0.000029
  15      -0.000018      -0.000013      -0.000033
  16      -0.000002       0.000020       0.000017
  17      -0.000010       0.000030       0.000018
  18       0.000004       0.000023       0.000028
---------------------------------------------------
 Number of fixed atoms: 0
 Gradient time:  CPU 900.15 s  wall 65.72 s
 ######################################################
 ######################################################
 # Starting finite difference calculation for IDERIV  #
 Finite diff step size:  1.88973e-03 a.u.
 ----------------------------------------------------------------
             Standard Nuclear Orientation (Angstroms)
    I     Atom           X                Y                Z
 ----------------------------------------------------------------
    1      C       1.5858386864     1.6205053443    -0.2837823599
    2      C       1.1707880111     0.1859076976    -0.0582512461
    3      H       1.9386555496     2.0622234057     0.6521187771
    4      H       2.3940285293     1.6665672809    -1.0209824455
    5      H       0.7412844520     2.2066031267    -0.6560299954
    6      C      -0.2741441362     0.1491696871     1.1993299894
    7      C      -1.3691484359    -0.5632399626     0.6569445585
    8      H       0.2115298580    -0.2710530258     2.0767650686
    9      H      -0.3743990849     1.2326028605     1.2619532896
   10      H      -0.2513308488    -0.7374588429    -0.8872539032
   11      H      -1.5113402904    -1.6069855323     0.9304796296
   12      O       0.6336691360    -0.3983727911    -1.1992839682
   13      O       1.9883372803    -0.5734246896     0.6218698408
   14      O       3.5000563134    -0.8201862295    -0.2074238785
   15      H       3.1856379981    -1.5419705929    -0.7669903956
   16      C      -2.4281465826     0.0629222637    -0.1411488887
   17      O      -3.4261193203    -0.6611717276    -0.4890090324
   18      O      -2.3337541153     1.2960587279    -0.4625410400
 ----------------------------------------------------------------
 Nuclear Repulsion Energy =   545.0769009180 hartrees
 There are       40 alpha and       40 beta electrons
 Discretize the solute cavity surface with Lebedev spheres
	Using 110 Lebedev grid points for each H atom
	Using 110 Lebedev grid points for other atoms
	Atomic van der Waals radii will be scaled by 1.20
 Remove points where switching function is < 1.0e-08
 Keep 1075 surface tesserae and discard 905 interior tesserae
 Molecular Surface Area = 191.502 Angst**2
 Requested basis set is def2-TZVPD
 There are 175 shells and 457 basis functions
 A cutoff of  1.0D-14 yielded  14154 shell pairs
 There are     97146 function pairs (    123811 Cartesian)
 Smallest overlap matrix eigenvalue = 2.47E-06
 Guess MOs from SCF MO coefficient file
 Reading MOs from coefficient file
 Reading MOs from coefficient file
 Long-range K will be added via erf
 Coulomb attenuation parameter = 0.3 bohr**(-1)
 A restricted hybrid HF-DFT SCF calculation will be
 performed using Pulay DIIS extrapolation
 Polarizable Continuum solvation model will be applied
 Exchange:     0.1670 Hartree-Fock + 1.0000 wB97X-V + LR-HF
 Correlation:  1.0000 wB97X-V
 Using SG-2 standard quadrature grid
 Nonlocal Correlation:  VV10 with C = 0.0100 and b = 6.00
 Grid used for NLC:  SG-1 standard quadrature
 SCF converges when DIIS error is below 1.0E-08
Using Q-Chem read-in guess as SCF_GUESS READ specified.

 using 16 threads for integral computing
 -------------------------------------------------------
 OpenMP Integral computing Module                
 Release: version 1.0, May 2013, Q-Chem Inc. Pittsburgh 
 -------------------------------------------------------
 using 16 threads for integral computing
 -------------------------------------------------------
 OpenMP Integral computing Module                
 Release: version 1.0, May 2013, Q-Chem Inc. Pittsburgh 
 -------------------------------------------------------
 -------------------------------------------------------
 OpenMP BLAS3 based DFT computing Module                
 Release: version 1.0, May 2013, Q-Chem Inc. Pittsburgh 
 -------------------------------------------------------
 -------------------------------------------------------
 OpenMP BLAS3 based DFT computing Module                
 Release: version 1.0, May 2013, Q-Chem Inc. Pittsburgh 
 -------------------------------------------------------
 -------------------------------------------------------
 OpenMP BLAS3 based DFT computing Module                
 Release: version 1.0, May 2013, Q-Chem Inc. Pittsburgh 
 -------------------------------------------------------
 ---------------------------------------
  Cycle       Energy         DIIS Error
 ---------------------------------------
    1    -571.3236599446      3.59E-04
    2    -571.6296264100      4.05E-04
    3    -571.6362254313      1.82E-04
    4    -571.6372986250      1.30E-04
    5    -571.6378811947      1.01E-04
    6    -571.6383238803      7.41E-05
    7    -571.6385441660      5.77E-05
    8    -571.6386766211      4.57E-05
    9    -571.6387554664      3.73E-05
   10    -571.6388298180      2.74E-05
   11    -571.6388991894      1.25E-05
   12    -571.6389138340      5.40E-06
   13    -571.6389168764      1.63E-06
   14    -571.6389171425      5.25E-07
   15    -571.6389171702      1.54E-07
   16    -571.6389171726      3.95E-08
   17    -571.6389171727      4.56E-09 Convergence criterion met
 ---------------------------------------

************** Final PCM Free Energy Summary **************
 G_electrostatic  =      -0.31528714 hartree =    -197.84566950 kcal/mol
 G_cavitation     =       0.00000000 hartree =       0.00000000 kcal/mol
 G_dispersion     =       0.00000000 hartree =       0.00000000 kcal/mol
 G_repulsion      =       0.00000000 hartree =       0.00000000 kcal/mol
 --------------------------------------------------
 Non-electrostatic Free Energy =       0.00000000 hartree =       0.00000000 kcal/mol
 Total                         =      -0.31528714 hartree =    -197.84566950 kcal/mol
 --------------------------------------------------
 SCF Energy (H0 + V/2)                       =    -571.63891717 
 Solute Internal Energy (H0)                 =    -571.32363003 
 Total Free Energy (H0 + V/2 + non-elec)     =    -571.63891717 hartree
                                             = -358708.83451807 kcal/mol
***********************************************************

 SCF time:  CPU 4385.00 s  wall 323.20 s
 SCF   energy in the final basis set = -571.63891717
 Total energy in the final basis set = -571.63891717
 
 --------------------------------------------------------------
 
                    Orbital Energies (a.u.)
 --------------------------------------------------------------
 
 Alpha MOs
 -- Occupied --
-19.244 -19.192 -19.186 -19.119 -19.118 -10.341 -10.321 -10.263
-10.245 -10.203  -1.188  -1.116  -1.112  -1.032  -1.019  -0.866
 -0.845  -0.721  -0.675  -0.610  -0.589  -0.562  -0.560  -0.538
 -0.525  -0.505  -0.493  -0.486  -0.481  -0.475  -0.459  -0.434
 -0.395  -0.381  -0.375  -0.350  -0.329  -0.327  -0.309  -0.235
 -- Virtual --
  0.015   0.061   0.076   0.083   0.089   0.102   0.106   0.109
  0.117   0.128   0.133   0.139   0.143   0.153   0.157   0.165
  0.175   0.178   0.183   0.191   0.199   0.203   0.214   0.221
  0.230   0.234   0.243   0.245   0.246   0.257   0.264   0.279
  0.286   0.288   0.293   0.301   0.311   0.313   0.323   0.323
  0.325   0.339   0.340   0.349   0.356   0.360   0.366   0.370
  0.374   0.377   0.380   0.388   0.390   0.393   0.405   0.407
  0.410   0.417   0.430   0.433   0.439   0.447   0.452   0.458
  0.461   0.468   0.475   0.481   0.485   0.491   0.494   0.497
  0.501   0.512   0.520   0.521   0.525   0.535   0.536   0.539
  0.547   0.559   0.570   0.571   0.572   0.583   0.590   0.594
  0.600   0.609   0.611   0.622   0.629   0.637   0.641   0.648
  0.662   0.668   0.673   0.677   0.685   0.695   0.701   0.703
  0.712   0.723   0.728   0.736   0.744   0.746   0.751   0.758
  0.773   0.777   0.784   0.789   0.800   0.804   0.810   0.818
  0.822   0.827   0.842   0.848   0.853   0.857   0.862   0.871
  0.874   0.887   0.893   0.898   0.909   0.920   0.925   0.934
  0.939   0.948   0.955   0.964   0.983   0.991   1.011   1.021
  1.036   1.049   1.067   1.071   1.079   1.089   1.100   1.113
  1.118   1.137   1.149   1.159   1.169   1.185   1.198   1.223
  1.242   1.252   1.274   1.281   1.292   1.310   1.330   1.341
  1.356   1.364   1.385   1.400   1.415   1.423   1.437   1.444
  1.456   1.465   1.492   1.523   1.531   1.550   1.561   1.570
  1.587   1.607   1.612   1.650   1.722   1.762   1.777   1.798
  1.826   1.856   1.869   1.887   1.898   1.913   1.931   1.942
  1.950   1.963   1.973   1.989   1.998   2.007   2.014   2.022
  2.034   2.040   2.052   2.073   2.077   2.112   2.123   2.133
  2.150   2.168   2.187   2.204   2.217   2.255   2.268   2.274
  2.316   2.318   2.367   2.374   2.376   2.412   2.417   2.429
  2.458   2.472   2.476   2.490   2.494   2.507   2.531   2.558
  2.577   2.600   2.629   2.638   2.661   2.677   2.696   2.721
  2.737   2.757   2.764   2.796   2.802   2.837   2.864   2.892
  2.914   2.933   2.943   2.953   2.964   2.997   3.001   3.012
  3.032   3.037   3.069   3.100   3.111   3.116   3.123   3.154
  3.185   3.205   3.242   3.271   3.277   3.306   3.323   3.329
  3.335   3.347   3.374   3.394   3.418   3.419   3.434   3.467
  3.467   3.491   3.510   3.533   3.540   3.562   3.584   3.595
  3.605   3.617   3.634   3.651   3.666   3.676   3.700   3.711
  3.717   3.732   3.775   3.780   3.796   3.821   3.839   3.854
  3.862   3.895   3.926   3.959   3.989   4.010   4.037   4.065
  4.093   4.116   4.128   4.186   4.195   4.251   4.259   4.335
  4.341   4.383   4.436   4.468   4.564   4.584   4.653   4.679
  4.728   4.791   4.825   4.921   4.941   4.970   4.998   5.062
  5.125   5.151   5.168   5.265   5.293   5.323   5.341   5.361
  5.379   5.400   5.406   5.430   5.486   5.493   5.496   5.552
  5.575   5.601   5.618   5.672   5.732   5.738   5.777   5.804
  5.908   5.986   6.012   6.164   6.199   6.217   6.289   6.368
  6.381   6.399   6.458   6.486   6.580   6.613   6.656   6.660
  6.689   6.731   6.762   6.777   6.806   6.820   6.895   6.971
  6.989   6.992   7.022   7.054   7.098   7.226   7.270   7.290
  7.300   7.373   7.383   7.398   7.409   7.518   7.717  22.737
 22.780  23.023  23.303  23.681  44.079  44.365  44.440  44.467
 44.557
 --------------------------------------------------------------
 
          Ground-State Mulliken Net Atomic Charges

     Atom                 Charge (a.u.)
  ----------------------------------------
      1 C                    -1.110977
      2 C                     0.777515
      3 H                     0.244874
      4 H                     0.228980
      5 H                     0.219912
      6 C                    -0.248954
      7 C                    -0.666692
      8 H                     0.221036
      9 H                     0.213302
     10 H                     0.333251
     11 H                     0.246513
     12 O                    -0.539560
     13 O                    -0.403457
     14 O                    -0.627009
     15 H                     0.297335
     16 C                     0.350436
     17 O                    -0.785997
     18 O                    -0.750507
  ----------------------------------------
  Sum of atomic charges =    -2.000000

 -----------------------------------------------------------------
                    Cartesian Multipole Moments
 -----------------------------------------------------------------
    Charge (ESU x 10^10)
                -9.6064
    Dipole Moment (Debye)
         X      10.2104      Y       0.3285      Z       3.4200
       Tot      10.7730
    Quadrupole Moments (Debye-Ang)
        XX    -154.7214     XY       6.7710     YY     -73.2100
        XZ     -10.3571     YZ       3.4949     ZZ     -71.7622
    Octopole Moments (Debye-Ang^2)
       XXX     104.2656    XXY      18.6254    XYY      33.0504
       YYY     -20.6400    XXZ      25.9195    XYZ       2.8334
       YYZ       4.2127    XZZ      13.6708    YZZ      -3.7451
       ZZZ      11.7778
    Hexadecapole Moments (Debye-Ang^3)
      XXXX   -2977.1071   XXXY      38.7337   XXYY    -445.4946
      XYYY      28.4156   YYYY    -399.3565   XXXZ    -143.9022
      XXYZ      26.7700   XYYZ     -27.2668   YYYZ      24.2791
      XXZZ    -388.8821   XYZZ       6.8014   YYZZ    -109.4687
      XZZZ     -12.0007   YZZZ      15.3478   ZZZZ    -286.3166
 -----------------------------------------------------------------
 Calculating analytic gradient of the SCF energy
 Gradient of SCF Energy
            1           2           3           4           5           6
    1  -0.0119301  -0.0169971  -0.0262323  -0.0526766   0.0689732   0.0865390
    2   0.1166217  -0.0824769  -0.0259689  -0.0076269  -0.0464641   0.1175616
    3  -0.0162332  -0.0014715  -0.0698425   0.0531395   0.0282269   0.1352051
            7           8           9          10          11          12
    1   0.0288960  -0.0276413  -0.0174833   0.0420891  -0.0207895  -0.0332046
    2  -0.1584100   0.0228308  -0.0715432   0.0192916   0.0840005  -0.0058373
    3  -0.0523646  -0.0525953   0.0061411  -0.0021488   0.0040063   0.0012072
           13          14          15          16          17          18
    1  -0.0352736   0.0083029   0.0194645  -0.0529221   0.0456591  -0.0047732
    2   0.0135357  -0.0437719   0.0437675   0.0525042   0.0236058  -0.0516202
    3  -0.0027530  -0.0414905   0.0320070  -0.0539621   0.0176596   0.0152687
 Max gradient component =       1.584E-01
 RMS gradient           =       5.307E-02
 Computing fast CPCM-ISWIG gradient
 Updating gradient with PCM contributions...
 -- total gradient after adding PCM contribution --
---------------------------------------------------
  Atom         X              Y              Z     
---------------------------------------------------
   1       0.001076      -0.000055       0.000045
   2      -0.000130      -0.000107       0.000010
   3      -0.000123      -0.000079      -0.000138
   4      -0.000358      -0.000020       0.000247
   5      -0.000390       0.000210      -0.000122
   6      -0.000021      -0.000025       0.000021
   7       0.000006       0.000009       0.000011
   8       0.000010      -0.000018      -0.000003
   9       0.000015      -0.000010       0.000013
  10      -0.000004       0.000012      -0.000010
  11      -0.000006       0.000005      -0.000004
  12      -0.000030      -0.000024      -0.000012
  13      -0.000039       0.000063      -0.000047
  14       0.000022      -0.000023      -0.000041
  15      -0.000018      -0.000011      -0.000032
  16      -0.000007       0.000023       0.000013
  17      -0.000008       0.000031       0.000019
  18       0.000004       0.000020       0.000030
---------------------------------------------------
 Number of fixed atoms: 0
 Gradient time:  CPU 896.31 s  wall 66.31 s
 ----------------------------------------------------------------
             Standard Nuclear Orientation (Angstroms)
    I     Atom           X                Y                Z
 ----------------------------------------------------------------
    1      C       1.5838386864     1.6205053443    -0.2837823599
    2      C       1.1707880111     0.1859076976    -0.0582512461
    3      H       1.9386555496     2.0622234057     0.6521187771
    4      H       2.3940285293     1.6665672809    -1.0209824455
    5      H       0.7412844520     2.2066031267    -0.6560299954
    6      C      -0.2741441362     0.1491696871     1.1993299894
    7      C      -1.3691484359    -0.5632399626     0.6569445585
    8      H       0.2115298580    -0.2710530258     2.0767650686
    9      H      -0.3743990849     1.2326028605     1.2619532896
   10      H      -0.2513308488    -0.7374588429    -0.8872539032
   11      H      -1.5113402904    -1.6069855323     0.9304796296
   12      O       0.6336691360    -0.3983727911    -1.1992839682
   13      O       1.9883372803    -0.5734246896     0.6218698408
   14      O       3.5000563134    -0.8201862295    -0.2074238785
   15      H       3.1856379981    -1.5419705929    -0.7669903956
   16      C      -2.4281465826     0.0629222637    -0.1411488887
   17      O      -3.4261193203    -0.6611717276    -0.4890090324
   18      O      -2.3337541153     1.2960587279    -0.4625410400
 ----------------------------------------------------------------
 Nuclear Repulsion Energy =   545.0920834844 hartrees
 There are       40 alpha and       40 beta electrons
 Discretize the solute cavity surface with Lebedev spheres
	Using 110 Lebedev grid points for each H atom
	Using 110 Lebedev grid points for other atoms
	Atomic van der Waals radii will be scaled by 1.20
 Remove points where switching function is < 1.0e-08
 Keep 1075 surface tesserae and discard 905 interior tesserae
 Molecular Surface Area = 191.504 Angst**2
 Requested basis set is def2-TZVPD
 There are 175 shells and 457 basis functions
 A cutoff of  1.0D-14 yielded  14154 shell pairs
 There are     97146 function pairs (    123811 Cartesian)
 Smallest overlap matrix eigenvalue = 2.47E-06
 Guess MOs from SCF MO coefficient file
 Reading MOs from coefficient file
 Reading MOs from coefficient file
 Long-range K will be added via erf
 Coulomb attenuation parameter = 0.3 bohr**(-1)
 A restricted hybrid HF-DFT SCF calculation will be
 performed using Pulay DIIS extrapolation
 Polarizable Continuum solvation model will be applied
 Exchange:     0.1670 Hartree-Fock + 1.0000 wB97X-V + LR-HF
 Correlation:  1.0000 wB97X-V
 Using SG-2 standard quadrature grid
 Nonlocal Correlation:  VV10 with C = 0.0100 and b = 6.00
 Grid used for NLC:  SG-1 standard quadrature
 SCF converges when DIIS error is below 1.0E-08
Using Q-Chem read-in guess as SCF_GUESS READ specified.

 using 16 threads for integral computing
 -------------------------------------------------------
 OpenMP Integral computing Module                
 Release: version 1.0, May 2013, Q-Chem Inc. Pittsburgh 
 -------------------------------------------------------
 using 16 threads for integral computing
 -------------------------------------------------------
 OpenMP Integral computing Module                
 Release: version 1.0, May 2013, Q-Chem Inc. Pittsburgh 
 -------------------------------------------------------
 -------------------------------------------------------
 OpenMP BLAS3 based DFT computing Module                
 Release: version 1.0, May 2013, Q-Chem Inc. Pittsburgh 
 -------------------------------------------------------
 -------------------------------------------------------
 OpenMP BLAS3 based DFT computing Module                
 Release: version 1.0, May 2013, Q-Chem Inc. Pittsburgh 
 -------------------------------------------------------
 -------------------------------------------------------
 OpenMP BLAS3 based DFT computing Module                
 Release: version 1.0, May 2013, Q-Chem Inc. Pittsburgh 
 -------------------------------------------------------
 ---------------------------------------
  Cycle       Energy         DIIS Error
 ---------------------------------------
    1    -571.3235823776      3.61E-04
    2    -571.6295867166      4.06E-04
    3    -571.6362238363      1.82E-04
    4    -571.6373023298      1.30E-04
    5    -571.6378951407      1.00E-04
    6    -571.6383467638      7.25E-05
    7    -571.6385761333      5.49E-05
    8    -571.6387163152      4.14E-05
    9    -571.6388115252      2.98E-05
   10    -571.6388841628      1.65E-05
   11    -571.6389150383      4.26E-06
   12    -571.6389170267      1.21E-06
   13    -571.6389171932      2.07E-07
   14    -571.6389171974      6.10E-08
   15    -571.6389171978      1.70E-08
   16    -571.6389171978      6.65E-09 Convergence criterion met
 ---------------------------------------

************** Final PCM Free Energy Summary **************
 G_electrostatic  =      -0.31527644 hartree =    -197.83895150 kcal/mol
 G_cavitation     =       0.00000000 hartree =       0.00000000 kcal/mol
 G_dispersion     =       0.00000000 hartree =       0.00000000 kcal/mol
 G_repulsion      =       0.00000000 hartree =       0.00000000 kcal/mol
 --------------------------------------------------
 Non-electrostatic Free Energy =       0.00000000 hartree =       0.00000000 kcal/mol
 Total                         =      -0.31527644 hartree =    -197.83895150 kcal/mol
 --------------------------------------------------
 SCF Energy (H0 + V/2)                       =    -571.63891720 
 Solute Internal Energy (H0)                 =    -571.32364076 
 Total Free Energy (H0 + V/2 + non-elec)     =    -571.63891720 hartree
                                             = -358708.83453380 kcal/mol
***********************************************************

 SCF time:  CPU 4117.50 s  wall 303.14 s
 SCF   energy in the final basis set = -571.63891720
 Total energy in the final basis set = -571.63891720
 
 --------------------------------------------------------------
 
                    Orbital Energies (a.u.)
 --------------------------------------------------------------
 
 Alpha MOs
 -- Occupied --
-19.244 -19.192 -19.186 -19.119 -19.118 -10.341 -10.321 -10.263
-10.245 -10.203  -1.188  -1.116  -1.112  -1.032  -1.019  -0.866
 -0.846  -0.721  -0.675  -0.610  -0.589  -0.562  -0.560  -0.538
 -0.525  -0.505  -0.492  -0.486  -0.481  -0.475  -0.459  -0.434
 -0.395  -0.381  -0.375  -0.350  -0.329  -0.327  -0.309  -0.235
 -- Virtual --
  0.015   0.061   0.076   0.083   0.089   0.102   0.106   0.109
  0.117   0.128   0.133   0.139   0.143   0.153   0.157   0.165
  0.175   0.178   0.183   0.191   0.199   0.203   0.214   0.220
  0.230   0.234   0.243   0.245   0.246   0.257   0.264   0.279
  0.286   0.288   0.293   0.301   0.311   0.313   0.323   0.323
  0.325   0.339   0.340   0.349   0.356   0.360   0.366   0.370
  0.374   0.377   0.380   0.388   0.390   0.393   0.405   0.407
  0.410   0.417   0.430   0.433   0.439   0.447   0.453   0.458
  0.461   0.468   0.475   0.482   0.485   0.491   0.494   0.497
  0.501   0.512   0.520   0.521   0.525   0.535   0.536   0.539
  0.547   0.559   0.570   0.571   0.572   0.583   0.590   0.594
  0.600   0.609   0.611   0.622   0.629   0.637   0.641   0.648
  0.662   0.668   0.673   0.677   0.685   0.695   0.701   0.703
  0.712   0.723   0.728   0.736   0.744   0.746   0.751   0.758
  0.774   0.777   0.784   0.789   0.799   0.803   0.810   0.818
  0.822   0.827   0.842   0.848   0.853   0.857   0.862   0.872
  0.874   0.887   0.893   0.898   0.909   0.920   0.925   0.934
  0.939   0.948   0.955   0.964   0.983   0.991   1.011   1.022
  1.036   1.049   1.067   1.071   1.079   1.089   1.099   1.113
  1.118   1.137   1.149   1.159   1.169   1.185   1.198   1.223
  1.242   1.252   1.274   1.281   1.292   1.310   1.330   1.341
  1.356   1.364   1.385   1.400   1.415   1.423   1.438   1.445
  1.456   1.465   1.492   1.523   1.531   1.551   1.561   1.570
  1.587   1.607   1.612   1.650   1.722   1.762   1.777   1.798
  1.826   1.856   1.869   1.887   1.898   1.913   1.931   1.942
  1.950   1.963   1.973   1.989   1.998   2.007   2.014   2.022
  2.034   2.040   2.052   2.073   2.077   2.112   2.123   2.133
  2.150   2.168   2.187   2.204   2.217   2.255   2.268   2.274
  2.316   2.318   2.367   2.374   2.376   2.412   2.417   2.429
  2.458   2.472   2.476   2.490   2.494   2.507   2.531   2.558
  2.577   2.600   2.629   2.639   2.661   2.677   2.695   2.721
  2.737   2.757   2.764   2.796   2.802   2.837   2.864   2.893
  2.914   2.933   2.943   2.953   2.964   2.997   3.001   3.012
  3.032   3.037   3.069   3.100   3.111   3.116   3.123   3.155
  3.185   3.205   3.242   3.271   3.277   3.306   3.322   3.329
  3.335   3.346   3.374   3.394   3.418   3.419   3.434   3.466
  3.467   3.491   3.509   3.533   3.540   3.562   3.584   3.596
  3.604   3.617   3.634   3.651   3.666   3.676   3.700   3.711
  3.717   3.732   3.775   3.780   3.796   3.821   3.839   3.854
  3.863   3.896   3.926   3.959   3.989   4.010   4.037   4.065
  4.093   4.116   4.128   4.186   4.195   4.252   4.260   4.335
  4.341   4.383   4.436   4.468   4.564   4.584   4.654   4.680
  4.726   4.791   4.825   4.921   4.941   4.970   4.998   5.062
  5.125   5.151   5.168   5.265   5.293   5.323   5.341   5.361
  5.379   5.400   5.406   5.430   5.486   5.493   5.496   5.552
  5.576   5.601   5.618   5.672   5.732   5.738   5.777   5.804
  5.908   5.986   6.012   6.165   6.199   6.217   6.289   6.368
  6.381   6.399   6.458   6.486   6.580   6.613   6.656   6.660
  6.689   6.731   6.762   6.777   6.806   6.820   6.895   6.971
  6.990   6.992   7.022   7.054   7.098   7.226   7.270   7.290
  7.300   7.372   7.383   7.398   7.409   7.518   7.717  22.737
 22.780  23.023  23.304  23.681  44.079  44.365  44.440  44.467
 44.557
 --------------------------------------------------------------
 
          Ground-State Mulliken Net Atomic Charges

     Atom                 Charge (a.u.)
  ----------------------------------------
      1 C                    -1.111896
      2 C                     0.778836
      3 H                     0.244679
      4 H                     0.228349
      5 H                     0.220999
      6 C                    -0.249922
      7 C                    -0.666324
      8 H                     0.221117
      9 H                     0.213396
     10 H                     0.333267
     11 H                     0.246529
     12 O                    -0.539728
     13 O                    -0.403483
     14 O                    -0.627141
     15 H                     0.297311
     16 C                     0.350495
     17 O                    -0.785986
     18 O                    -0.750499
  ----------------------------------------
  Sum of atomic charges =    -2.000000

 -----------------------------------------------------------------
                    Cartesian Multipole Moments
 -----------------------------------------------------------------
    Charge (ESU x 10^10)
                -9.6064
    Dipole Moment (Debye)
         X      10.2057      Y       0.3307      Z       3.4205
       Tot      10.7687
    Quadrupole Moments (Debye-Ang)
        XX    -154.7325     XY       6.7720     YY     -73.2043
        XZ     -10.3526     YZ       3.4916     ZZ     -71.7655
    Octopole Moments (Debye-Ang^2)
       XXX     104.2304    XXY      18.6289    XYY      33.0532
       YYY     -20.6188    XXZ      25.9351    XYZ       2.8351
       YYZ       4.2060    XZZ      13.6676    YZZ      -3.7483
       ZZZ      11.7822
    Hexadecapole Moments (Debye-Ang^3)
      XXXX   -2977.1151   XXXY      38.8051   XXYY    -445.4842
      XYYY      28.4652   YYYY    -399.2830   XXXZ    -143.8550
      XXYZ      26.7789   XYYZ     -27.2629   YYYZ      24.2474
      XXZZ    -388.8788   XYZZ       6.8037   YYZZ    -109.4729
      XZZZ     -11.9905   YZZZ      15.3456   ZZZZ    -286.3356
 -----------------------------------------------------------------
 Calculating analytic gradient of the SCF energy
 Gradient of SCF Energy
            1           2           3           4           5           6
    1  -0.0137959  -0.0169119  -0.0260353  -0.0519819   0.0698281   0.0865992
    2   0.1167962  -0.0821572  -0.0258467  -0.0075195  -0.0470962   0.1176035
    3  -0.0163264  -0.0014272  -0.0695167   0.0525320   0.0285725   0.1351576
            7           8           9          10          11          12
    1   0.0288895  -0.0276393  -0.0174978   0.0420899  -0.0207867  -0.0332041
    2  -0.1584471   0.0228689  -0.0715662   0.0192705   0.0839997  -0.0058183
    3  -0.0523260  -0.0525910   0.0061335  -0.0021338   0.0039969   0.0011970
           13          14          15          16          17          18
    1  -0.0352640   0.0082798   0.0194659  -0.0529160   0.0456545  -0.0047741
    2   0.0134354  -0.0437724   0.0437661   0.0524925   0.0236059  -0.0516151
    3  -0.0027404  -0.0414812   0.0320092  -0.0539794   0.0176580   0.0152654
 Max gradient component =       1.584E-01
 RMS gradient           =       5.308E-02
 Computing fast CPCM-ISWIG gradient
 Updating gradient with PCM contributions...
 -- total gradient after adding PCM contribution --
---------------------------------------------------
  Atom         X              Y              Z     
---------------------------------------------------
   1      -0.001063       0.000046      -0.000040
   2       0.000133       0.000101      -0.000023
   3       0.000157       0.000046       0.000148
   4       0.000362       0.000010      -0.000249
   5       0.000408      -0.000205       0.000152
   6       0.000035       0.000013      -0.000013
   7      -0.000008       0.000004      -0.000003
   8       0.000011      -0.000017      -0.000004
   9       0.000016      -0.000001       0.000014
  10      -0.000008       0.000019      -0.000003
  11      -0.000007       0.000005      -0.000002
  12      -0.000009       0.000034       0.000002
  13       0.000033      -0.000096       0.000007
  14      -0.000036      -0.000018      -0.000017
  15      -0.000017      -0.000014      -0.000034
  16       0.000002       0.000017       0.000022
  17      -0.000012       0.000029       0.000016
  18       0.000003       0.000026       0.000025
---------------------------------------------------
 Number of fixed atoms: 0
 Gradient time:  CPU 939.52 s  wall 67.90 s
 ----------------------------------------------------------------
             Standard Nuclear Orientation (Angstroms)
    I     Atom           X                Y                Z
 ----------------------------------------------------------------
    1      C       1.5848386864     1.6215053443    -0.2837823599
    2      C       1.1707880111     0.1859076976    -0.0582512461
    3      H       1.9386555496     2.0622234057     0.6521187771
    4      H       2.3940285293     1.6665672809    -1.0209824455
    5      H       0.7412844520     2.2066031267    -0.6560299954
    6      C      -0.2741441362     0.1491696871     1.1993299894
    7      C      -1.3691484359    -0.5632399626     0.6569445585
    8      H       0.2115298580    -0.2710530258     2.0767650686
    9      H      -0.3743990849     1.2326028605     1.2619532896
   10      H      -0.2513308488    -0.7374588429    -0.8872539032
   11      H      -1.5113402904    -1.6069855323     0.9304796296
   12      O       0.6336691360    -0.3983727911    -1.1992839682
   13      O       1.9883372803    -0.5734246896     0.6218698408
   14      O       3.5000563134    -0.8201862295    -0.2074238785
   15      H       3.1856379981    -1.5419705929    -0.7669903956
   16      C      -2.4281465826     0.0629222637    -0.1411488887
   17      O      -3.4261193203    -0.6611717276    -0.4890090324
   18      O      -2.3337541153     1.2960587279    -0.4625410400
 ----------------------------------------------------------------
 Nuclear Repulsion Energy =   545.0657269978 hartrees
 There are       40 alpha and       40 beta electrons
 Discretize the solute cavity surface with Lebedev spheres
	Using 110 Lebedev grid points for each H atom
	Using 110 Lebedev grid points for other atoms
	Atomic van der Waals radii will be scaled by 1.20
 Remove points where switching function is < 1.0e-08
 Keep 1074 surface tesserae and discard 906 interior tesserae
 Molecular Surface Area = 191.508 Angst**2
 Requested basis set is def2-TZVPD
 There are 175 shells and 457 basis functions
 A cutoff of  1.0D-14 yielded  14154 shell pairs
 There are     97146 function pairs (    123811 Cartesian)
 Smallest overlap matrix eigenvalue = 2.47E-06
 Guess MOs from SCF MO coefficient file
 Reading MOs from coefficient file
 Reading MOs from coefficient file
 Long-range K will be added via erf
 Coulomb attenuation parameter = 0.3 bohr**(-1)
 A restricted hybrid HF-DFT SCF calculation will be
 performed using Pulay DIIS extrapolation
 Polarizable Continuum solvation model will be applied
 Exchange:     0.1670 Hartree-Fock + 1.0000 wB97X-V + LR-HF
 Correlation:  1.0000 wB97X-V
 Using SG-2 standard quadrature grid
 Nonlocal Correlation:  VV10 with C = 0.0100 and b = 6.00
 Grid used for NLC:  SG-1 standard quadrature
 SCF converges when DIIS error is below 1.0E-08
Using Q-Chem read-in guess as SCF_GUESS READ specified.

 using 16 threads for integral computing
 -------------------------------------------------------
 OpenMP Integral computing Module                
 Release: version 1.0, May 2013, Q-Chem Inc. Pittsburgh 
 -------------------------------------------------------
 using 16 threads for integral computing
 -------------------------------------------------------
 OpenMP Integral computing Module                
 Release: version 1.0, May 2013, Q-Chem Inc. Pittsburgh 
 -------------------------------------------------------
 -------------------------------------------------------
 OpenMP BLAS3 based DFT computing Module                
 Release: version 1.0, May 2013, Q-Chem Inc. Pittsburgh 
 -------------------------------------------------------
 -------------------------------------------------------
 OpenMP BLAS3 based DFT computing Module                
 Release: version 1.0, May 2013, Q-Chem Inc. Pittsburgh 
 -------------------------------------------------------
 -------------------------------------------------------
 OpenMP BLAS3 based DFT computing Module                
 Release: version 1.0, May 2013, Q-Chem Inc. Pittsburgh 
 -------------------------------------------------------
 ---------------------------------------
  Cycle       Energy         DIIS Error
 ---------------------------------------
    1    -571.3242126751      3.59E-04
    2    -571.6296323255      4.05E-04
    3    -571.6362282902      1.81E-04
    4    -571.6373011841      1.30E-04
    5    -571.6378855764      1.00E-04
    6    -571.6383322334      7.35E-05
    7    -571.6385593211      5.64E-05
    8    -571.6386975480      4.35E-05
    9    -571.6387862814      3.34E-05
   10    -571.6388644041      2.11E-05
   11    -571.6389117243      6.91E-06
   12    -571.6389166985      2.30E-06
   13    -571.6389172832      4.55E-07
   14    -571.6389173044      1.08E-07
   15    -571.6389173056      2.75E-08
   16    -571.6389173056      8.61E-09 Convergence criterion met
 ---------------------------------------

************** Final PCM Free Energy Summary **************
 G_electrostatic  =      -0.31527494 hartree =    -197.83801197 kcal/mol
 G_cavitation     =       0.00000000 hartree =       0.00000000 kcal/mol
 G_dispersion     =       0.00000000 hartree =       0.00000000 kcal/mol
 G_repulsion      =       0.00000000 hartree =       0.00000000 kcal/mol
 --------------------------------------------------
 Non-electrostatic Free Energy =       0.00000000 hartree =       0.00000000 kcal/mol
 Total                         =      -0.31527494 hartree =    -197.83801197 kcal/mol
 --------------------------------------------------
 SCF Energy (H0 + V/2)                       =    -571.63891731 
 Solute Internal Energy (H0)                 =    -571.32364236 
 Total Free Energy (H0 + V/2 + non-elec)     =    -571.63891731 hartree
                                             = -358708.83460147 kcal/mol
***********************************************************

 SCF time:  CPU 4121.32 s  wall 302.03 s
 SCF   energy in the final basis set = -571.63891731
 Total energy in the final basis set = -571.63891731
 
 --------------------------------------------------------------
 
                    Orbital Energies (a.u.)
 --------------------------------------------------------------
 
 Alpha MOs
 -- Occupied --
-19.244 -19.192 -19.186 -19.119 -19.118 -10.341 -10.321 -10.263
-10.245 -10.203  -1.188  -1.116  -1.112  -1.032  -1.019  -0.866
 -0.845  -0.721  -0.675  -0.610  -0.589  -0.562  -0.560  -0.538
 -0.525  -0.505  -0.492  -0.486  -0.481  -0.475  -0.459  -0.434
 -0.395  -0.381  -0.375  -0.350  -0.329  -0.327  -0.309  -0.235
 -- Virtual --
  0.015   0.061   0.076   0.083   0.089   0.102   0.106   0.109
  0.117   0.128   0.133   0.139   0.143   0.153   0.157   0.165
  0.175   0.178   0.183   0.191   0.199   0.203   0.214   0.220
  0.230   0.234   0.243   0.245   0.246   0.257   0.264   0.279
  0.286   0.288   0.293   0.301   0.311   0.313   0.323   0.323
  0.325   0.339   0.340   0.349   0.356   0.360   0.366   0.370
  0.374   0.377   0.380   0.388   0.390   0.393   0.405   0.407
  0.410   0.417   0.430   0.433   0.439   0.447   0.452   0.458
  0.461   0.468   0.475   0.482   0.485   0.491   0.494   0.497
  0.501   0.512   0.519   0.521   0.525   0.535   0.536   0.539
  0.547   0.559   0.570   0.571   0.572   0.583   0.590   0.594
  0.600   0.609   0.611   0.622   0.629   0.637   0.641   0.648
  0.662   0.668   0.673   0.677   0.685   0.695   0.701   0.703
  0.712   0.723   0.728   0.736   0.744   0.746   0.751   0.758
  0.773   0.777   0.784   0.789   0.800   0.804   0.810   0.818
  0.822   0.827   0.842   0.848   0.853   0.857   0.862   0.871
  0.874   0.887   0.893   0.898   0.909   0.920   0.925   0.934
  0.939   0.948   0.955   0.964   0.983   0.991   1.011   1.022
  1.036   1.049   1.067   1.071   1.079   1.089   1.100   1.113
  1.118   1.137   1.149   1.159   1.169   1.185   1.198   1.223
  1.242   1.252   1.274   1.281   1.292   1.310   1.330   1.341
  1.356   1.364   1.385   1.400   1.415   1.423   1.437   1.444
  1.456   1.465   1.492   1.523   1.531   1.550   1.561   1.570
  1.587   1.607   1.612   1.650   1.722   1.762   1.777   1.798
  1.826   1.856   1.869   1.887   1.898   1.913   1.931   1.942
  1.950   1.963   1.973   1.989   1.998   2.007   2.014   2.022
  2.034   2.040   2.052   2.073   2.077   2.112   2.123   2.133
  2.150   2.168   2.187   2.204   2.217   2.255   2.268   2.274
  2.316   2.318   2.367   2.374   2.376   2.412   2.417   2.429
  2.458   2.472   2.476   2.490   2.494   2.507   2.531   2.558
  2.577   2.600   2.629   2.639   2.661   2.677   2.695   2.721
  2.737   2.757   2.764   2.796   2.802   2.837   2.864   2.892
  2.914   2.933   2.943   2.953   2.964   2.997   3.001   3.012
  3.032   3.037   3.068   3.100   3.111   3.116   3.123   3.155
  3.185   3.205   3.242   3.271   3.277   3.306   3.322   3.329
  3.335   3.347   3.374   3.394   3.418   3.419   3.434   3.466
  3.467   3.491   3.510   3.533   3.541   3.562   3.584   3.596
  3.605   3.617   3.634   3.651   3.666   3.676   3.700   3.711
  3.717   3.732   3.775   3.780   3.796   3.820   3.838   3.854
  3.862   3.895   3.926   3.959   3.989   4.010   4.037   4.065
  4.093   4.116   4.127   4.185   4.195   4.251   4.259   4.335
  4.341   4.383   4.436   4.468   4.564   4.584   4.653   4.680
  4.728   4.791   4.825   4.921   4.941   4.970   4.998   5.062
  5.125   5.151   5.168   5.265   5.293   5.323   5.341   5.361
  5.379   5.400   5.406   5.430   5.486   5.493   5.496   5.552
  5.575   5.601   5.618   5.672   5.732   5.738   5.777   5.804
  5.908   5.986   6.012   6.164   6.199   6.217   6.289   6.368
  6.381   6.399   6.458   6.486   6.580   6.613   6.656   6.660
  6.688   6.731   6.762   6.777   6.806   6.820   6.895   6.971
  6.989   6.992   7.022   7.054   7.098   7.226   7.270   7.290
  7.300   7.372   7.383   7.398   7.409   7.518   7.717  22.737
 22.780  23.023  23.303  23.681  44.079  44.365  44.440  44.467
 44.557
 --------------------------------------------------------------
 
          Ground-State Mulliken Net Atomic Charges

     Atom                 Charge (a.u.)
  ----------------------------------------
      1 C                    -1.110329
      2 C                     0.776869
      3 H                     0.244774
      4 H                     0.228654
      5 H                     0.220682
      6 C                    -0.249373
      7 C                    -0.666431
      8 H                     0.221066
      9 H                     0.213247
     10 H                     0.333223
     11 H                     0.246509
     12 O                    -0.539591
     13 O                    -0.403405
     14 O                    -0.627121
     15 H                     0.297305
     16 C                     0.350422
     17 O                    -0.785992
     18 O                    -0.750507
  ----------------------------------------
  Sum of atomic charges =    -2.000000

 -----------------------------------------------------------------
                    Cartesian Multipole Moments
 -----------------------------------------------------------------
    Charge (ESU x 10^10)
                -9.6064
    Dipole Moment (Debye)
         X      10.2071      Y       0.3293      Z       3.4205
       Tot      10.7700
    Quadrupole Moments (Debye-Ang)
        XX    -154.7307     XY       6.7704     YY     -73.2098
        XZ     -10.3531     YZ       3.4940     ZZ     -71.7627
    Octopole Moments (Debye-Ang^2)
       XXX     104.2331    XXY      18.6230    XYY      33.0422
       YYY     -20.6528    XXZ      25.9324    XYZ       2.8368
       YYZ       4.2123    XZZ      13.6703    YZZ      -3.7500
       ZZZ      11.7798
    Hexadecapole Moments (Debye-Ang^3)
      XXXX   -2977.1832   XXXY      38.7569   XXYY    -445.5295
      XYYY      28.3932   YYYY    -399.4481   XXXZ    -143.8623
      XXYZ      26.7815   XYYZ     -27.2552   YYYZ      24.2746
      XXZZ    -388.8804   XYZZ       6.7960   YYZZ    -109.4854
      XZZZ     -11.9923   YZZZ      15.3520   ZZZZ    -286.3213
 -----------------------------------------------------------------
 Calculating analytic gradient of the SCF energy
 Gradient of SCF Energy
            1           2           3           4           5           6
    1  -0.0128445  -0.0171438  -0.0262027  -0.0523434   0.0696964   0.0865445
    2   0.1173043  -0.0825619  -0.0259987  -0.0075670  -0.0469699   0.1176084
    3  -0.0162073  -0.0014189  -0.0698950   0.0528317   0.0285002   0.1351803
            7           8           9          10          11          12
    1   0.0288691  -0.0276456  -0.0174764   0.0420910  -0.0207851  -0.0332224
    2  -0.1584582   0.0228500  -0.0715573   0.0192837   0.0840008  -0.0058537
    3  -0.0523360  -0.0525950   0.0061265  -0.0021430   0.0039964   0.0011975
           13          14          15          16          17          18
    1  -0.0352542   0.0082817   0.0194624  -0.0529089   0.0456563  -0.0047743
    2   0.0134423  -0.0437735   0.0437655   0.0524968   0.0236056  -0.0516170
    3  -0.0027286  -0.0414790   0.0320074  -0.0539636   0.0176589   0.0152675
 Max gradient component =       1.585E-01
 RMS gradient           =       5.312E-02
 Computing fast CPCM-ISWIG gradient
 Updating gradient with PCM contributions...
 -- total gradient after adding PCM contribution --
---------------------------------------------------
  Atom         X              Y              Z     
---------------------------------------------------
   1      -0.000044       0.000947       0.000029
   2      -0.000076      -0.000362       0.000014
   3      -0.000049      -0.000185      -0.000172
   4      -0.000008      -0.000090       0.000007
   5       0.000225      -0.000230       0.000108
   6      -0.000000      -0.000009       0.000005
   7       0.000001       0.000007       0.000006
   8       0.000012      -0.000018      -0.000004
   9       0.000017      -0.000004       0.000013
  10      -0.000003       0.000012      -0.000010
  11      -0.000007       0.000005      -0.000003
  12      -0.000045      -0.000029      -0.000012
  13       0.000030      -0.000086       0.000011
  14      -0.000025      -0.000017      -0.000021
  15      -0.000018      -0.000013      -0.000033
  16      -0.000003       0.000021       0.000016
  17      -0.000009       0.000030       0.000018
  18       0.000003       0.000022       0.000028
---------------------------------------------------
 Number of fixed atoms: 0
 Gradient time:  CPU 892.97 s  wall 65.40 s
 ----------------------------------------------------------------
             Standard Nuclear Orientation (Angstroms)
    I     Atom           X                Y                Z
 ----------------------------------------------------------------
    1      C       1.5848386864     1.6195053443    -0.2837823599
    2      C       1.1707880111     0.1859076976    -0.0582512461
    3      H       1.9386555496     2.0622234057     0.6521187771
    4      H       2.3940285293     1.6665672809    -1.0209824455
    5      H       0.7412844520     2.2066031267    -0.6560299954
    6      C      -0.2741441362     0.1491696871     1.1993299894
    7      C      -1.3691484359    -0.5632399626     0.6569445585
    8      H       0.2115298580    -0.2710530258     2.0767650686
    9      H      -0.3743990849     1.2326028605     1.2619532896
   10      H      -0.2513308488    -0.7374588429    -0.8872539032
   11      H      -1.5113402904    -1.6069855323     0.9304796296
   12      O       0.6336691360    -0.3983727911    -1.1992839682
   13      O       1.9883372803    -0.5734246896     0.6218698408
   14      O       3.5000563134    -0.8201862295    -0.2074238785
   15      H       3.1856379981    -1.5419705929    -0.7669903956
   16      C      -2.4281465826     0.0629222637    -0.1411488887
   17      O      -3.4261193203    -0.6611717276    -0.4890090324
   18      O      -2.3337541153     1.2960587279    -0.4625410400
 ----------------------------------------------------------------
 Nuclear Repulsion Energy =   545.1032704423 hartrees
 There are       40 alpha and       40 beta electrons
 Discretize the solute cavity surface with Lebedev spheres
	Using 110 Lebedev grid points for each H atom
	Using 110 Lebedev grid points for other atoms
	Atomic van der Waals radii will be scaled by 1.20
 Remove points where switching function is < 1.0e-08
 Keep 1075 surface tesserae and discard 905 interior tesserae
 Molecular Surface Area = 191.498 Angst**2
 Requested basis set is def2-TZVPD
 There are 175 shells and 457 basis functions
 A cutoff of  1.0D-14 yielded  14154 shell pairs
 There are     97146 function pairs (    123811 Cartesian)
 Smallest overlap matrix eigenvalue = 2.47E-06
 Guess MOs from SCF MO coefficient file
 Reading MOs from coefficient file
 Reading MOs from coefficient file
 Long-range K will be added via erf
 Coulomb attenuation parameter = 0.3 bohr**(-1)
 A restricted hybrid HF-DFT SCF calculation will be
 performed using Pulay DIIS extrapolation
 Polarizable Continuum solvation model will be applied
 Exchange:     0.1670 Hartree-Fock + 1.0000 wB97X-V + LR-HF
 Correlation:  1.0000 wB97X-V
 Using SG-2 standard quadrature grid
 Nonlocal Correlation:  VV10 with C = 0.0100 and b = 6.00
 Grid used for NLC:  SG-1 standard quadrature
 SCF converges when DIIS error is below 1.0E-08
Using Q-Chem read-in guess as SCF_GUESS READ specified.

 using 16 threads for integral computing
 -------------------------------------------------------
 OpenMP Integral computing Module                
 Release: version 1.0, May 2013, Q-Chem Inc. Pittsburgh 
 -------------------------------------------------------
 using 16 threads for integral computing
 -------------------------------------------------------
 OpenMP Integral computing Module                
 Release: version 1.0, May 2013, Q-Chem Inc. Pittsburgh 
 -------------------------------------------------------
 -------------------------------------------------------
 OpenMP BLAS3 based DFT computing Module                
 Release: version 1.0, May 2013, Q-Chem Inc. Pittsburgh 
 -------------------------------------------------------
 -------------------------------------------------------
 OpenMP BLAS3 based DFT computing Module                
 Release: version 1.0, May 2013, Q-Chem Inc. Pittsburgh 
 -------------------------------------------------------
 -------------------------------------------------------
 OpenMP BLAS3 based DFT computing Module                
 Release: version 1.0, May 2013, Q-Chem Inc. Pittsburgh 
 -------------------------------------------------------
 ---------------------------------------
  Cycle       Energy         DIIS Error
 ---------------------------------------
    1    -571.3225553195      3.61E-04
    2    -571.6296073791      4.05E-04
    3    -571.6362274034      1.82E-04
    4    -571.6373040242      1.30E-04
    5    -571.6378979038      9.98E-05
    6    -571.6383501117      7.23E-05
    7    -571.6385847474      5.41E-05
    8    -571.6387279296      4.00E-05
    9    -571.6388250685      2.77E-05
   10    -571.6388917954      1.44E-05
   11    -571.6389158667      3.43E-06
   12    -571.6389171904      8.88E-07
   13    -571.6389172827      1.22E-07
   14    -571.6389172841      3.70E-08
   15    -571.6389172842      1.23E-08
   16    -571.6389172842      6.20E-09 Convergence criterion met
 ---------------------------------------

************** Final PCM Free Energy Summary **************
 G_electrostatic  =      -0.31528865 hartree =    -197.84661411 kcal/mol
 G_cavitation     =       0.00000000 hartree =       0.00000000 kcal/mol
 G_dispersion     =       0.00000000 hartree =       0.00000000 kcal/mol
 G_repulsion      =       0.00000000 hartree =       0.00000000 kcal/mol
 --------------------------------------------------
 Non-electrostatic Free Energy =       0.00000000 hartree =       0.00000000 kcal/mol
 Total                         =      -0.31528865 hartree =    -197.84661411 kcal/mol
 --------------------------------------------------
 SCF Energy (H0 + V/2)                       =    -571.63891728 
 Solute Internal Energy (H0)                 =    -571.32362863 
 Total Free Energy (H0 + V/2 + non-elec)     =    -571.63891728 hartree
                                             = -358708.83458803 kcal/mol
***********************************************************

 SCF time:  CPU 4114.25 s  wall 303.23 s
 SCF   energy in the final basis set = -571.63891728
 Total energy in the final basis set = -571.63891728
 
 --------------------------------------------------------------
 
                    Orbital Energies (a.u.)
 --------------------------------------------------------------
 
 Alpha MOs
 -- Occupied --
-19.244 -19.192 -19.186 -19.119 -19.118 -10.341 -10.321 -10.263
-10.245 -10.203  -1.188  -1.116  -1.112  -1.032  -1.019  -0.866
 -0.846  -0.721  -0.675  -0.610  -0.589  -0.562  -0.560  -0.538
 -0.525  -0.505  -0.492  -0.486  -0.480  -0.475  -0.459  -0.434
 -0.395  -0.381  -0.375  -0.350  -0.329  -0.327  -0.309  -0.235
 -- Virtual --
  0.015   0.061   0.076   0.083   0.089   0.102   0.106   0.109
  0.117   0.128   0.133   0.139   0.143   0.153   0.157   0.165
  0.175   0.178   0.183   0.191   0.199   0.203   0.214   0.220
  0.230   0.234   0.243   0.245   0.246   0.257   0.264   0.279
  0.286   0.288   0.293   0.301   0.311   0.313   0.323   0.323
  0.325   0.339   0.340   0.349   0.356   0.360   0.366   0.370
  0.374   0.377   0.380   0.388   0.390   0.393   0.405   0.407
  0.410   0.417   0.430   0.433   0.439   0.447   0.453   0.458
  0.461   0.468   0.475   0.482   0.485   0.491   0.494   0.497
  0.501   0.512   0.520   0.521   0.525   0.535   0.536   0.539
  0.547   0.559   0.570   0.571   0.572   0.583   0.590   0.594
  0.600   0.609   0.611   0.622   0.629   0.637   0.641   0.648
  0.662   0.668   0.673   0.677   0.685   0.695   0.701   0.703
  0.712   0.723   0.728   0.736   0.744   0.746   0.751   0.758
  0.773   0.777   0.784   0.789   0.799   0.804   0.810   0.818
  0.822   0.827   0.842   0.848   0.853   0.857   0.862   0.872
  0.874   0.887   0.893   0.898   0.909   0.919   0.925   0.934
  0.939   0.948   0.955   0.964   0.983   0.991   1.011   1.022
  1.036   1.049   1.067   1.071   1.079   1.089   1.099   1.113
  1.118   1.137   1.149   1.159   1.169   1.185   1.198   1.223
  1.242   1.252   1.274   1.281   1.292   1.310   1.330   1.341
  1.356   1.364   1.385   1.400   1.415   1.423   1.438   1.445
  1.456   1.465   1.492   1.523   1.531   1.550   1.561   1.570
  1.587   1.607   1.612   1.650   1.722   1.762   1.777   1.798
  1.826   1.856   1.869   1.887   1.898   1.913   1.931   1.942
  1.950   1.963   1.973   1.989   1.998   2.007   2.014   2.022
  2.034   2.040   2.052   2.073   2.077   2.112   2.123   2.133
  2.150   2.168   2.187   2.204   2.217   2.255   2.268   2.274
  2.316   2.318   2.367   2.374   2.376   2.412   2.417   2.429
  2.458   2.472   2.476   2.490   2.494   2.507   2.531   2.558
  2.577   2.600   2.629   2.639   2.661   2.677   2.696   2.721
  2.737   2.757   2.764   2.796   2.802   2.837   2.864   2.892
  2.914   2.933   2.943   2.953   2.964   2.997   3.001   3.012
  3.032   3.037   3.069   3.101   3.111   3.116   3.123   3.154
  3.185   3.205   3.242   3.271   3.277   3.306   3.323   3.329
  3.336   3.346   3.374   3.394   3.418   3.419   3.434   3.466
  3.467   3.491   3.509   3.533   3.540   3.562   3.584   3.595
  3.604   3.617   3.634   3.652   3.666   3.676   3.700   3.711
  3.717   3.732   3.775   3.780   3.796   3.821   3.839   3.854
  3.863   3.895   3.926   3.959   3.989   4.010   4.038   4.065
  4.093   4.116   4.128   4.187   4.195   4.252   4.260   4.336
  4.341   4.383   4.436   4.468   4.564   4.585   4.654   4.680
  4.726   4.791   4.825   4.921   4.941   4.970   4.998   5.062
  5.125   5.151   5.168   5.265   5.293   5.323   5.341   5.361
  5.379   5.400   5.406   5.430   5.486   5.493   5.496   5.552
  5.576   5.601   5.618   5.672   5.732   5.738   5.777   5.804
  5.908   5.986   6.012   6.165   6.199   6.217   6.289   6.368
  6.381   6.399   6.458   6.486   6.580   6.613   6.656   6.660
  6.689   6.731   6.762   6.777   6.806   6.820   6.895   6.971
  6.990   6.992   7.022   7.054   7.098   7.226   7.270   7.290
  7.300   7.373   7.383   7.398   7.409   7.518   7.718  22.737
 22.780  23.023  23.304  23.681  44.079  44.365  44.440  44.467
 44.557
 --------------------------------------------------------------
 
          Ground-State Mulliken Net Atomic Charges

     Atom                 Charge (a.u.)
  ----------------------------------------
      1 C                    -1.112541
      2 C                     0.779483
      3 H                     0.244778
      4 H                     0.228674
      5 H                     0.220228
      6 C                    -0.249504
      7 C                    -0.666584
      8 H                     0.221088
      9 H                     0.213450
     10 H                     0.333296
     11 H                     0.246532
     12 O                    -0.539697
     13 O                    -0.403535
     14 O                    -0.627029
     15 H                     0.297340
     16 C                     0.350509
     17 O                    -0.785991
     18 O                    -0.750499
  ----------------------------------------
  Sum of atomic charges =    -2.000000

 -----------------------------------------------------------------
                    Cartesian Multipole Moments
 -----------------------------------------------------------------
    Charge (ESU x 10^10)
                -9.6064
    Dipole Moment (Debye)
         X      10.2090      Y       0.3298      Z       3.4200
       Tot      10.7717
    Quadrupole Moments (Debye-Ang)
        XX    -154.7232     XY       6.7727     YY     -73.2044
        XZ     -10.3566     YZ       3.4926     ZZ     -71.7650
    Octopole Moments (Debye-Ang^2)
       XXX     104.2630    XXY      18.6313    XYY      33.0613
       YYY     -20.6060    XXZ      25.9221    XYZ       2.8317
       YYZ       4.2065    XZZ      13.6682    YZZ      -3.7434
       ZZZ      11.7801
    Hexadecapole Moments (Debye-Ang^3)
      XXXX   -2977.0393   XXXY      38.7820   XXYY    -445.4493
      XYYY      28.4876   YYYY    -399.1914   XXXZ    -143.8949
      XXYZ      26.7674   XYYZ     -27.2745   YYYZ      24.2519
      XXZZ    -388.8805   XYZZ       6.8090   YYZZ    -109.4562
      XZZZ     -11.9989   YZZZ      15.3413   ZZZZ    -286.3308
 -----------------------------------------------------------------
 Calculating analytic gradient of the SCF energy
 Gradient of SCF Energy
            1           2           3           4           5           6
    1  -0.0128832  -0.0167637  -0.0260652  -0.0523139   0.0691043   0.0865936
    2   0.1161094  -0.0820701  -0.0258165  -0.0075790  -0.0465890   0.1175566
    3  -0.0163493  -0.0014805  -0.0694643   0.0528381   0.0282988   0.1351824
            7           8           9          10          11          12
    1   0.0289166  -0.0276350  -0.0175047   0.0420880  -0.0207911  -0.0331863
    2  -0.1583987   0.0228497  -0.0715521   0.0192784   0.0839993  -0.0058019
    3  -0.0523546  -0.0525912   0.0061482  -0.0021395   0.0040066   0.0012066
           13          14          15          16          17          18
    1  -0.0352835   0.0083010   0.0194680  -0.0529293   0.0456573  -0.0047730
    2   0.0135290  -0.0437708   0.0437680   0.0524998   0.0236062  -0.0516183
    3  -0.0027648  -0.0414927   0.0320087  -0.0539779   0.0176588   0.0152666
 Max gradient component =       1.584E-01
 RMS gradient           =       5.302E-02
 Computing fast CPCM-ISWIG gradient
 Updating gradient with PCM contributions...
 -- total gradient after adding PCM contribution --
---------------------------------------------------
  Atom         X              Y              Z     
[...]
 O         -0.076 -0.001  0.047   -0.008  0.000  0.003   -0.046 -0.025 -0.012
 H          0.149 -0.008 -0.068    0.052 -0.005 -0.025    0.874 -0.117 -0.429
 C         -0.036  0.014 -0.094    0.118 -0.059  0.057   -0.001  0.001  0.003
 O         -0.048 -0.053  0.006    0.103  0.141  0.020   -0.002 -0.004 -0.001
 O          0.027  0.043  0.019   -0.078 -0.116  0.001    0.002  0.006 -0.002
 TransDip  -0.387  0.052 -0.156   -0.055 -0.141  0.016    0.336 -0.113 -0.184

 Mode:                25                     26                     27
 Frequency:       978.30                 997.24                1043.07
 Force Cnst:      1.1803                 1.0489                 0.9994
 Red. Mass:       2.0931                 1.7902                 1.5591
 IR Active:          YES                    YES                    YES
 IR Intens:       64.489                114.682                 82.451
 Raman Active:       YES                    YES                    YES
               X      Y      Z        X      Y      Z        X      Y      Z
 C         -0.023  0.048  0.085    0.035 -0.019  0.135   -0.137  0.069 -0.007
 C          0.046 -0.026  0.045    0.059  0.028  0.055    0.062 -0.053 -0.037
 H          0.207  0.336 -0.141    0.137  0.540 -0.176    0.229 -0.166 -0.032
 H         -0.096 -0.400 -0.030   -0.186 -0.306 -0.131    0.047 -0.475  0.146
 H          0.081  0.037 -0.165   -0.113 -0.398 -0.126    0.300  0.589 -0.160
 C         -0.012 -0.085 -0.005   -0.013  0.040 -0.028   -0.036  0.026 -0.025
 C         -0.014  0.157 -0.060    0.048 -0.086  0.040    0.032 -0.048  0.032
 H         -0.258  0.025  0.181    0.260 -0.095 -0.250    0.133 -0.113 -0.192
 H          0.323 -0.037 -0.478   -0.043  0.026  0.153    0.151  0.035  0.004
 H          0.029 -0.097 -0.004    0.005 -0.022  0.070    0.006  0.044  0.085
 H         -0.043  0.126 -0.212    0.144 -0.058  0.207    0.199 -0.046  0.133
 O         -0.029 -0.028 -0.032   -0.039 -0.050 -0.063    0.000  0.019  0.009
 O          0.014  0.037 -0.044   -0.008  0.047 -0.039    0.039 -0.046  0.035
 O         -0.053  0.000  0.023   -0.032 -0.002  0.013   -0.028  0.007  0.008
 H          0.143 -0.015 -0.068    0.141 -0.019 -0.065    0.020  0.003 -0.013
 C          0.018 -0.017  0.054   -0.033  0.019 -0.032   -0.019  0.008 -0.015
 O          0.045  0.063 -0.001   -0.024 -0.033 -0.003   -0.007 -0.011 -0.000
 O         -0.013 -0.128  0.023    0.009  0.072 -0.015    0.002  0.039 -0.010
 TransDip  -0.240  0.069  0.062   -0.311  0.061  0.131   -0.286 -0.025 -0.045

 Mode:                28                     29                     30
 Frequency:      1114.45                1149.80                1195.75
 Force Cnst:      0.9723                 0.9693                 2.2280
 Red. Mass:       1.3286                 1.2444                 2.6448
 IR Active:          YES                    YES                    YES
 IR Intens:      236.681                314.325                247.170
 Raman Active:       YES                    YES                    YES
               X      Y      Z        X      Y      Z        X      Y      Z
 C          0.042  0.011 -0.035    0.017  0.009 -0.029   -0.046 -0.047 -0.084
 C         -0.051 -0.044  0.066   -0.040 -0.039  0.069    0.132  0.155  0.216
 H         -0.083 -0.007  0.027   -0.038 -0.004  0.006   -0.098 -0.449  0.133
 H          0.045  0.255 -0.009    0.042  0.167  0.010    0.147 -0.035  0.140
 H         -0.033 -0.015  0.078    0.008  0.054  0.053   -0.037  0.093  0.155
 C         -0.059 -0.021 -0.022   -0.052 -0.017  0.041   -0.007 -0.097 -0.052
 C          0.053 -0.035  0.025    0.034  0.033 -0.030    0.085  0.097  0.030
 H         -0.291 -0.172  0.035    0.782  0.056 -0.408   -0.070 -0.096 -0.028
 H          0.541  0.036 -0.269    0.092  0.007 -0.240   -0.589 -0.147 -0.061
 H         -0.031 -0.067 -0.247   -0.027 -0.065 -0.220    0.022  0.039  0.053
 H          0.534 -0.048  0.232   -0.191  0.067 -0.029    0.264  0.136  0.264
 O         -0.002  0.005  0.023   -0.008  0.006  0.016   -0.048 -0.049 -0.081
 O          0.007  0.019 -0.036    0.018  0.001 -0.010   -0.012 -0.006 -0.037
 O         -0.013  0.002  0.011   -0.017  0.003  0.009   -0.019  0.003  0.010
 H         -0.023  0.004  0.016    0.003  0.000  0.003    0.016 -0.007  0.005
 C         -0.026  0.002  0.009   -0.015  0.017 -0.022   -0.027  0.014 -0.023
 O         -0.005 -0.009 -0.005    0.005  0.007  0.002   -0.005  0.002 -0.004
 O          0.003  0.049 -0.018    0.001 -0.036  0.012    0.003 -0.012  0.006
 TransDip  -0.464 -0.156 -0.055   -0.562  0.036 -0.073   -0.373  0.199  0.273

 Mode:                31                     32                     33
 Frequency:      1219.78                1292.95                1330.20
 Force Cnst:      1.5660                 1.9826                 4.0407
 Red. Mass:       1.7864                 2.0129                 3.8759
 IR Active:          YES                    YES                    YES
 IR Intens:      203.753                 89.624                907.721
 Raman Active:       YES                    YES                    YES
               X      Y      Z        X      Y      Z        X      Y      Z
 C         -0.024 -0.035 -0.033    0.016 -0.021  0.020    0.010 -0.009  0.033
 C          0.049  0.140  0.097   -0.115  0.074 -0.085   -0.080  0.207 -0.125
 H         -0.066 -0.245  0.084   -0.057  0.057  0.006   -0.077 -0.119  0.103
 H          0.051 -0.076  0.060   -0.076 -0.003 -0.080   -0.115 -0.241 -0.113
 H         -0.063 -0.030  0.084   -0.012 -0.074 -0.018   -0.110 -0.238 -0.055
 C          0.011  0.077  0.034   -0.024 -0.064  0.033   -0.109 -0.056  0.035
 C         -0.080 -0.108 -0.034   -0.056  0.030 -0.024    0.053  0.097  0.011
 H          0.059  0.092  0.027    0.218  0.142 -0.002    0.116 -0.326 -0.249
 H          0.747  0.148 -0.039    0.012 -0.050 -0.117    0.080 -0.024 -0.585
 H          0.046  0.101  0.287    0.074  0.184  0.581    0.013  0.062  0.158
 H         -0.257 -0.143 -0.248    0.575  0.026  0.318    0.022  0.106 -0.053
 O         -0.013 -0.033 -0.070    0.037  0.002 -0.037    0.002 -0.018 -0.009
 O         -0.010 -0.014 -0.001    0.030 -0.044  0.058    0.044 -0.081  0.093
 O          0.008 -0.002 -0.004    0.019 -0.003 -0.013    0.028 -0.003 -0.019
 H          0.015 -0.009 -0.002    0.015 -0.006 -0.008    0.011 -0.007 -0.008
 C         -0.007  0.004  0.004   -0.116  0.023 -0.089    0.229 -0.093  0.155
 O          0.022  0.008  0.009    0.086  0.049  0.037   -0.138 -0.069 -0.056
 O         -0.002 -0.007 -0.000    0.003 -0.052  0.020   -0.010  0.111 -0.039
 TransDip   0.347  0.175  0.241   -0.242  0.061 -0.173    0.951 -0.099  0.133

 Mode:                34                     35                     36
 Frequency:      1377.59                1406.53                1435.57
 Force Cnst:      1.4438                 1.9233                 3.0563
 Red. Mass:       1.2912                 1.6501                 2.5171
 IR Active:          YES                    YES                    YES
 IR Intens:       98.222                361.502                691.029
 Raman Active:       YES                    YES                    YES
               X      Y      Z        X      Y      Z        X      Y      Z
 C         -0.016 -0.087 -0.000    0.057  0.130 -0.031   -0.022 -0.074  0.055
 C         -0.040 -0.041  0.040   -0.058 -0.083  0.008   -0.012  0.183 -0.082
 H          0.006  0.315 -0.187   -0.173 -0.301  0.256    0.031  0.007 -0.015
 H         -0.001  0.399  0.037    0.008 -0.425 -0.100   -0.212  0.173 -0.151
 H          0.240  0.322  0.035   -0.292 -0.299  0.089    0.209  0.055 -0.281
 C         -0.010  0.017 -0.012   -0.003  0.034 -0.007   -0.005  0.023 -0.013
 C          0.062  0.004  0.053    0.089 -0.016  0.070    0.121 -0.035  0.081
 H         -0.129 -0.260 -0.089   -0.164 -0.339 -0.106   -0.241 -0.247 -0.012
 H         -0.055  0.014 -0.166   -0.087  0.032 -0.186    0.043  0.034 -0.138
 H          0.094  0.189  0.535    0.045  0.097  0.290   -0.130 -0.200 -0.590
 H         -0.198 -0.012 -0.158   -0.240 -0.039 -0.180   -0.254 -0.059 -0.174
 O          0.026  0.006 -0.038    0.021  0.012 -0.012   -0.026 -0.018  0.032
 O         -0.011  0.016 -0.014    0.008  0.008 -0.007    0.047 -0.068  0.054
 O          0.003 -0.002 -0.001   -0.007  0.000  0.004   -0.001  0.004 -0.002
 H          0.007 -0.003 -0.003    0.003  0.001 -0.001   -0.012  0.003  0.010
 C          0.016  0.024  0.001   -0.049  0.067 -0.046   -0.105  0.133 -0.091
 O         -0.024 -0.014 -0.009    0.006 -0.001  0.003    0.029  0.006  0.013
 O         -0.001 -0.004  0.000    0.002 -0.039  0.012    0.005 -0.082  0.026
 TransDip  -0.139  0.164  0.234   -0.599  0.087 -0.063   -0.463  0.438 -0.550

 Mode:                37                     38                     39
 Frequency:      1456.57                1466.38                1471.91
 Force Cnst:      3.2288                 1.3585                 1.4031
 Red. Mass:       2.5830                 1.0723                 1.0992
 IR Active:          YES                    YES                    YES
 IR Intens:      536.233                 32.236                 14.133
 Raman Active:       YES                    YES                    YES
               X      Y      Z        X      Y      Z        X      Y      Z
 C          0.015  0.005 -0.009   -0.040  0.031  0.019   -0.028 -0.015 -0.039
 C         -0.018 -0.007 -0.006   -0.024 -0.014  0.017   -0.019  0.034 -0.046
 H         -0.127  0.055  0.024    0.621 -0.313 -0.072    0.234  0.285 -0.263
 H         -0.006 -0.096 -0.032    0.127  0.321  0.197    0.445 -0.137  0.480
 H         -0.023  0.036  0.119   -0.082 -0.349 -0.453   -0.292 -0.088  0.475
 C         -0.102 -0.083 -0.095   -0.008 -0.005 -0.003   -0.001  0.004  0.005
 C          0.066  0.013  0.039    0.004  0.001  0.004    0.014 -0.004  0.011
 H          0.060  0.610  0.157    0.004  0.008 -0.004   -0.038 -0.064 -0.008
 H          0.317 -0.073  0.534    0.011 -0.004  0.003   -0.003  0.007 -0.059
 H          0.019  0.058  0.126    0.018  0.041  0.104   -0.027 -0.033 -0.090
 H          0.079  0.028  0.032    0.016  0.002  0.005   -0.019 -0.009 -0.019
 O          0.006  0.002 -0.005    0.007  0.001 -0.007   -0.001 -0.002  0.008
 O          0.009 -0.003  0.002   -0.004  0.006 -0.005    0.011 -0.013  0.016
 O         -0.003  0.000  0.001    0.002 -0.001 -0.001    0.002 -0.000 -0.002
 H          0.002  0.001 -0.001    0.002 -0.002 -0.000    0.001 -0.000 -0.000
 C          0.137  0.241  0.004    0.017  0.028  0.001   -0.014  0.020 -0.013
 O         -0.093 -0.069 -0.032   -0.011 -0.008 -0.004    0.004  0.001  0.002
 O         -0.012 -0.096  0.023   -0.002 -0.011  0.002    0.000 -0.012  0.004
 TransDip   0.155  0.721  0.081    0.169  0.063  0.021    0.035  0.076 -0.087

 Mode:                40                     41                     42
 Frequency:      1501.43                3050.65                3113.21
 Force Cnst:      3.9690                 5.6843                 6.0434
 Red. Mass:       2.9883                 1.0367                 1.0583
 IR Active:          YES                    YES                    YES
 IR Intens:      900.352                 28.866                 59.951
 Raman Active:       YES                    YES                    YES
               X      Y      Z        X      Y      Z        X      Y      Z
 C         -0.001 -0.004  0.000   -0.027 -0.041  0.013   -0.002  0.001  0.001
 C          0.041 -0.017  0.012    0.000  0.002  0.000    0.000 -0.001 -0.001
 H         -0.057  0.017  0.010    0.171  0.212  0.469   -0.001 -0.000 -0.004
 H         -0.028 -0.010 -0.028    0.516  0.018 -0.473    0.012  0.000 -0.012
 H          0.039  0.063  0.013   -0.363  0.240 -0.154    0.009 -0.006  0.004
 C          0.120  0.088  0.107    0.001  0.001 -0.000   -0.021 -0.046 -0.045
 C         -0.184 -0.075 -0.092   -0.000 -0.000 -0.000    0.002 -0.006  0.003
 H          0.007 -0.506 -0.116   -0.001 -0.000  0.002    0.279 -0.247  0.482
 H         -0.293  0.088 -0.447    0.001 -0.006 -0.001   -0.069  0.779  0.028
 H         -0.019 -0.041 -0.108   -0.005 -0.003  0.000    0.053  0.023 -0.011
 H          0.398 -0.060  0.276   -0.000  0.000 -0.000    0.013  0.087 -0.025
 O         -0.005 -0.000  0.004    0.000 -0.000 -0.000   -0.003 -0.001  0.001
 O         -0.020  0.014 -0.010   -0.001  0.000  0.000   -0.001  0.000  0.000
 O          0.005 -0.001 -0.002    0.000  0.000 -0.000    0.000 -0.000 -0.000
 H         -0.002 -0.000 -0.001    0.000 -0.000 -0.001   -0.000 -0.001 -0.001
 C          0.140  0.231  0.008    0.000 -0.000  0.000   -0.000 -0.001  0.001
 O         -0.052 -0.052 -0.014   -0.000 -0.000 -0.000   -0.000  0.000 -0.000
 O         -0.018 -0.100  0.021    0.000  0.000 -0.000    0.000  0.001 -0.000
 TransDip   0.767  0.579  0.016   -0.048 -0.161  0.035   -0.014 -0.146 -0.200

 Mode:                43                     44                     45
 Frequency:      3122.40                3143.69                3153.79
 Force Cnst:      6.3238                 6.4149                 6.3581
 Red. Mass:       1.1009                 1.1017                 1.0850
 IR Active:          YES                    YES                    YES
 IR Intens:       28.492                 11.304                101.073
 Raman Active:       YES                    YES                    YES
               X      Y      Z        X      Y      Z        X      Y      Z
 C          0.043 -0.033 -0.074   -0.073  0.019 -0.052    0.008 -0.001  0.008
 C          0.002  0.001 -0.001    0.001  0.000  0.001    0.005  0.001  0.004
 H          0.220  0.255  0.549    0.157  0.210  0.441   -0.027 -0.036 -0.072
 H         -0.513 -0.030  0.461    0.085  0.008 -0.099    0.003 -0.000 -0.000
 H         -0.236  0.162 -0.121    0.634 -0.437  0.275   -0.069  0.048 -0.029
 C         -0.001  0.000 -0.002   -0.001  0.000 -0.000   -0.006  0.019 -0.007
 C         -0.000 -0.000  0.001   -0.001 -0.003  0.003   -0.011 -0.072  0.021
 H          0.012 -0.010  0.020    0.002 -0.002  0.000    0.059 -0.051  0.099
 H         -0.003  0.008  0.002    0.002 -0.006 -0.003    0.015 -0.172 -0.011
 H         -0.053 -0.024  0.012   -0.180 -0.077  0.043   -0.328 -0.143  0.078
 H          0.002  0.006 -0.002    0.008  0.047 -0.015    0.122  0.855 -0.227
 O          0.003  0.001 -0.001    0.011  0.004 -0.004    0.020  0.008 -0.007
 O         -0.000  0.000 -0.000   -0.001  0.001 -0.000   -0.002  0.001 -0.001
 O          0.000 -0.000  0.000    0.001 -0.000 -0.000    0.001 -0.000 -0.001
 H         -0.001 -0.001 -0.000    0.000 -0.001 -0.001    0.000 -0.002 -0.001
 C          0.000 -0.000  0.000    0.000 -0.000 -0.000   -0.002 -0.001 -0.001
 O         -0.000 -0.000 -0.000   -0.000 -0.000 -0.000    0.000  0.000  0.000
 O          0.000  0.000 -0.000   -0.000  0.000 -0.000    0.000  0.000 -0.000
 TransDip   0.062 -0.075 -0.140   -0.104 -0.020 -0.019   -0.026 -0.244  0.208

 Mode:                46                     47                     48
 Frequency:      3162.36                3193.98                3830.17
 Force Cnst:      6.3270                 6.6775                 9.2285
 Red. Mass:       1.0738                 1.1110                 1.0677
 IR Active:          YES                    YES                    YES
 IR Intens:      145.482                 33.391                195.063
 Raman Active:       YES                    YES                    YES
               X      Y      Z        X      Y      Z        X      Y      Z
 C         -0.009  0.002 -0.011   -0.001  0.001  0.000    0.000 -0.000 -0.000
 C         -0.010 -0.001 -0.010    0.000  0.000  0.000   -0.001  0.000  0.000
 H          0.040  0.054  0.104   -0.003 -0.002 -0.005    0.000  0.000  0.001
 H         -0.010 -0.000  0.007    0.005 -0.000 -0.005    0.000  0.001 -0.000
 H          0.090 -0.064  0.039    0.010 -0.008  0.005   -0.000  0.000 -0.000
 C          0.005  0.012  0.002   -0.035  0.072 -0.050    0.001  0.000 -0.001
 C         -0.002 -0.034  0.001    0.003  0.019 -0.004   -0.001 -0.000 -0.000
 H         -0.008  0.001  0.007    0.358 -0.306  0.623    0.001 -0.000  0.002
 H          0.006 -0.108 -0.001    0.045 -0.574 -0.034   -0.001  0.001  0.002
 H          0.813  0.349 -0.197    0.015  0.007 -0.003   -0.006 -0.002  0.003
 H          0.041  0.352 -0.082   -0.031 -0.209  0.056   -0.000 -0.000  0.000
 O         -0.049 -0.019  0.018   -0.001 -0.000  0.000    0.000  0.000 -0.000
 O          0.005 -0.003  0.002   -0.001  0.000  0.000    0.001 -0.000  0.000
 O         -0.003  0.000  0.001    0.001 -0.000 -0.000   -0.022 -0.047 -0.036
 H         -0.000  0.006  0.004   -0.000 -0.001 -0.001    0.333  0.746  0.573
 C         -0.005  0.002 -0.001    0.001  0.001  0.000    0.000 -0.000  0.000
 O          0.001  0.000  0.000   -0.000 -0.000 -0.000   -0.000 -0.000 -0.000
 O          0.000 -0.001  0.000   -0.000 -0.000 -0.000   -0.000  0.000 -0.000
 TransDip  -0.051  0.100 -0.370    0.067  0.124 -0.120   -0.371  0.199  0.151

 STANDARD THERMODYNAMIC QUANTITIES AT   298.15 K  AND     1.00 ATM

   This Molecule has  1 Imaginary Frequencies
   Zero point vibrational energy:       80.540 kcal/mol

   Atom    1 Element C  Has Mass   12.00000
   Atom    2 Element C  Has Mass   12.00000
   Atom    3 Element H  Has Mass    1.00783
   Atom    4 Element H  Has Mass    1.00783
   Atom    5 Element H  Has Mass    1.00783
   Atom    6 Element C  Has Mass   12.00000
   Atom    7 Element C  Has Mass   12.00000
   Atom    8 Element H  Has Mass    1.00783
   Atom    9 Element H  Has Mass    1.00783
   Atom   10 Element H  Has Mass    1.00783
   Atom   11 Element H  Has Mass    1.00783
   Atom   12 Element O  Has Mass   15.99491
   Atom   13 Element O  Has Mass   15.99491
   Atom   14 Element O  Has Mass   15.99491
   Atom   15 Element H  Has Mass    1.00783
   Atom   16 Element C  Has Mass   12.00000
   Atom   17 Element O  Has Mass   15.99491
   Atom   18 Element O  Has Mass   15.99491
   Molecular Mass:   148.037190 amu
   Principal axes and moments of inertia in amu*Bohr^2:
                             1           2           3
    Eigenvalues --      626.87981  2766.75801  2905.01191
          X               0.99806     0.05987    -0.01736
          Y              -0.05551     0.98029     0.18960
          Z               0.02837    -0.18827     0.98171
   Rotational Symmetry Number is   1
   The Molecule is an Asymmetric Top
   Translational Enthalpy:        0.889 kcal/mol
   Rotational Enthalpy:           0.889 kcal/mol
   Vibrational Enthalpy:         85.868 kcal/mol
   gas constant (RT):             0.592 kcal/mol
   Translational Entropy:        40.887  cal/mol.K
   Rotational Entropy:           30.000  cal/mol.K
   Vibrational Entropy:          33.568  cal/mol.K

   Total Enthalpy:               88.238 kcal/mol
   Total Entropy:               104.456  cal/mol.K
Archival summary:
1\1\c6-87\FREQ\ProcedureUnspecified\BasisUnspecified\558(2-,1)\leeping\SatJun2323:37:452018SatJun2323:37:452018\0\\#,FREQ,ProcedureUnspecified,BasisUnspecified,\\-2,1\O\H,1,0.997781\C,1,1.38991,2,103.232\O,3,1.30673,1,115.137,2,96.349,0\C,3,1.51009,1,112.502,2,-125.728,0\H,5,1.09255,3,110.415,1,55.8488,0\H,5,1.09371,3,110.156,1,176.223,0\H,5,1.09562,3,110.056,1,-63.9924,0\O,4,1.74181,3,112.18,1,70.8224,0\H,9,0.965891,4,95.6913,3,-83.2447,0\C,2,1.91427,1,137.67,3,10.7356,0\H,11,1.08832,2,101.055,1,-124.954,0\C,11,1.41448,2,84.4399,1,-6.24555,0\H,13,1.08736,11,117.423,2,-116.89,0\H,13,1.08986,11,116.84,2,105.297,0\C,11,1.46646,2,91.2337,1,117.349,0\O,16,1.27782,11,119.709,2,-78.7861,0\O,16,1.28112,11,117.968,2,101.385,0\\\@

 Total job time:  42115.07s(wall), 573142.18s(cpu) 
 Sat Jun 23 23:37:45 2018

        *************************************************************
        *                                                           *
        *  Thank you very much for using Q-Chem.  Have a nice day.  *
        *                                                           *
        *************************************************************


