
Running Job 1 of 1 qc-freq2.in
qchem qc-freq2.in_24243.0 /scratch/leeping/1862670/qc-freq2.d/ 1
/home/leeping/opt/qchem/5.0.2-openmp/exe/qcprog.exe_s qc-freq2.in_24243.0 /scratch/leeping/1862670/qc-freq2.d/
Check license passed

                  Welcome to Q-Chem
     A Quantum Leap Into The Future Of Chemistry


 Q-Chem 5.0, Q-Chem, Inc., Pleasanton, CA (2017)

 Yihan Shao,  Zhengting Gan,  E. Epifanovsky,  A. T. B. Gilbert,  M. Wormit,  
 J. Kussmann,  A. W. Lange,  A. Behn,  Jia Deng,  Xintian Feng,  D. Ghosh,  
 M. Goldey,  P. R. Horn,  L. D. Jacobson,  I. Kaliman,  T. Kus,  A. Landau,  
 Jie Liu,  E. I. Proynov,  R. M. Richard,  R. P. Steele,  E. J. Sundstrom,  
 H. L. Woodcock III,  P. M. Zimmerman,  D. Zuev,  B. Albrecht,  E. Alguire,  
 S. A. Baeppler,  D. Barton,  Z. Benda,  Y. A. Bernard,  E. J. Berquist,  
 K. B. Bravaya,  H. Burton,  D. Casanova,  Chun-Min Chang,  Yunqing Chen,  
 A. Chien,  K. D. Closser,  M. P. Coons,  S. Dasgupta,  A. L. Dempwolff,  
 M. Diedenhofen,  Hainam Do,  R. G. Edgar,  Po-Tung Fang,  S. Fatehi,  
 Qingguo Feng,  J. Fosso-Tande,  Qinghui Ge,  A. Ghysels,  G. Gidofalvi,  
 J. Gomes,  J. Gonthier,  A. Gunina,  M. W. D. Hanson-Heine,  
 P. H. P. Harbach,  A. W. Hauser,  J. E. Herr,  E. G. Hohenstein,  
 Z. C. Holden,  Kerwin Hui,  T.-C. Jagau,  Hyunjun Ji,  B. Kaduk,  
 K. Khistyaev,  Jaehoon Kim,  P. Klunzinger,  K. Koh,  D. Kosenkov,  
 L. Koulias,  T. Kowalczyk,  C. M. Krauter,  A. Kunitsa,  Ka Un Lao,  
 A. Laurent,  K. V. Lawler,  Joonho Lee,  D. Lefrancois,  S. Lehtola,  
 D. S. Levine,  Yi-Pei Li,  You-Sheng Lin,  Fenglai Liu,  E. Livshits,  
 A. Luenser,  P. Manohar,  E. Mansoor,  S. F. Manzer,  Shan-Ping Mao,  
 Yuezhi Mao,  N. Mardirossian,  A. V. Marenich,  T. Markovich,  
 L. A. Martinez-Martinez,  S. A. Maurer,  N. J. Mayhall,  S. C. McKenzie,  
 J.-M. Mewes,  A. F. Morrison,  J. W. Mullinax,  K. Nanda,  
 T. S. Nguyen-Beck,  R. Olivares-Amaya,  J. A. Parkhill,  T. M. Perrine,  
 F. Plasser,  S. Prager,  A. Prociuk,  E. Ramos,  D. R. Rehn,  F. Rob,  
 M. Schneider,  N. Sergueev,  S. M. Sharada,  S. Sharma,  D. W. Small,  
 T. Stauch,  T. Stein,  Yu-Chuan Su,  A. J. W. Thom,  A. Tkatchenko,  
 T. Tsuchimochi,  L. Vogt,  O. Vydrov,  M. A. Watson,  J. Wenzel,  
 M. de Wergifosse,  T. A. Wesolowski,  A. White,  J. Witte,  A. Yamada,  
 Jun Yang,  K. Yao,  S. Yeganeh,  S. R. Yost,  Zhi-Qiang You,  A. Zech,  
 Igor Ying Zhang,  Xing Zhang,  Yan Zhao,  Ying Zhu,  B. R. Brooks,  
 G. K. L. Chan,  C. J. Cramer,  M. S. Gordon,  W. J. Hehre,  A. Klamt,  
 M. W. Schmidt,  C. D. Sherrill,  D. G. Truhlar,  A. Aspuru-Guzik,  R. Baer,  
 A. T. Bell,  N. A. Besley,  Jeng-Da Chai,  R. A. DiStasio Jr.,  A. Dreuw,  
 B. D. Dunietz,  T. R. Furlani,  Chao-Ping Hsu,  Yousung Jung,  Jing Kong,  
 D. S. Lambrecht,  WanZhen Liang,  C. Ochsenfeld,  V. A. Rassolov,  
 L. V. Slipchenko,  J. E. Subotnik,  T. Van Voorhis,  J. M. Herbert,  
 A. I. Krylov,  P. M. W. Gill,  M. Head-Gordon

 Contributors to earlier versions of Q-Chem not listed above: 
 R. D. Adamson,  B. Austin,  J. Baker,  G. J. O. Beran,  K. Brandhorst,  
 S. T. Brown,  E. F. C. Byrd,  A. K. Chakraborty,  C.-L. Cheng,  
 Siu Hung Chien,  D. M. Chipman,  D. L. Crittenden,  H. Dachsel,  
 R. J. Doerksen,  A. D. Dutoi,  L. Fusti-Molnar,  W. A. Goddard III,  
 A. Golubeva-Zadorozhnaya,  S. R. Gwaltney,  G. Hawkins,  A. Heyden,  
 S. Hirata,  G. Kedziora,  F. J. Keil,  C. Kelley,  Jihan Kim,  R. A. King,  
 R. Z. Khaliullin,  P. P. Korambath,  W. Kurlancheek,  A. M. Lee,  M. S. Lee,  
 S. V. Levchenko,  Ching Yeh Lin,  D. Liotard,  R. C. Lochan,  I. Lotan,  
 P. E. Maslen,  N. Nair,  D. P. O'Neill,  D. Neuhauser,  E. Neuscamman,  
 C. M. Oana,  R. Olson,  B. Peters,  R. Peverati,  P. A. Pieniazek,  
 Y. M. Rhee,  J. Ritchie,  M. A. Rohrdanz,  E. Rosta,  N. J. Russ,  
 H. F. Schaefer III,  N. E. Schultz,  N. Shenvi,  A. C. Simmonett,  A. Sodt,  
 D. Stuck,  K. S. Thanthiriwatte,  V. Vanovschi,  Tao Wang,  A. Warshel,  
 C. F. Williams,  Q. Wu,  X. Xu,  W. Zhang

 Please cite Q-Chem as follows:
 Y. Shao et al., Mol. Phys. 113, 184-215 (2015)
 DOI: 10.1080/00268976.2014.952696

 Q-Chem 5.0.2 for Intel X86 EM64T Linux

 Parts of Q-Chem use Armadillo 5.200.1 (Boston Tea Smuggler).
 http://arma.sourceforge.net/

 Q-Chem begins on Fri Mar 20 12:13:29 2020  

Host: 
0

     Scratch files written to /scratch/leeping/1862670/qc-freq2.d//
 Dec517 15110_ 26548  26544 5633   
Processing $rem in /home/leeping/opt/qchem/5.0.2-openmp/config/preferences.
 MEM_STATIC 2000
 MEM_TOTAL  8000
 SYMMETRY   OFF
 SYM_IGNORE TRUE 
Symmetry turned off for PCM/SM12/SMD calculation

Checking the input file for inconsistencies... 	...done.

--------------------------------------------------------------
User input:
--------------------------------------------------------------
$molecule
-2 1
C        1.2836670405    1.4242314854   -2.2990456193
O        0.8658385245    2.0574475026   -3.3083747615
O        2.4839566008    1.1037980152   -2.0949722887
C        0.2332275176    1.0635692173   -1.2385114939
H       -2.3137283706    0.1531037750    1.3526927440
H       -0.7072657195    0.8460624129   -1.7526878586
C        0.6095893544   -0.0722631477   -0.2998234484
H        0.7495686913   -1.0013535988   -0.8684841538
H        1.5718628313    0.1461339290    0.1760534161
C       -0.4060567244   -0.3283104495    0.8235947008
O       -1.5877193859   -0.9316100365    0.0690561985
H        0.0548856417    1.9731753468   -0.6520262280
O       -0.8359466653    0.7551060175    1.4801807836
O       -2.7384643076   -0.6308455132    0.8671183063
C        0.0949384267   -1.4393279024    1.7572018855
H       -0.7000622838   -1.7101896922    2.4586741678
H        0.3973420304   -2.3323174170    1.1998405687
H        0.9545651778   -1.0762719561    2.3302132488
$end

$rem
jobtype               freq
method                wb97x-v
basis                 def2-tzvpd
symmetry              off
sym_ignore            true
unrestricted          true
incdft                false
incfock               0
!scf_algorithm        diis_gdm
scf_convergence       8
thresh                14
!purecart             112
max_scf_cycles        1000
geom_opt_max_cycles   500
geom_opt_dmax         100
geom_opt_tol_gradient 10
solvent_method        pcm
ideriv                1
rpath_tol_displacement 1000
rpath_max_cycles      100
rpath_direction       1
scf_guess             read
$end

$pcm
theory              cosmo
method              iswig
Radii               bondi
vdwScale            1.20
hpoints             110
heavypoints         110
$end

$solvent
dielectric 78.400000
$end

--------------------------------------------------------------
 ----------------------------------------------------------------
             Standard Nuclear Orientation (Angstroms)
    I     Atom           X                Y                Z
 ----------------------------------------------------------------
    1      C       1.2836670405     1.4242314854    -2.2990456193
    2      O       0.8658385245     2.0574475026    -3.3083747615
    3      O       2.4839566008     1.1037980152    -2.0949722887
    4      C       0.2332275176     1.0635692173    -1.2385114939
    5      H      -2.3137283706     0.1531037750     1.3526927440
    6      H      -0.7072657195     0.8460624129    -1.7526878586
    7      C       0.6095893544    -0.0722631477    -0.2998234484
    8      H       0.7495686913    -1.0013535988    -0.8684841538
    9      H       1.5718628313     0.1461339290     0.1760534161
   10      C      -0.4060567244    -0.3283104495     0.8235947008
   11      O      -1.5877193859    -0.9316100365     0.0690561985
   12      H       0.0548856417     1.9731753468    -0.6520262280
   13      O      -0.8359466653     0.7551060175     1.4801807836
   14      O      -2.7384643076    -0.6308455132     0.8671183063
   15      C       0.0949384267    -1.4393279024     1.7572018855
   16      H      -0.7000622838    -1.7101896922     2.4586741678
   17      H       0.3973420304    -2.3323174170     1.1998405687
   18      H       0.9545651778    -1.0762719561     2.3302132488
 ----------------------------------------------------------------
 Nuclear Repulsion Energy =   547.3205809245 hartrees
 There are       40 alpha and       40 beta electrons
 Requested basis set is def2-TZVPD
 There are 175 shells and 457 basis functions

 Total QAlloc Memory Limit   8000 MB
 Mega-Array Size      1956 MB
 MEM_STATIC part      2000 MB
 Discretize the solute cavity surface with Lebedev spheres
	Using 110 Lebedev grid points for each H atom
	Using 110 Lebedev grid points for other atoms
	Atomic van der Waals radii will be scaled by 1.20
 Remove points where switching function is < 1.0e-08
 Keep 1060 surface tesserae and discard 920 interior tesserae
 Molecular Surface Area = 186.343 Angst**2
 A cutoff of  1.0D-14 yielded  14050 shell pairs
 There are     95774 function pairs (    121770 Cartesian)
 
 -------------------------------------------------------
 OpenMP Integral Computing Module                       
 Release: version 1.0, May 2013, Q-Chem Inc. Pittsburgh 
 -------------------------------------------------------
 Integral Job Info:
 Integral job number is                      11
 Integral operator is                         1
 short-range coefficients              16700000
 long-range coefficients              100000000
 Omega coefficients                         300
 if combine SR and LR in K                    1
 Integral screening is                        0
 Integral computing path is                   2
 max size of driver memory is            800000
 size of driver memory is                776718
 size of scratch memory is              4473992
 max col of scratch BK array              10000
 max len of scratch array in speh3          662
 max len of scratch index in speh4           32
 max int batch size is                      520
 min int batch size is                       52
 fixed nKL is                                52
 max L of basis functions is                  3
 order of int derivative is                   0
 number of shells is                        175
 number of basis is                         517
 number of cartesian basis is               517
 number of contracted shell pairs         14050
 number of primitive shell pairs          28583
 maxK2 (contraction) of shell pair           36
 max number of K2 of shell pair               1
 max number of CS2 of shell pair           2311
 max number of PS2 of shell pair           3216
 mem total for path MDJ                  777156
 -------------------------------------------------------
 Smallest overlap matrix eigenvalue = 2.73E-06
 Guess MOs from SCF MO coefficient file
 Reading MOs from coefficient file
 Reading MOs from coefficient file
 Long-range K will be added via erf
 Coulomb attenuation parameter = 0.3 bohr**(-1)
 An unrestricted hybrid HF-DFT SCF calculation will be
 performed using Pulay DIIS extrapolation
 Polarizable Continuum solvation model will be applied
 Exchange:     0.1670 Hartree-Fock + 1.0000 wB97X-V + LR-HF
 Correlation:  1.0000 wB97X-V
 Using SG-2 standard quadrature grid
 Nonlocal Correlation:  VV10 with C = 0.0100 and b = 6.00
 Grid used for NLC:  SG-1 standard quadrature
 SCF converges when DIIS error is below 1.0E-08
Using Q-Chem read-in guess as SCF_GUESS READ specified.

 using 16 threads for integral computing
 -------------------------------------------------------
 OpenMP Integral computing Module                
 Release: version 1.0, May 2013, Q-Chem Inc. Pittsburgh 
 -------------------------------------------------------
 using 16 threads for integral computing
 -------------------------------------------------------
 OpenMP Integral computing Module                
 Release: version 1.0, May 2013, Q-Chem Inc. Pittsburgh 
 -------------------------------------------------------
 -------------------------------------------------------
 OpenMP BLAS3 based DFT computing Module                
 Release: version 1.0, May 2013, Q-Chem Inc. Pittsburgh 
 -------------------------------------------------------
 -------------------------------------------------------
 OpenMP BLAS3 based DFT computing Module                
 Release: version 1.0, May 2013, Q-Chem Inc. Pittsburgh 
 -------------------------------------------------------
 -------------------------------------------------------
 OpenMP BLAS3 based DFT computing Module                
 Release: version 1.0, May 2013, Q-Chem Inc. Pittsburgh 
 -------------------------------------------------------
 ---------------------------------------
  Cycle       Energy         DIIS Error
 ---------------------------------------
    1    -571.4257407302      2.92E-04
    2    -571.7224766691      3.04E-04
    3    -571.7260185314      1.43E-04
    4    -571.7266030168      1.06E-04
    5    -571.7269677462      8.13E-05
    6    -571.7271690416      6.45E-05
    7    -571.7273080530      4.98E-05
    8    -571.7273856752      3.93E-05
    9    -571.7274462705      2.84E-05
   10    -571.7274719371      2.22E-05
   11    -571.7274898338      1.66E-05
   12    -571.7274987144      1.30E-05
   13    -571.7275046865      9.77E-06
   14    -571.7275079819      7.43E-06
   15    -571.7275095098      6.04E-06
   16    -571.7275107055      4.68E-06
   17    -571.7275124994      3.97E-09 Convergence criterion met
 ---------------------------------------

************** Final PCM Free Energy Summary **************
 G_electrostatic  =      -0.30177269 hartree =    -189.36522122 kcal/mol
 G_cavitation     =       0.00000000 hartree =       0.00000000 kcal/mol
 G_dispersion     =       0.00000000 hartree =       0.00000000 kcal/mol
 G_repulsion      =       0.00000000 hartree =       0.00000000 kcal/mol
 --------------------------------------------------
 Non-electrostatic Free Energy =       0.00000000 hartree =       0.00000000 kcal/mol
 Total                         =      -0.30177269 hartree =    -189.36522122 kcal/mol
 --------------------------------------------------
 SCF Energy (H0 + V/2)                       =    -571.72751250 
 Solute Internal Energy (H0)                 =    -571.42573981 
 Total Free Energy (H0 + V/2 + non-elec)     =    -571.72751250 hartree
                                             = -358764.42892464 kcal/mol
***********************************************************

 <S^2> = 0.0000
 SCF time:  CPU 4850.97 s  wall 340.31 s
 SCF   energy in the final basis set = -571.72751250
 Total energy in the final basis set = -571.72751250
 
 --------------------------------------------------------------
 
                    Orbital Energies (a.u.)
 --------------------------------------------------------------
 
 Alpha MOs
 -- Occupied --
-19.222 -19.220 -19.137 -19.135 -19.114 -10.337 -10.328 -10.239
-10.237 -10.232  -1.215  -1.139  -1.060  -1.044  -0.965  -0.878
 -0.829  -0.750  -0.653  -0.601  -0.596  -0.556  -0.549  -0.532
 -0.522  -0.510  -0.493  -0.488  -0.480  -0.454  -0.437  -0.427
 -0.423  -0.405  -0.345  -0.339  -0.331  -0.328  -0.325  -0.296
 -- Virtual --
  0.060   0.072   0.081   0.088   0.095   0.102   0.110   0.122
  0.126   0.130   0.137   0.145   0.149   0.156   0.165   0.172
  0.176   0.182   0.185   0.188   0.195   0.215   0.216   0.221
  0.231   0.234   0.243   0.252   0.259   0.269   0.270   0.276
  0.281   0.289   0.292   0.304   0.305   0.309   0.312   0.325
  0.335   0.337   0.348   0.350   0.359   0.365   0.370   0.374
  0.381   0.385   0.388   0.391   0.396   0.403   0.404   0.410
  0.414   0.424   0.428   0.429   0.435   0.448   0.452   0.459
  0.463   0.469   0.475   0.479   0.485   0.493   0.496   0.497
  0.508   0.513   0.516   0.526   0.537   0.541   0.544   0.551
  0.555   0.561   0.566   0.575   0.578   0.590   0.593   0.597
  0.603   0.610   0.625   0.630   0.637   0.642   0.647   0.654
  0.660   0.666   0.680   0.683   0.696   0.704   0.705   0.714
  0.718   0.726   0.732   0.742   0.746   0.762   0.771   0.778
  0.778   0.789   0.795   0.796   0.802   0.806   0.814   0.818
  0.824   0.836   0.844   0.848   0.849   0.857   0.867   0.872
  0.883   0.893   0.898   0.899   0.907   0.918   0.926   0.940
  0.945   0.953   0.960   0.979   0.990   1.009   1.024   1.046
  1.051   1.058   1.063   1.073   1.089   1.096   1.109   1.112
  1.136   1.148   1.154   1.175   1.189   1.202   1.215   1.220
  1.225   1.242   1.253   1.261   1.266   1.285   1.304   1.334
  1.338   1.350   1.377   1.385   1.394   1.415   1.445   1.462
  1.464   1.468   1.486   1.518   1.532   1.568   1.576   1.596
  1.602   1.635   1.650   1.673   1.708   1.738   1.758   1.811
  1.829   1.842   1.870   1.906   1.918   1.945   1.948   1.957
  1.966   1.983   1.991   2.004   2.014   2.023   2.038   2.045
  2.050   2.066   2.076   2.088   2.124   2.133   2.169   2.179
  2.191   2.217   2.225   2.245   2.277   2.282   2.289   2.306
  2.318   2.319   2.343   2.380   2.400   2.422   2.435   2.458
  2.470   2.474   2.485   2.493   2.503   2.529   2.554   2.607
  2.612   2.625   2.657   2.666   2.693   2.696   2.725   2.733
  2.757   2.785   2.793   2.813   2.857   2.879   2.884   2.912
  2.931   2.955   2.967   2.974   2.997   3.004   3.032   3.040
  3.056   3.085   3.092   3.103   3.125   3.170   3.188   3.206
  3.232   3.245   3.269   3.288   3.309   3.325   3.335   3.358
  3.387   3.421   3.425   3.449   3.468   3.480   3.485   3.495
  3.517   3.534   3.548   3.568   3.579   3.593   3.596   3.611
  3.623   3.646   3.655   3.684   3.691   3.701   3.715   3.728
  3.746   3.762   3.773   3.795   3.800   3.813   3.834   3.857
  3.866   3.880   3.946   3.960   3.981   4.062   4.083   4.100
  4.124   4.152   4.171   4.242   4.256   4.301   4.325   4.386
  4.442   4.472   4.511   4.576   4.600   4.653   4.728   4.776
  4.785   4.803   4.832   4.855   4.863   4.907   4.959   5.012
  5.052   5.092   5.136   5.209   5.235   5.310   5.322   5.333
  5.365   5.371   5.381   5.403   5.428   5.505   5.525   5.564
  5.614   5.645   5.709   5.721   5.726   5.772   5.788   5.831
  6.003   6.015   6.047   6.104   6.226   6.241   6.256   6.306
  6.340   6.374   6.404   6.607   6.617   6.640   6.674   6.697
  6.706   6.760   6.775   6.793   6.832   6.917   6.962   6.976
  7.003   7.060   7.070   7.171   7.192   7.247   7.253   7.306
  7.366   7.387   7.410   7.418   7.528   7.609   8.334  22.731
 22.902  22.960  23.127  23.732  44.213  44.311  44.416  44.597
 44.721
 
 Beta MOs
 -- Occupied --
-19.222 -19.220 -19.137 -19.135 -19.114 -10.337 -10.328 -10.239
-10.237 -10.232  -1.215  -1.139  -1.060  -1.044  -0.965  -0.878
 -0.829  -0.750  -0.653  -0.601  -0.596  -0.556  -0.549  -0.532
 -0.522  -0.510  -0.493  -0.488  -0.480  -0.454  -0.437  -0.427
 -0.423  -0.405  -0.345  -0.339  -0.331  -0.328  -0.325  -0.296
 -- Virtual --
  0.060   0.072   0.081   0.088   0.095   0.102   0.110   0.122
  0.126   0.130   0.137   0.145   0.149   0.156   0.165   0.172
  0.176   0.182   0.185   0.188   0.195   0.215   0.216   0.221
  0.231   0.234   0.243   0.252   0.259   0.269   0.270   0.276
  0.281   0.289   0.292   0.304   0.305   0.309   0.312   0.325
  0.335   0.337   0.348   0.350   0.359   0.365   0.370   0.374
  0.381   0.385   0.388   0.391   0.396   0.403   0.404   0.410
  0.414   0.424   0.428   0.429   0.435   0.448   0.452   0.459
  0.463   0.469   0.475   0.479   0.485   0.493   0.496   0.497
  0.508   0.513   0.516   0.526   0.537   0.541   0.544   0.551
  0.555   0.561   0.566   0.575   0.578   0.590   0.593   0.597
  0.603   0.610   0.625   0.630   0.637   0.642   0.647   0.654
  0.660   0.666   0.680   0.683   0.696   0.704   0.705   0.714
  0.718   0.726   0.732   0.742   0.746   0.762   0.771   0.778
  0.778   0.789   0.795   0.796   0.802   0.806   0.814   0.818
  0.824   0.836   0.844   0.848   0.849   0.857   0.867   0.872
  0.883   0.893   0.898   0.899   0.907   0.918   0.926   0.940
  0.945   0.953   0.960   0.979   0.990   1.009   1.024   1.046
  1.051   1.058   1.063   1.073   1.089   1.096   1.109   1.112
  1.136   1.148   1.154   1.175   1.189   1.202   1.215   1.220
  1.225   1.242   1.253   1.261   1.266   1.285   1.304   1.334
  1.338   1.350   1.377   1.385   1.394   1.415   1.445   1.462
  1.464   1.468   1.486   1.518   1.532   1.568   1.576   1.596
  1.602   1.635   1.650   1.673   1.708   1.738   1.758   1.811
  1.829   1.842   1.870   1.906   1.918   1.945   1.948   1.957
  1.966   1.983   1.991   2.004   2.014   2.023   2.038   2.045
  2.050   2.066   2.076   2.088   2.124   2.133   2.169   2.179
  2.191   2.217   2.225   2.245   2.277   2.282   2.289   2.306
  2.318   2.319   2.343   2.380   2.400   2.422   2.435   2.458
  2.470   2.474   2.485   2.493   2.503   2.529   2.554   2.607
  2.612   2.625   2.657   2.666   2.693   2.696   2.725   2.733
  2.757   2.785   2.793   2.813   2.857   2.879   2.884   2.912
  2.931   2.955   2.967   2.974   2.997   3.004   3.032   3.040
  3.056   3.085   3.092   3.103   3.125   3.170   3.188   3.206
  3.232   3.245   3.269   3.288   3.309   3.325   3.335   3.358
  3.387   3.421   3.425   3.449   3.468   3.480   3.485   3.495
  3.517   3.534   3.548   3.568   3.579   3.593   3.596   3.611
  3.623   3.646   3.655   3.684   3.691   3.701   3.715   3.728
  3.746   3.762   3.773   3.795   3.800   3.813   3.834   3.857
  3.866   3.880   3.946   3.960   3.981   4.062   4.083   4.100
  4.124   4.152   4.171   4.242   4.256   4.301   4.325   4.386
  4.442   4.472   4.511   4.576   4.600   4.653   4.728   4.776
  4.785   4.803   4.832   4.855   4.863   4.907   4.959   5.012
  5.052   5.092   5.136   5.209   5.235   5.310   5.322   5.333
  5.365   5.371   5.381   5.403   5.428   5.505   5.525   5.564
  5.614   5.645   5.709   5.721   5.726   5.772   5.788   5.831
  6.003   6.015   6.047   6.104   6.226   6.241   6.256   6.306
  6.340   6.374   6.404   6.607   6.617   6.640   6.674   6.697
  6.706   6.760   6.775   6.793   6.832   6.917   6.962   6.976
  7.003   7.060   7.070   7.171   7.192   7.247   7.253   7.306
  7.366   7.387   7.410   7.418   7.528   7.609   8.334  22.731
 22.902  22.960  23.127  23.732  44.213  44.311  44.416  44.597
 44.721
 --------------------------------------------------------------
 
          Ground-State Mulliken Net Atomic Charges

     Atom                 Charge (a.u.)    Spin (a.u.)
  --------------------------------------------------------
      1 C                    -0.000660       0.000000
      2 O                    -0.715997      -0.000000
      3 O                    -0.697614      -0.000000
      4 C                    -0.230239      -0.000000
      5 H                     0.371602      -0.000000
      6 H                     0.199999      -0.000000
      7 C                    -0.501106       0.000000
      8 H                     0.255785      -0.000000
      9 H                     0.178243      -0.000000
     10 C                     1.272920      -0.000000
     11 O                    -0.328196      -0.000000
     12 H                     0.208913       0.000000
     13 O                    -0.983725      -0.000000
     14 O                    -0.443680      -0.000000
     15 C                    -1.310366      -0.000000
     16 H                     0.237005       0.000000
     17 H                     0.229437      -0.000000
     18 H                     0.257680       0.000000
  --------------------------------------------------------
  Sum of atomic charges =    -2.000000
  Sum of spin   charges =     0.000000

 -----------------------------------------------------------------
                    Cartesian Multipole Moments
 -----------------------------------------------------------------
    Charge (ESU x 10^10)
                -9.6064
    Dipole Moment (Debye)
         X      -1.3303      Y      -8.4402      Z       9.7789
       Tot      12.9859
    Quadrupole Moments (Debye-Ang)
        XX    -103.4380     XY     -16.4500     YY     -85.8497
        XZ      27.9613     YZ      23.9992     ZZ    -118.2508
    Octopole Moments (Debye-Ang^2)
       XXX     -18.6845    XXY     -29.1642    XYY     -10.7169
       YYY     -82.3961    XXZ      68.5452    XYZ      34.1685
       YYZ      69.8893    XZZ     -57.5342    YZZ    -112.4868
       ZZZ     203.8148
    Hexadecapole Moments (Debye-Ang^3)
      XXXX   -1130.0447   XXXY    -270.2857   XXYY    -294.3697
      XYYY    -197.0833   YYYY    -674.6689   XXXZ     439.3841
      XXYZ     182.1318   XYYZ     158.2286   YYYZ     427.7388
      XXZZ    -475.4348   XYZZ    -154.4280   YYZZ    -500.3312
      XZZZ     477.6180   YZZZ     607.8101   ZZZZ   -1757.9839
 -----------------------------------------------------------------
 Calculating analytic gradient of the SCF energy
 Gradient of SCF Energy
            1           2           3           4           5           6
    1   0.0475033   0.0115694  -0.0604061  -0.1072657  -0.0220879   0.0504337
    2   0.0111463  -0.0276533   0.0162089   0.0295525  -0.0326902   0.0131466
    3  -0.0228502   0.0501278  -0.0043959   0.0224907  -0.0236737   0.0315739
            7           8           9          10          11          12
    1   0.0672272   0.0004681  -0.0498160   0.0280917   0.0310086   0.0106310
    2  -0.0227987   0.0431871  -0.0304603   0.0020830   0.0084264  -0.0464545
    3  -0.0379689   0.0373528  -0.0418651  -0.0281567  -0.0184314  -0.0333738
           13          14          15          16          17          18
    1   0.0070461  -0.0146448   0.0218350   0.0564241  -0.0183604  -0.0596574
    2   0.0130667   0.0450664  -0.0661460   0.0223043   0.0560805  -0.0340658
    3   0.0031815   0.0396687   0.0694325  -0.0474262   0.0435109  -0.0391968
 Max gradient component =       1.073E-01
 RMS gradient           =       3.885E-02
 Computing fast CPCM-ISWIG gradient
 Updating gradient with PCM contributions...
 -- total gradient after adding PCM contribution --
---------------------------------------------------
  Atom         X              Y              Z     
---------------------------------------------------
   1       0.000012       0.000001       0.000047
   2      -0.000018       0.000019      -0.000009
   3      -0.000003      -0.000022      -0.000013
   4       0.000012      -0.000008      -0.000060
   5       0.000007       0.000014      -0.000003
   6       0.000003      -0.000015       0.000017
   7      -0.000015       0.000016      -0.000001
   8       0.000007      -0.000006       0.000014
   9      -0.000003       0.000003       0.000012
  10       0.000108       0.000002       0.000051
  11      -0.000059      -0.000025      -0.000065
  12      -0.000001       0.000004      -0.000005
  13      -0.000027       0.000005       0.000014
  14       0.000003      -0.000015       0.000014
  15      -0.000050       0.000010      -0.000033
  16       0.000010       0.000017       0.000013
  17       0.000006       0.000000       0.000008
  18       0.000008       0.000002      -0.000001
---------------------------------------------------
 Number of fixed atoms: 0
 Gradient time:  CPU 921.32 s  wall 65.88 s
 ######################################################
 ######################################################
 # Starting finite difference calculation for IDERIV  #
 Finite diff step size:  1.88973e-03 a.u.
 ----------------------------------------------------------------
             Standard Nuclear Orientation (Angstroms)
    I     Atom           X                Y                Z
 ----------------------------------------------------------------
    1      C       1.2846670405     1.4242314854    -2.2990456193
    2      O       0.8658385245     2.0574475026    -3.3083747615
    3      O       2.4839566008     1.1037980152    -2.0949722887
    4      C       0.2332275176     1.0635692173    -1.2385114939
    5      H      -2.3137283706     0.1531037750     1.3526927440
    6      H      -0.7072657195     0.8460624129    -1.7526878586
    7      C       0.6095893544    -0.0722631477    -0.2998234484
    8      H       0.7495686913    -1.0013535988    -0.8684841538
    9      H       1.5718628313     0.1461339290     0.1760534161
   10      C      -0.4060567244    -0.3283104495     0.8235947008
   11      O      -1.5877193859    -0.9316100365     0.0690561985
   12      H       0.0548856417     1.9731753468    -0.6520262280
   13      O      -0.8359466653     0.7551060175     1.4801807836
   14      O      -2.7384643076    -0.6308455132     0.8671183063
   15      C       0.0949384267    -1.4393279024     1.7572018855
   16      H      -0.7000622838    -1.7101896922     2.4586741678
   17      H       0.3973420304    -2.3323174170     1.1998405687
   18      H       0.9545651778    -1.0762719561     2.3302132488
 ----------------------------------------------------------------
 Nuclear Repulsion Energy =   547.3203265474 hartrees
 There are       40 alpha and       40 beta electrons
 Discretize the solute cavity surface with Lebedev spheres
	Using 110 Lebedev grid points for each H atom
	Using 110 Lebedev grid points for other atoms
	Atomic van der Waals radii will be scaled by 1.20
 Remove points where switching function is < 1.0e-08
 Keep 1060 surface tesserae and discard 920 interior tesserae
 Molecular Surface Area = 186.340 Angst**2
 Requested basis set is def2-TZVPD
 There are 175 shells and 457 basis functions
 A cutoff of  1.0D-14 yielded  14050 shell pairs
 There are     95774 function pairs (    121770 Cartesian)
 Smallest overlap matrix eigenvalue = 2.73E-06
 Guess MOs from SCF MO coefficient file
 Reading MOs from coefficient file
 Reading MOs from coefficient file
 Long-range K will be added via erf
 Coulomb attenuation parameter = 0.3 bohr**(-1)
 An unrestricted hybrid HF-DFT SCF calculation will be
 performed using Pulay DIIS extrapolation
 Polarizable Continuum solvation model will be applied
 Exchange:     0.1670 Hartree-Fock + 1.0000 wB97X-V + LR-HF
 Correlation:  1.0000 wB97X-V
 Using SG-2 standard quadrature grid
 Nonlocal Correlation:  VV10 with C = 0.0100 and b = 6.00
 Grid used for NLC:  SG-1 standard quadrature
 SCF converges when DIIS error is below 1.0E-08
Using Q-Chem read-in guess as SCF_GUESS READ specified.

 using 16 threads for integral computing
 -------------------------------------------------------
 OpenMP Integral computing Module                
 Release: version 1.0, May 2013, Q-Chem Inc. Pittsburgh 
 -------------------------------------------------------
 using 16 threads for integral computing
 -------------------------------------------------------
 OpenMP Integral computing Module                
 Release: version 1.0, May 2013, Q-Chem Inc. Pittsburgh 
 -------------------------------------------------------
 -------------------------------------------------------
 OpenMP BLAS3 based DFT computing Module                
 Release: version 1.0, May 2013, Q-Chem Inc. Pittsburgh 
 -------------------------------------------------------
 -------------------------------------------------------
 OpenMP BLAS3 based DFT computing Module                
 Release: version 1.0, May 2013, Q-Chem Inc. Pittsburgh 
 -------------------------------------------------------
 -------------------------------------------------------
 OpenMP BLAS3 based DFT computing Module                
 Release: version 1.0, May 2013, Q-Chem Inc. Pittsburgh 
 -------------------------------------------------------
 ---------------------------------------
  Cycle       Energy         DIIS Error
 ---------------------------------------
    1    -571.4262997556      2.92E-04
    2    -571.7224719980      3.04E-04
    3    -571.7260194917      1.43E-04
    4    -571.7266059033      1.06E-04
    5    -571.7269793563      8.03E-05
    6    -571.7272041155      6.10E-05
    7    -571.7273882045      3.86E-05
    8    -571.7274740088      2.13E-05
    9    -571.7275076335      6.62E-06
   10    -571.7275109509      1.78E-06
   11    -571.7275111949      2.81E-07
   12    -571.7275112005      6.73E-08
   13    -571.7275112008      8.84E-09 Convergence criterion met
 ---------------------------------------

************** Final PCM Free Energy Summary **************
 G_electrostatic  =      -0.30175732 hartree =    -189.35557762 kcal/mol
 G_cavitation     =       0.00000000 hartree =       0.00000000 kcal/mol
 G_dispersion     =       0.00000000 hartree =       0.00000000 kcal/mol
 G_repulsion      =       0.00000000 hartree =       0.00000000 kcal/mol
 --------------------------------------------------
 Non-electrostatic Free Energy =       0.00000000 hartree =       0.00000000 kcal/mol
 Total                         =      -0.30175732 hartree =    -189.35557762 kcal/mol
 --------------------------------------------------
 SCF Energy (H0 + V/2)                       =    -571.72751120 
 Solute Internal Energy (H0)                 =    -571.42575388 
 Total Free Energy (H0 + V/2 + non-elec)     =    -571.72751120 hartree
                                             = -358764.42810975 kcal/mol
***********************************************************

 <S^2> = 0.0000
 SCF time:  CPU 3713.52 s  wall 260.74 s
 SCF   energy in the final basis set = -571.72751120
 Total energy in the final basis set = -571.72751120
 
 --------------------------------------------------------------
 
                    Orbital Energies (a.u.)
 --------------------------------------------------------------
 
 Alpha MOs
 -- Occupied --
-19.222 -19.220 -19.137 -19.135 -19.114 -10.337 -10.328 -10.239
-10.237 -10.232  -1.215  -1.140  -1.060  -1.045  -0.965  -0.878
 -0.829  -0.750  -0.653  -0.601  -0.596  -0.556  -0.549  -0.532
 -0.522  -0.510  -0.493  -0.488  -0.480  -0.454  -0.437  -0.427
 -0.423  -0.405  -0.345  -0.339  -0.331  -0.328  -0.325  -0.296
 -- Virtual --
  0.060   0.072   0.081   0.088   0.095   0.102   0.110   0.122
  0.126   0.130   0.137   0.145   0.149   0.156   0.165   0.172
  0.176   0.182   0.185   0.188   0.195   0.215   0.216   0.221
  0.231   0.234   0.243   0.252   0.258   0.269   0.270   0.276
  0.281   0.289   0.292   0.304   0.305   0.309   0.312   0.325
  0.335   0.337   0.348   0.350   0.359   0.365   0.370   0.374
  0.381   0.385   0.388   0.391   0.396   0.403   0.404   0.410
  0.414   0.424   0.428   0.429   0.435   0.448   0.452   0.459
  0.463   0.469   0.475   0.479   0.485   0.493   0.496   0.497
  0.508   0.513   0.516   0.526   0.537   0.541   0.544   0.551
  0.555   0.561   0.566   0.575   0.579   0.589   0.593   0.597
  0.603   0.610   0.625   0.630   0.637   0.642   0.647   0.654
  0.660   0.666   0.680   0.683   0.696   0.704   0.705   0.714
  0.718   0.726   0.732   0.742   0.746   0.762   0.771   0.778
  0.778   0.789   0.795   0.796   0.802   0.806   0.814   0.818
  0.825   0.836   0.844   0.848   0.849   0.857   0.867   0.872
  0.883   0.893   0.898   0.899   0.907   0.918   0.926   0.940
  0.945   0.953   0.960   0.979   0.990   1.009   1.024   1.046
  1.051   1.057   1.063   1.073   1.089   1.096   1.109   1.111
  1.136   1.148   1.154   1.175   1.189   1.202   1.215   1.220
  1.225   1.242   1.253   1.261   1.266   1.285   1.304   1.334
  1.338   1.350   1.377   1.385   1.394   1.415   1.445   1.462
  1.464   1.468   1.486   1.518   1.532   1.567   1.576   1.596
  1.602   1.635   1.650   1.673   1.708   1.738   1.758   1.811
  1.829   1.842   1.870   1.906   1.918   1.945   1.948   1.957
  1.966   1.983   1.991   2.004   2.014   2.023   2.038   2.045
  2.050   2.066   2.076   2.088   2.124   2.133   2.168   2.178
  2.191   2.217   2.225   2.245   2.277   2.282   2.289   2.306
  2.318   2.319   2.343   2.380   2.400   2.422   2.435   2.458
  2.470   2.474   2.484   2.493   2.503   2.529   2.554   2.607
  2.612   2.625   2.657   2.666   2.693   2.696   2.725   2.733
  2.757   2.784   2.793   2.813   2.857   2.879   2.884   2.912
  2.931   2.955   2.967   2.974   2.997   3.004   3.032   3.040
  3.056   3.085   3.092   3.103   3.125   3.170   3.188   3.206
  3.232   3.245   3.269   3.288   3.309   3.324   3.335   3.358
  3.387   3.421   3.425   3.449   3.468   3.480   3.485   3.495
  3.517   3.534   3.548   3.568   3.579   3.593   3.595   3.611
  3.623   3.647   3.655   3.684   3.691   3.701   3.715   3.728
  3.746   3.762   3.773   3.796   3.800   3.813   3.834   3.857
  3.866   3.880   3.946   3.960   3.981   4.062   4.082   4.100
  4.124   4.152   4.171   4.242   4.256   4.301   4.325   4.386
  4.442   4.472   4.511   4.576   4.600   4.653   4.727   4.776
  4.785   4.803   4.832   4.854   4.863   4.907   4.959   5.011
  5.052   5.092   5.136   5.209   5.235   5.310   5.322   5.333
  5.366   5.371   5.381   5.403   5.428   5.505   5.525   5.564
  5.614   5.645   5.709   5.721   5.727   5.772   5.788   5.831
  6.004   6.015   6.047   6.104   6.226   6.242   6.256   6.307
  6.340   6.374   6.404   6.607   6.618   6.640   6.674   6.697
  6.706   6.760   6.774   6.793   6.832   6.917   6.962   6.976
  7.003   7.060   7.070   7.171   7.192   7.247   7.253   7.306
  7.366   7.388   7.411   7.418   7.528   7.609   8.334  22.731
 22.901  22.960  23.127  23.733  44.213  44.311  44.416  44.597
 44.721
 
 Beta MOs
 -- Occupied --
-19.222 -19.220 -19.137 -19.135 -19.114 -10.337 -10.328 -10.239
-10.237 -10.232  -1.215  -1.140  -1.060  -1.045  -0.965  -0.878
 -0.829  -0.750  -0.653  -0.601  -0.596  -0.556  -0.549  -0.532
 -0.522  -0.510  -0.493  -0.488  -0.480  -0.454  -0.437  -0.427
 -0.423  -0.405  -0.345  -0.339  -0.331  -0.328  -0.325  -0.296
 -- Virtual --
  0.060   0.072   0.081   0.088   0.095   0.102   0.110   0.122
  0.126   0.130   0.137   0.145   0.149   0.156   0.165   0.172
  0.176   0.182   0.185   0.188   0.195   0.215   0.216   0.221
  0.231   0.234   0.243   0.252   0.258   0.269   0.270   0.276
  0.281   0.289   0.292   0.304   0.305   0.309   0.312   0.325
  0.335   0.337   0.348   0.350   0.359   0.365   0.370   0.374
  0.381   0.385   0.388   0.391   0.396   0.403   0.404   0.410
  0.414   0.424   0.428   0.429   0.435   0.448   0.452   0.459
  0.463   0.469   0.475   0.479   0.485   0.493   0.496   0.497
  0.508   0.513   0.516   0.526   0.537   0.541   0.544   0.551
  0.555   0.561   0.566   0.575   0.579   0.589   0.593   0.597
  0.603   0.610   0.625   0.630   0.637   0.642   0.647   0.654
  0.660   0.666   0.680   0.683   0.696   0.704   0.705   0.714
  0.718   0.726   0.732   0.742   0.746   0.762   0.771   0.778
  0.778   0.789   0.795   0.796   0.802   0.806   0.814   0.818
  0.825   0.836   0.844   0.848   0.849   0.857   0.867   0.872
  0.883   0.893   0.898   0.899   0.907   0.918   0.926   0.940
  0.945   0.953   0.960   0.979   0.990   1.009   1.024   1.046
  1.051   1.057   1.063   1.073   1.089   1.096   1.109   1.111
  1.136   1.148   1.154   1.175   1.189   1.202   1.215   1.220
  1.225   1.242   1.253   1.261   1.266   1.285   1.304   1.334
  1.338   1.350   1.377   1.385   1.394   1.415   1.445   1.462
  1.464   1.468   1.486   1.518   1.532   1.567   1.576   1.596
  1.602   1.635   1.650   1.673   1.708   1.738   1.758   1.811
  1.829   1.842   1.870   1.906   1.918   1.945   1.948   1.957
  1.966   1.983   1.991   2.004   2.014   2.023   2.038   2.045
  2.050   2.066   2.076   2.088   2.124   2.133   2.168   2.178
  2.191   2.217   2.225   2.245   2.277   2.282   2.289   2.306
  2.318   2.319   2.343   2.380   2.400   2.422   2.435   2.458
  2.470   2.474   2.484   2.493   2.503   2.529   2.554   2.607
  2.612   2.625   2.657   2.666   2.693   2.696   2.725   2.733
  2.757   2.784   2.793   2.813   2.857   2.879   2.884   2.912
  2.931   2.955   2.967   2.974   2.997   3.004   3.032   3.040
  3.056   3.085   3.092   3.103   3.125   3.170   3.188   3.206
  3.232   3.245   3.269   3.288   3.309   3.324   3.335   3.358
  3.387   3.421   3.425   3.449   3.468   3.480   3.485   3.495
  3.517   3.534   3.548   3.568   3.579   3.593   3.595   3.611
  3.623   3.647   3.655   3.684   3.691   3.701   3.715   3.728
  3.746   3.762   3.773   3.796   3.800   3.813   3.834   3.857
  3.866   3.880   3.946   3.960   3.981   4.062   4.082   4.100
  4.124   4.152   4.171   4.242   4.256   4.301   4.325   4.386
  4.442   4.472   4.511   4.576   4.600   4.653   4.727   4.776
  4.785   4.803   4.832   4.854   4.863   4.907   4.959   5.011
  5.052   5.092   5.136   5.209   5.235   5.310   5.322   5.333
  5.366   5.371   5.381   5.403   5.428   5.505   5.525   5.564
  5.614   5.645   5.709   5.721   5.727   5.772   5.788   5.831
  6.004   6.015   6.047   6.104   6.226   6.242   6.256   6.307
  6.340   6.374   6.404   6.607   6.618   6.640   6.674   6.697
  6.706   6.760   6.774   6.793   6.832   6.917   6.962   6.976
  7.003   7.060   7.070   7.171   7.192   7.247   7.253   7.306
  7.366   7.388   7.411   7.418   7.528   7.609   8.334  22.731
 22.901  22.960  23.127  23.733  44.213  44.311  44.416  44.597
 44.721
 --------------------------------------------------------------
 
          Ground-State Mulliken Net Atomic Charges

     Atom                 Charge (a.u.)    Spin (a.u.)
  --------------------------------------------------------
      1 C                     0.000246       0.000000
      2 O                    -0.716532      -0.000000
      3 O                    -0.696614      -0.000000
      4 C                    -0.231430      -0.000000
      5 H                     0.371605      -0.000000
      6 H                     0.200072      -0.000000
      7 C                    -0.501122       0.000000
      8 H                     0.255783      -0.000000
      9 H                     0.178285      -0.000000
     10 C                     1.272734      -0.000000
     11 O                    -0.328191      -0.000000
     12 H                     0.208797       0.000000
     13 O                    -0.983720      -0.000000
     14 O                    -0.443687      -0.000000
     15 C                    -1.310324       0.000000
     16 H                     0.236997      -0.000000
     17 H                     0.229430      -0.000000
     18 H                     0.257672      -0.000000
  --------------------------------------------------------
  Sum of atomic charges =    -2.000000
  Sum of spin   charges =     0.000000

 -----------------------------------------------------------------
                    Cartesian Multipole Moments
 -----------------------------------------------------------------
    Charge (ESU x 10^10)
                -9.6064
    Dipole Moment (Debye)
         X      -1.3187      Y      -8.4430      Z       9.7805
       Tot      12.9878
    Quadrupole Moments (Debye-Ang)
        XX    -103.4031     XY     -16.4398     YY     -85.8610
        XZ      27.9410     YZ      24.0131     ZZ    -118.2691
    Octopole Moments (Debye-Ang^2)
       XXX     -18.5864    XXY     -29.1264    XYY     -10.7070
       YYY     -82.4307    XXZ      68.4740    XYZ      34.1581
       YYZ      69.9281    XZZ     -57.5016    YZZ    -112.5458
       ZZZ     203.9022
    Hexadecapole Moments (Debye-Ang^3)
      XXXX   -1129.7807   XXXY    -270.1847   XXYY    -294.3194
      XYYY    -197.0918   YYYY    -674.7990   XXXZ     439.1959
      XXYZ     182.0719   XYYZ     158.2394   YYYZ     427.8704
      XXZZ    -475.2967   XYZZ    -154.4452   YYZZ    -500.4999
      XZZZ     477.6082   YZZZ     608.0707   ZZZZ   -1758.4355
 -----------------------------------------------------------------
 Calculating analytic gradient of the SCF energy
 Gradient of SCF Energy
            1           2           3           4           5           6
    1   0.0487942   0.0114210  -0.0613703  -0.1074618  -0.0220907   0.0504223
    2   0.0107839  -0.0275224   0.0164459   0.0296174  -0.0326948   0.0131369
    3  -0.0226601   0.0499233  -0.0045113   0.0225488  -0.0236728   0.0316246
            7           8           9          10          11          12
    1   0.0672223   0.0004587  -0.0498014   0.0281197   0.0310108   0.0106396
    2  -0.0228666   0.0431956  -0.0304521   0.0021155   0.0084277  -0.0464913
    3  -0.0379146   0.0373508  -0.0418918  -0.0281517  -0.0184315  -0.0333792
           13          14          15          16          17          18
    1   0.0070447  -0.0146460   0.0218283   0.0564268  -0.0183605  -0.0596576
    2   0.0130655   0.0450718  -0.0661554   0.0223067   0.0560817  -0.0340662
    3   0.0031759   0.0396722   0.0694325  -0.0474285   0.0435106  -0.0391973
 Max gradient component =       1.075E-01
 RMS gradient           =       3.891E-02
 Computing fast CPCM-ISWIG gradient
 Updating gradient with PCM contributions...
 -- total gradient after adding PCM contribution --
---------------------------------------------------
  Atom         X              Y              Z     
---------------------------------------------------
   1       0.001364      -0.000205       0.000139
   2      -0.000250       0.000086      -0.000112
   3      -0.000871       0.000149      -0.000094
   4      -0.000214      -0.000041       0.000016
   5       0.000006       0.000014      -0.000003
   6      -0.000033      -0.000019       0.000051
   7       0.000012       0.000005      -0.000007
   8       0.000007      -0.000002       0.000015
   9      -0.000008       0.000002       0.000008
  10       0.000098       0.000009       0.000048
  11      -0.000059      -0.000024      -0.000065
  12      -0.000008       0.000003      -0.000004
  13      -0.000024       0.000006       0.000011
  14       0.000004      -0.000014       0.000014
  15      -0.000046       0.000010      -0.000035
  16       0.000010       0.000019       0.000011
  17       0.000005       0.000001       0.000008
  18       0.000007       0.000001      -0.000001
---------------------------------------------------
 Number of fixed atoms: 0
 Gradient time:  CPU 929.10 s  wall 66.31 s
 ----------------------------------------------------------------
             Standard Nuclear Orientation (Angstroms)
    I     Atom           X                Y                Z
 ----------------------------------------------------------------
    1      C       1.2826670405     1.4242314854    -2.2990456193
    2      O       0.8658385245     2.0574475026    -3.3083747615
    3      O       2.4839566008     1.1037980152    -2.0949722887
    4      C       0.2332275176     1.0635692173    -1.2385114939
    5      H      -2.3137283706     0.1531037750     1.3526927440
    6      H      -0.7072657195     0.8460624129    -1.7526878586
    7      C       0.6095893544    -0.0722631477    -0.2998234484
    8      H       0.7495686913    -1.0013535988    -0.8684841538
    9      H       1.5718628313     0.1461339290     0.1760534161
   10      C      -0.4060567244    -0.3283104495     0.8235947008
   11      O      -1.5877193859    -0.9316100365     0.0690561985
   12      H       0.0548856417     1.9731753468    -0.6520262280
   13      O      -0.8359466653     0.7551060175     1.4801807836
   14      O      -2.7384643076    -0.6308455132     0.8671183063
   15      C       0.0949384267    -1.4393279024     1.7572018855
   16      H      -0.7000622838    -1.7101896922     2.4586741678
   17      H       0.3973420304    -2.3323174170     1.1998405687
   18      H       0.9545651778    -1.0762719561     2.3302132488
 ----------------------------------------------------------------
 Nuclear Repulsion Energy =   547.3208500868 hartrees
 There are       40 alpha and       40 beta electrons
 Discretize the solute cavity surface with Lebedev spheres
	Using 110 Lebedev grid points for each H atom
	Using 110 Lebedev grid points for other atoms
	Atomic van der Waals radii will be scaled by 1.20
 Remove points where switching function is < 1.0e-08
 Keep 1060 surface tesserae and discard 920 interior tesserae
 Molecular Surface Area = 186.346 Angst**2
 Requested basis set is def2-TZVPD
 There are 175 shells and 457 basis functions
 A cutoff of  1.0D-14 yielded  14050 shell pairs
 There are     95774 function pairs (    121770 Cartesian)
 Smallest overlap matrix eigenvalue = 2.73E-06
 Guess MOs from SCF MO coefficient file
 Reading MOs from coefficient file
 Reading MOs from coefficient file
 Long-range K will be added via erf
 Coulomb attenuation parameter = 0.3 bohr**(-1)
 An unrestricted hybrid HF-DFT SCF calculation will be
 performed using Pulay DIIS extrapolation
 Polarizable Continuum solvation model will be applied
 Exchange:     0.1670 Hartree-Fock + 1.0000 wB97X-V + LR-HF
 Correlation:  1.0000 wB97X-V
 Using SG-2 standard quadrature grid
 Nonlocal Correlation:  VV10 with C = 0.0100 and b = 6.00
 Grid used for NLC:  SG-1 standard quadrature
 SCF converges when DIIS error is below 1.0E-08
Using Q-Chem read-in guess as SCF_GUESS READ specified.

 using 16 threads for integral computing
 -------------------------------------------------------
 OpenMP Integral computing Module                
 Release: version 1.0, May 2013, Q-Chem Inc. Pittsburgh 
 -------------------------------------------------------
 using 16 threads for integral computing
 -------------------------------------------------------
 OpenMP Integral computing Module                
 Release: version 1.0, May 2013, Q-Chem Inc. Pittsburgh 
 -------------------------------------------------------
 -------------------------------------------------------
 OpenMP BLAS3 based DFT computing Module                
 Release: version 1.0, May 2013, Q-Chem Inc. Pittsburgh 
 -------------------------------------------------------
 -------------------------------------------------------
 OpenMP BLAS3 based DFT computing Module                
 Release: version 1.0, May 2013, Q-Chem Inc. Pittsburgh 
 -------------------------------------------------------
 -------------------------------------------------------
 OpenMP BLAS3 based DFT computing Module                
 Release: version 1.0, May 2013, Q-Chem Inc. Pittsburgh 
 -------------------------------------------------------
 ---------------------------------------
  Cycle       Energy         DIIS Error
 ---------------------------------------
    1    -571.4246393272      2.94E-04
    2    -571.7224789663      3.04E-04
    3    -571.7260248588      1.43E-04
    4    -571.7266131432      1.05E-04
    5    -571.7270078367      7.80E-05
    6    -571.7272824013      5.27E-05
    7    -571.7274667862      2.33E-05
    8    -571.7275050301      8.73E-06
    9    -571.7275110622      1.54E-06
   10    -571.7275112397      3.84E-07
   11    -571.7275112485      9.15E-08
   12    -571.7275112490      2.77E-08
   13    -571.7275112490      8.71E-09 Convergence criterion met
 ---------------------------------------

************** Final PCM Free Energy Summary **************
 G_electrostatic  =      -0.30178841 hartree =    -189.37508523 kcal/mol
 G_cavitation     =       0.00000000 hartree =       0.00000000 kcal/mol
 G_dispersion     =       0.00000000 hartree =       0.00000000 kcal/mol
 G_repulsion      =       0.00000000 hartree =       0.00000000 kcal/mol
 --------------------------------------------------
 Non-electrostatic Free Energy =       0.00000000 hartree =       0.00000000 kcal/mol
 Total                         =      -0.30178841 hartree =    -189.37508523 kcal/mol
 --------------------------------------------------
 SCF Energy (H0 + V/2)                       =    -571.72751125 
 Solute Internal Energy (H0)                 =    -571.42572284 
 Total Free Energy (H0 + V/2 + non-elec)     =    -571.72751125 hartree
                                             = -358764.42814004 kcal/mol
***********************************************************

 <S^2> = 0.0000
 SCF time:  CPU 3702.43 s  wall 259.51 s
 SCF   energy in the final basis set = -571.72751125
 Total energy in the final basis set = -571.72751125
 
 --------------------------------------------------------------
 
                    Orbital Energies (a.u.)
 --------------------------------------------------------------
 
 Alpha MOs
 -- Occupied --
-19.222 -19.220 -19.137 -19.135 -19.114 -10.337 -10.328 -10.239
-10.237 -10.232  -1.215  -1.139  -1.060  -1.044  -0.965  -0.878
 -0.829  -0.750  -0.653  -0.601  -0.596  -0.556  -0.549  -0.532
 -0.522  -0.510  -0.493  -0.488  -0.480  -0.454  -0.437  -0.427
 -0.423  -0.405  -0.345  -0.339  -0.331  -0.328  -0.325  -0.296
 -- Virtual --
  0.060   0.072   0.081   0.088   0.095   0.102   0.110   0.122
  0.126   0.130   0.137   0.145   0.149   0.156   0.165   0.172
  0.176   0.182   0.185   0.188   0.195   0.215   0.216   0.220
  0.231   0.234   0.243   0.252   0.259   0.269   0.270   0.276
  0.281   0.289   0.292   0.304   0.305   0.309   0.312   0.325
  0.335   0.337   0.348   0.350   0.359   0.365   0.370   0.374
  0.381   0.385   0.388   0.391   0.396   0.403   0.404   0.410
  0.414   0.424   0.428   0.429   0.435   0.448   0.452   0.459
  0.463   0.469   0.475   0.479   0.485   0.493   0.496   0.497
  0.508   0.513   0.516   0.526   0.537   0.541   0.544   0.551
  0.555   0.561   0.566   0.575   0.578   0.590   0.593   0.597
  0.603   0.610   0.625   0.630   0.637   0.642   0.647   0.654
  0.660   0.665   0.680   0.683   0.696   0.704   0.705   0.714
  0.718   0.726   0.732   0.742   0.746   0.762   0.771   0.778
  0.778   0.789   0.795   0.796   0.802   0.806   0.814   0.818
  0.824   0.836   0.844   0.848   0.849   0.857   0.867   0.872
  0.883   0.893   0.898   0.899   0.907   0.918   0.926   0.940
  0.945   0.953   0.960   0.979   0.990   1.009   1.024   1.046
  1.052   1.058   1.063   1.073   1.089   1.096   1.109   1.111
  1.136   1.148   1.154   1.175   1.189   1.202   1.215   1.220
  1.225   1.242   1.253   1.261   1.266   1.285   1.304   1.334
  1.338   1.350   1.377   1.385   1.394   1.415   1.445   1.462
  1.464   1.468   1.486   1.518   1.532   1.568   1.576   1.596
  1.602   1.635   1.650   1.673   1.708   1.738   1.758   1.811
  1.829   1.842   1.870   1.906   1.918   1.945   1.948   1.957
  1.966   1.983   1.991   2.004   2.014   2.023   2.038   2.045
  2.050   2.066   2.076   2.088   2.124   2.133   2.169   2.179
  2.191   2.217   2.225   2.245   2.277   2.282   2.289   2.306
  2.317   2.320   2.343   2.380   2.400   2.422   2.435   2.458
  2.470   2.474   2.485   2.493   2.504   2.529   2.554   2.607
  2.612   2.625   2.657   2.666   2.693   2.696   2.725   2.733
  2.757   2.785   2.793   2.813   2.857   2.879   2.884   2.912
  2.931   2.955   2.967   2.974   2.997   3.004   3.032   3.040
  3.056   3.085   3.092   3.103   3.125   3.170   3.188   3.206
  3.232   3.245   3.269   3.288   3.309   3.325   3.335   3.359
  3.387   3.421   3.425   3.449   3.468   3.480   3.485   3.495
  3.517   3.534   3.548   3.568   3.579   3.593   3.596   3.611
  3.623   3.646   3.655   3.684   3.691   3.701   3.715   3.728
  3.746   3.762   3.773   3.795   3.800   3.813   3.834   3.857
  3.866   3.880   3.946   3.960   3.981   4.062   4.083   4.100
  4.124   4.152   4.171   4.242   4.256   4.301   4.325   4.386
  4.442   4.472   4.511   4.576   4.600   4.654   4.728   4.776
  4.785   4.803   4.832   4.856   4.863   4.907   4.959   5.012
  5.052   5.092   5.136   5.209   5.235   5.310   5.322   5.333
  5.365   5.371   5.381   5.403   5.428   5.504   5.525   5.564
  5.614   5.645   5.709   5.722   5.726   5.772   5.788   5.831
  6.002   6.015   6.047   6.104   6.226   6.241   6.256   6.306
  6.340   6.374   6.404   6.607   6.615   6.640   6.674   6.697
  6.706   6.760   6.775   6.793   6.832   6.917   6.962   6.976
  7.003   7.060   7.070   7.171   7.192   7.247   7.253   7.306
  7.366   7.386   7.410   7.418   7.528   7.609   8.334  22.731
 22.902  22.960  23.127  23.730  44.213  44.311  44.416  44.597
 44.721
 
 Beta MOs
 -- Occupied --
-19.222 -19.220 -19.137 -19.135 -19.114 -10.337 -10.328 -10.239
-10.237 -10.232  -1.215  -1.139  -1.060  -1.044  -0.965  -0.878
 -0.829  -0.750  -0.653  -0.601  -0.596  -0.556  -0.549  -0.532
 -0.522  -0.510  -0.493  -0.488  -0.480  -0.454  -0.437  -0.427
 -0.423  -0.405  -0.345  -0.339  -0.331  -0.328  -0.325  -0.296
 -- Virtual --
  0.060   0.072   0.081   0.088   0.095   0.102   0.110   0.122
  0.126   0.130   0.137   0.145   0.149   0.156   0.165   0.172
  0.176   0.182   0.185   0.188   0.195   0.215   0.216   0.220
  0.231   0.234   0.243   0.252   0.259   0.269   0.270   0.276
  0.281   0.289   0.292   0.304   0.305   0.309   0.312   0.325
  0.335   0.337   0.348   0.350   0.359   0.365   0.370   0.374
  0.381   0.385   0.388   0.391   0.396   0.403   0.404   0.410
  0.414   0.424   0.428   0.429   0.435   0.448   0.452   0.459
  0.463   0.469   0.475   0.479   0.485   0.493   0.496   0.497
  0.508   0.513   0.516   0.526   0.537   0.541   0.544   0.551
  0.555   0.561   0.566   0.575   0.578   0.590   0.593   0.597
  0.603   0.610   0.625   0.630   0.637   0.642   0.647   0.654
  0.660   0.665   0.680   0.683   0.696   0.704   0.705   0.714
  0.718   0.726   0.732   0.742   0.746   0.762   0.771   0.778
  0.778   0.789   0.795   0.796   0.802   0.806   0.814   0.818
  0.824   0.836   0.844   0.848   0.849   0.857   0.867   0.872
  0.883   0.893   0.898   0.899   0.907   0.918   0.926   0.940
  0.945   0.953   0.960   0.979   0.990   1.009   1.024   1.046
  1.052   1.058   1.063   1.073   1.089   1.096   1.109   1.111
  1.136   1.148   1.154   1.175   1.189   1.202   1.215   1.220
  1.225   1.242   1.253   1.261   1.266   1.285   1.304   1.334
  1.338   1.350   1.377   1.385   1.394   1.415   1.445   1.462
  1.464   1.468   1.486   1.518   1.532   1.568   1.576   1.596
  1.602   1.635   1.650   1.673   1.708   1.738   1.758   1.811
  1.829   1.842   1.870   1.906   1.918   1.945   1.948   1.957
  1.966   1.983   1.991   2.004   2.014   2.023   2.038   2.045
  2.050   2.066   2.076   2.088   2.124   2.133   2.169   2.179
  2.191   2.217   2.225   2.245   2.277   2.282   2.289   2.306
  2.317   2.320   2.343   2.380   2.400   2.422   2.435   2.458
  2.470   2.474   2.485   2.493   2.504   2.529   2.554   2.607
  2.612   2.625   2.657   2.666   2.693   2.696   2.725   2.733
  2.757   2.785   2.793   2.813   2.857   2.879   2.884   2.912
  2.931   2.955   2.967   2.974   2.997   3.004   3.032   3.040
  3.056   3.085   3.092   3.103   3.125   3.170   3.188   3.206
  3.232   3.245   3.269   3.288   3.309   3.325   3.335   3.359
  3.387   3.421   3.425   3.449   3.468   3.480   3.485   3.495
  3.517   3.534   3.548   3.568   3.579   3.593   3.596   3.611
  3.623   3.646   3.655   3.684   3.691   3.701   3.715   3.728
  3.746   3.762   3.773   3.795   3.800   3.813   3.834   3.857
  3.866   3.880   3.946   3.960   3.981   4.062   4.083   4.100
  4.124   4.152   4.171   4.242   4.256   4.301   4.325   4.386
  4.442   4.472   4.511   4.576   4.600   4.654   4.728   4.776
  4.785   4.803   4.832   4.856   4.863   4.907   4.959   5.012
  5.052   5.092   5.136   5.209   5.235   5.310   5.322   5.333
  5.365   5.371   5.381   5.403   5.428   5.504   5.525   5.564
  5.614   5.645   5.709   5.722   5.726   5.772   5.788   5.831
  6.002   6.015   6.047   6.104   6.226   6.241   6.256   6.306
  6.340   6.374   6.404   6.607   6.615   6.640   6.674   6.697
  6.706   6.760   6.775   6.793   6.832   6.917   6.962   6.976
  7.003   7.060   7.070   7.171   7.192   7.247   7.253   7.306
  7.366   7.386   7.410   7.418   7.528   7.609   8.334  22.731
 22.902  22.960  23.127  23.730  44.213  44.311  44.416  44.597
 44.721
 --------------------------------------------------------------
 
          Ground-State Mulliken Net Atomic Charges

     Atom                 Charge (a.u.)    Spin (a.u.)
  --------------------------------------------------------
      1 C                    -0.001572       0.000000
      2 O                    -0.715464       0.000000
      3 O                    -0.698607      -0.000000
      4 C                    -0.229049       0.000000
      5 H                     0.371599      -0.000000
      6 H                     0.199926       0.000000
      7 C                    -0.501091       0.000000
      8 H                     0.255788      -0.000000
      9 H                     0.178203       0.000000
     10 C                     1.273103      -0.000000
     11 O                    -0.328202       0.000000
     12 H                     0.209028      -0.000000
     13 O                    -0.983731       0.000000
     14 O                    -0.443673       0.000000
     15 C                    -1.310409       0.000000
     16 H                     0.237013       0.000000
     17 H                     0.229446      -0.000000
     18 H                     0.257690      -0.000000
  --------------------------------------------------------
  Sum of atomic charges =    -2.000000
  Sum of spin   charges =    -0.000000

 -----------------------------------------------------------------
                    Cartesian Multipole Moments
 -----------------------------------------------------------------
    Charge (ESU x 10^10)
                -9.6064
    Dipole Moment (Debye)
         X      -1.3419      Y      -8.4375      Z       9.7772
       Tot      12.9840
    Quadrupole Moments (Debye-Ang)
        XX    -103.4729     XY     -16.4601     YY     -85.8384
        XZ      27.9816     YZ      23.9853     ZZ    -118.2325
    Octopole Moments (Debye-Ang^2)
       XXX     -18.7824    XXY     -29.2020    XYY     -10.7266
       YYY     -82.3616    XXZ      68.6164    XYZ      34.1787
       YYZ      69.8505    XZZ     -57.5667    YZZ    -112.4279
       ZZZ     203.7275
    Hexadecapole Moments (Debye-Ang^3)
      XXXX   -1130.3084   XXXY    -270.3866   XXYY    -294.4198
      XYYY    -197.0747   YYYY    -674.5386   XXXZ     439.5718
      XXYZ     182.1915   XYYZ     158.2177   YYYZ     427.6070
      XXZZ    -475.5724   XYZZ    -154.4105   YYZZ    -500.1625
      XZZZ     477.6275   YZZZ     607.5492   ZZZZ   -1757.5319
 -----------------------------------------------------------------
 Calculating analytic gradient of the SCF energy
 Gradient of SCF Energy
            1           2           3           4           5           6
    1   0.0462177   0.0117183  -0.0594488  -0.1070702  -0.0220856   0.0504461
    2   0.0115078  -0.0277850   0.0159741   0.0294887  -0.0326862   0.0131566
    3  -0.0230387   0.0503334  -0.0042816   0.0224312  -0.0236752   0.0315236
            7           8           9          10          11          12
    1   0.0672326   0.0004778  -0.0498311   0.0280646   0.0310070   0.0106224
    2  -0.0227322   0.0431794  -0.0304694   0.0020508   0.0084251  -0.0464187
    3  -0.0380229   0.0373554  -0.0418393  -0.0281627  -0.0184317  -0.0333689
           13          14          15          16          17          18
    1   0.0070474  -0.0146439   0.0218422   0.0564224  -0.0183607  -0.0596583
    2   0.0130682   0.0450618  -0.0661380   0.0223024   0.0560805  -0.0340659
    3   0.0031868   0.0396659   0.0694353  -0.0474249   0.0435116  -0.0391972
 Max gradient component =       1.071E-01
 RMS gradient           =       3.879E-02
 Computing fast CPCM-ISWIG gradient
 Updating gradient with PCM contributions...
 -- total gradient after adding PCM contribution --
---------------------------------------------------
  Atom         X              Y              Z     
---------------------------------------------------
   1      -0.001334       0.000204      -0.000044
   2       0.000214      -0.000050       0.000095
   3       0.000859      -0.000191       0.000068
   4       0.000237       0.000026      -0.000137
   5       0.000008       0.000014      -0.000003
   6       0.000040      -0.000011      -0.000017
   7      -0.000040       0.000026       0.000004
   8       0.000007      -0.000010       0.000014
   9       0.000002       0.000003       0.000016
  10       0.000118      -0.000005       0.000054
  11      -0.000058      -0.000026      -0.000065
  12       0.000005       0.000003      -0.000007
  13      -0.000029       0.000004       0.000018
  14       0.000001      -0.000015       0.000014
  15      -0.000054       0.000009      -0.000030
  16       0.000010       0.000016       0.000015
  17       0.000006       0.000000       0.000008
  18       0.000008       0.000002      -0.000001
---------------------------------------------------
 Number of fixed atoms: 0
 Gradient time:  CPU 935.98 s  wall 66.54 s
 ----------------------------------------------------------------
             Standard Nuclear Orientation (Angstroms)
    I     Atom           X                Y                Z
 ----------------------------------------------------------------
    1      C       1.2836670405     1.4252314854    -2.2990456193
    2      O       0.8658385245     2.0574475026    -3.3083747615
    3      O       2.4839566008     1.1037980152    -2.0949722887
    4      C       0.2332275176     1.0635692173    -1.2385114939
    5      H      -2.3137283706     0.1531037750     1.3526927440
    6      H      -0.7072657195     0.8460624129    -1.7526878586
    7      C       0.6095893544    -0.0722631477    -0.2998234484
    8      H       0.7495686913    -1.0013535988    -0.8684841538
    9      H       1.5718628313     0.1461339290     0.1760534161
   10      C      -0.4060567244    -0.3283104495     0.8235947008
   11      O      -1.5877193859    -0.9316100365     0.0690561985
   12      H       0.0548856417     1.9731753468    -0.6520262280
   13      O      -0.8359466653     0.7551060175     1.4801807836
   14      O      -2.7384643076    -0.6308455132     0.8671183063
   15      C       0.0949384267    -1.4393279024     1.7572018855
   16      H      -0.7000622838    -1.7101896922     2.4586741678
   17      H       0.3973420304    -2.3323174170     1.1998405687
   18      H       0.9545651778    -1.0762719561     2.3302132488
 ----------------------------------------------------------------
 Nuclear Repulsion Energy =   547.3180493736 hartrees
 There are       40 alpha and       40 beta electrons
 Discretize the solute cavity surface with Lebedev spheres
	Using 110 Lebedev grid points for each H atom
	Using 110 Lebedev grid points for other atoms
	Atomic van der Waals radii will be scaled by 1.20
 Remove points where switching function is < 1.0e-08
 Keep 1060 surface tesserae and discard 920 interior tesserae
 Molecular Surface Area = 186.346 Angst**2
 Requested basis set is def2-TZVPD
 There are 175 shells and 457 basis functions
 A cutoff of  1.0D-14 yielded  14050 shell pairs
 There are     95774 function pairs (    121770 Cartesian)
 Smallest overlap matrix eigenvalue = 2.73E-06
 Guess MOs from SCF MO coefficient file
 Reading MOs from coefficient file
 Reading MOs from coefficient file
 Long-range K will be added via erf
 Coulomb attenuation parameter = 0.3 bohr**(-1)
 An unrestricted hybrid HF-DFT SCF calculation will be
 performed using Pulay DIIS extrapolation
 Polarizable Continuum solvation model will be applied
 Exchange:     0.1670 Hartree-Fock + 1.0000 wB97X-V + LR-HF
 Correlation:  1.0000 wB97X-V
 Using SG-2 standard quadrature grid
 Nonlocal Correlation:  VV10 with C = 0.0100 and b = 6.00
 Grid used for NLC:  SG-1 standard quadrature
 SCF converges when DIIS error is below 1.0E-08
Using Q-Chem read-in guess as SCF_GUESS READ specified.

 using 16 threads for integral computing
 -------------------------------------------------------
 OpenMP Integral computing Module                
 Release: version 1.0, May 2013, Q-Chem Inc. Pittsburgh 
 -------------------------------------------------------
 using 16 threads for integral computing
 -------------------------------------------------------
 OpenMP Integral computing Module                
 Release: version 1.0, May 2013, Q-Chem Inc. Pittsburgh 
 -------------------------------------------------------
 -------------------------------------------------------
 OpenMP BLAS3 based DFT computing Module                
 Release: version 1.0, May 2013, Q-Chem Inc. Pittsburgh 
 -------------------------------------------------------
 -------------------------------------------------------
 OpenMP BLAS3 based DFT computing Module                
 Release: version 1.0, May 2013, Q-Chem Inc. Pittsburgh 
 -------------------------------------------------------
 -------------------------------------------------------
 OpenMP BLAS3 based DFT computing Module                
 Release: version 1.0, May 2013, Q-Chem Inc. Pittsburgh 
 -------------------------------------------------------
 ---------------------------------------
  Cycle       Energy         DIIS Error
 ---------------------------------------
    1    -571.4264662617      2.93E-04
    2    -571.7224709101      3.04E-04
    3    -571.7260204217      1.43E-04
    4    -571.7266074771      1.05E-04
    5    -571.7269822307      8.01E-05
    6    -571.7272103669      6.05E-05
    7    -571.7273976149      3.72E-05
    8    -571.7274801851      1.96E-05
    9    -571.7275091357      5.75E-06
   10    -571.7275116473      1.49E-06
   11    -571.7275118174      2.20E-07
   12    -571.7275118207      5.61E-08
   13    -571.7275118209      8.80E-09 Convergence criterion met
 ---------------------------------------

************** Final PCM Free Energy Summary **************
 G_electrostatic  =      -0.30176576 hartree =    -189.36087348 kcal/mol
 G_cavitation     =       0.00000000 hartree =       0.00000000 kcal/mol
 G_dispersion     =       0.00000000 hartree =       0.00000000 kcal/mol
 G_repulsion      =       0.00000000 hartree =       0.00000000 kcal/mol
 --------------------------------------------------
 Non-electrostatic Free Energy =       0.00000000 hartree =       0.00000000 kcal/mol
 Total                         =      -0.30176576 hartree =    -189.36087348 kcal/mol
 --------------------------------------------------
 SCF Energy (H0 + V/2)                       =    -571.72751182 
 Solute Internal Energy (H0)                 =    -571.42574606 
 Total Free Energy (H0 + V/2 + non-elec)     =    -571.72751182 hartree
                                             = -358764.42849887 kcal/mol
***********************************************************

 <S^2> = 0.0000
 SCF time:  CPU 3709.94 s  wall 260.13 s
 SCF   energy in the final basis set = -571.72751182
 Total energy in the final basis set = -571.72751182
 
 --------------------------------------------------------------
 
                    Orbital Energies (a.u.)
 --------------------------------------------------------------
 
 Alpha MOs
 -- Occupied --
-19.222 -19.220 -19.137 -19.135 -19.114 -10.337 -10.328 -10.239
-10.237 -10.232  -1.215  -1.139  -1.060  -1.045  -0.965  -0.878
 -0.829  -0.750  -0.653  -0.601  -0.596  -0.556  -0.549  -0.532
 -0.522  -0.510  -0.493  -0.488  -0.480  -0.454  -0.437  -0.427
 -0.423  -0.405  -0.345  -0.339  -0.331  -0.328  -0.325  -0.296
 -- Virtual --
  0.060   0.072   0.081   0.088   0.095   0.102   0.110   0.122
  0.126   0.130   0.137   0.145   0.149   0.156   0.165   0.172
  0.176   0.182   0.185   0.188   0.195   0.215   0.216   0.221
  0.231   0.234   0.243   0.252   0.259   0.269   0.270   0.276
  0.281   0.289   0.292   0.304   0.305   0.309   0.312   0.325
  0.335   0.337   0.348   0.350   0.359   0.365   0.370   0.374
  0.381   0.385   0.388   0.391   0.396   0.403   0.404   0.410
  0.414   0.424   0.428   0.429   0.435   0.448   0.452   0.459
  0.463   0.469   0.475   0.479   0.485   0.493   0.496   0.497
  0.508   0.513   0.516   0.526   0.537   0.541   0.544   0.551
  0.555   0.561   0.566   0.575   0.578   0.589   0.593   0.597
  0.603   0.610   0.625   0.630   0.637   0.642   0.647   0.654
  0.660   0.665   0.680   0.683   0.696   0.704   0.705   0.714
  0.718   0.726   0.732   0.742   0.746   0.762   0.771   0.778
  0.778   0.789   0.795   0.796   0.802   0.806   0.814   0.818
  0.825   0.836   0.844   0.848   0.849   0.857   0.867   0.872
  0.883   0.893   0.898   0.899   0.907   0.918   0.926   0.940
  0.945   0.953   0.960   0.979   0.990   1.009   1.024   1.046
  1.051   1.058   1.063   1.073   1.089   1.096   1.109   1.111
  1.136   1.148   1.154   1.175   1.189   1.202   1.215   1.220
  1.225   1.242   1.253   1.261   1.266   1.285   1.304   1.334
  1.338   1.350   1.377   1.385   1.394   1.415   1.445   1.462
  1.464   1.468   1.486   1.518   1.532   1.568   1.576   1.596
  1.602   1.635   1.650   1.673   1.708   1.738   1.758   1.811
  1.829   1.841   1.870   1.906   1.918   1.945   1.948   1.957
  1.966   1.983   1.991   2.004   2.014   2.023   2.038   2.045
  2.050   2.066   2.076   2.088   2.124   2.133   2.168   2.178
  2.191   2.217   2.225   2.245   2.277   2.282   2.289   2.306
  2.317   2.319   2.343   2.380   2.400   2.422   2.435   2.458
  2.470   2.475   2.485   2.493   2.504   2.529   2.554   2.607
  2.612   2.625   2.657   2.666   2.693   2.696   2.725   2.733
  2.757   2.785   2.793   2.813   2.857   2.879   2.884   2.912
  2.931   2.955   2.967   2.974   2.997   3.004   3.032   3.040
  3.056   3.085   3.092   3.103   3.126   3.170   3.188   3.206
  3.232   3.245   3.269   3.288   3.309   3.325   3.335   3.358
  3.386   3.421   3.425   3.449   3.468   3.480   3.485   3.495
  3.517   3.534   3.548   3.568   3.579   3.593   3.595   3.611
  3.623   3.646   3.655   3.684   3.691   3.701   3.715   3.728
  3.746   3.762   3.773   3.795   3.800   3.813   3.834   3.857
  3.866   3.880   3.946   3.959   3.981   4.062   4.083   4.100
  4.124   4.152   4.171   4.241   4.256   4.301   4.325   4.386
  4.442   4.472   4.511   4.576   4.600   4.653   4.728   4.776
  4.785   4.803   4.832   4.855   4.863   4.907   4.959   5.012
  5.052   5.092   5.136   5.209   5.235   5.310   5.321   5.333
  5.365   5.371   5.381   5.403   5.428   5.505   5.525   5.564
  5.614   5.645   5.709   5.721   5.726   5.772   5.788   5.831
  6.003   6.015   6.047   6.104   6.226   6.242   6.256   6.306
  6.340   6.374   6.404   6.607   6.617   6.640   6.674   6.697
  6.706   6.760   6.775   6.793   6.832   6.917   6.962   6.976
  7.003   7.060   7.070   7.171   7.192   7.247   7.253   7.306
  7.366   7.387   7.411   7.418   7.528   7.609   8.334  22.731
 22.902  22.960  23.127  23.732  44.213  44.311  44.416  44.597
 44.721
 
 Beta MOs
 -- Occupied --
-19.222 -19.220 -19.137 -19.135 -19.114 -10.337 -10.328 -10.239
-10.237 -10.232  -1.215  -1.139  -1.060  -1.045  -0.965  -0.878
 -0.829  -0.750  -0.653  -0.601  -0.596  -0.556  -0.549  -0.532
 -0.522  -0.510  -0.493  -0.488  -0.480  -0.454  -0.437  -0.427
 -0.423  -0.405  -0.345  -0.339  -0.331  -0.328  -0.325  -0.296
 -- Virtual --
  0.060   0.072   0.081   0.088   0.095   0.102   0.110   0.122
  0.126   0.130   0.137   0.145   0.149   0.156   0.165   0.172
  0.176   0.182   0.185   0.188   0.195   0.215   0.216   0.221
  0.231   0.234   0.243   0.252   0.259   0.269   0.270   0.276
  0.281   0.289   0.292   0.304   0.305   0.309   0.312   0.325
  0.335   0.337   0.348   0.350   0.359   0.365   0.370   0.374
  0.381   0.385   0.388   0.391   0.396   0.403   0.404   0.410
  0.414   0.424   0.428   0.429   0.435   0.448   0.452   0.459
  0.463   0.469   0.475   0.479   0.485   0.493   0.496   0.497
  0.508   0.513   0.516   0.526   0.537   0.541   0.544   0.551
  0.555   0.561   0.566   0.575   0.578   0.589   0.593   0.597
  0.603   0.610   0.625   0.630   0.637   0.642   0.647   0.654
  0.660   0.665   0.680   0.683   0.696   0.704   0.705   0.714
  0.718   0.726   0.732   0.742   0.746   0.762   0.771   0.778
  0.778   0.789   0.795   0.796   0.802   0.806   0.814   0.818
  0.825   0.836   0.844   0.848   0.849   0.857   0.867   0.872
  0.883   0.893   0.898   0.899   0.907   0.918   0.926   0.940
  0.945   0.953   0.960   0.979   0.990   1.009   1.024   1.046
  1.051   1.058   1.063   1.073   1.089   1.096   1.109   1.111
  1.136   1.148   1.154   1.175   1.189   1.202   1.215   1.220
  1.225   1.242   1.253   1.261   1.266   1.285   1.304   1.334
  1.338   1.350   1.377   1.385   1.394   1.415   1.445   1.462
  1.464   1.468   1.486   1.518   1.532   1.568   1.576   1.596
  1.602   1.635   1.650   1.673   1.708   1.738   1.758   1.811
  1.829   1.841   1.870   1.906   1.918   1.945   1.948   1.957
  1.966   1.983   1.991   2.004   2.014   2.023   2.038   2.045
  2.050   2.066   2.076   2.088   2.124   2.133   2.168   2.178
  2.191   2.217   2.225   2.245   2.277   2.282   2.289   2.306
  2.317   2.319   2.343   2.380   2.400   2.422   2.435   2.458
  2.470   2.475   2.485   2.493   2.504   2.529   2.554   2.607
  2.612   2.625   2.657   2.666   2.693   2.696   2.725   2.733
  2.757   2.785   2.793   2.813   2.857   2.879   2.884   2.912
  2.931   2.955   2.967   2.974   2.997   3.004   3.032   3.040
  3.056   3.085   3.092   3.103   3.126   3.170   3.188   3.206
  3.232   3.245   3.269   3.288   3.309   3.325   3.335   3.358
  3.386   3.421   3.425   3.449   3.468   3.480   3.485   3.495
  3.517   3.534   3.548   3.568   3.579   3.593   3.595   3.611
  3.623   3.646   3.655   3.684   3.691   3.701   3.715   3.728
  3.746   3.762   3.773   3.795   3.800   3.813   3.834   3.857
  3.866   3.880   3.946   3.959   3.981   4.062   4.083   4.100
  4.124   4.152   4.171   4.241   4.256   4.301   4.325   4.386
  4.442   4.472   4.511   4.576   4.600   4.653   4.728   4.776
  4.785   4.803   4.832   4.855   4.863   4.907   4.959   5.012
  5.052   5.092   5.136   5.209   5.235   5.310   5.321   5.333
  5.365   5.371   5.381   5.403   5.428   5.505   5.525   5.564
  5.614   5.645   5.709   5.721   5.726   5.772   5.788   5.831
  6.003   6.015   6.047   6.104   6.226   6.242   6.256   6.306
  6.340   6.374   6.404   6.607   6.617   6.640   6.674   6.697
  6.706   6.760   6.775   6.793   6.832   6.917   6.962   6.976
  7.003   7.060   7.070   7.171   7.192   7.247   7.253   7.306
  7.366   7.387   7.411   7.418   7.528   7.609   8.334  22.731
 22.902  22.960  23.127  23.732  44.213  44.311  44.416  44.597
 44.721
 --------------------------------------------------------------
 
          Ground-State Mulliken Net Atomic Charges

     Atom                 Charge (a.u.)    Spin (a.u.)
  --------------------------------------------------------
      1 C                    -0.000573       0.000000
      2 O                    -0.715492      -0.000000
      3 O                    -0.698018      -0.000000
      4 C                    -0.230640       0.000000
      5 H                     0.371607      -0.000000
      6 H                     0.200111      -0.000000
      7 C                    -0.500578       0.000000
      8 H                     0.255700      -0.000000
      9 H                     0.178093      -0.000000
     10 C                     1.272938       0.000000
     11 O                    -0.328193      -0.000000
     12 H                     0.208705      -0.000000
     13 O                    -0.983712      -0.000000
     14 O                    -0.443678       0.000000
     15 C                    -1.310400       0.000000
     16 H                     0.237010      -0.000000
     17 H                     0.229445       0.000000
     18 H                     0.257677      -0.000000
  --------------------------------------------------------
  Sum of atomic charges =    -2.000000
  Sum of spin   charges =    -0.000000

 -----------------------------------------------------------------
                    Cartesian Multipole Moments
 -----------------------------------------------------------------
    Charge (ESU x 10^10)
                -9.6064
    Dipole Moment (Debye)
         X      -1.3333      Y      -8.4362      Z       9.7744
       Tot      12.9802
    Quadrupole Moments (Debye-Ang)
        XX    -103.4507     XY     -16.4492     YY     -85.8374
        XZ      27.9654     YZ      23.9814     ZZ    -118.2284
    Octopole Moments (Debye-Ang^2)
       XXX     -18.7282    XXY     -29.1799    XYY     -10.7091
       YYY     -82.3751    XXZ      68.5656    XYZ      34.1601
       YYZ      69.8418    XZZ     -57.5361    YZZ    -112.4275
       ZZZ     203.7115
    Hexadecapole Moments (Debye-Ang^3)
      XXXX   -1130.2077   XXXY    -270.3607   XXYY    -294.3946
      XYYY    -197.0751   YYYY    -674.6527   XXXZ     439.4711
      XXYZ     182.1498   XYYZ     158.1952   YYYZ     427.6456
      XXZZ    -475.4716   XYZZ    -154.3960   YYZZ    -500.1838
[...]
 O         -0.008 -0.003  0.000   -0.053  0.009  0.034   -0.366  0.084  0.264
 C          0.107 -0.116 -0.038   -0.057 -0.077 -0.073    0.034  0.064  0.038
 H         -0.167  0.364 -0.151    0.092  0.086  0.156   -0.080 -0.051 -0.138
 H          0.093 -0.466  0.513    0.231 -0.201  0.292   -0.181  0.155 -0.230
 H         -0.097 -0.013  0.209   -0.149  0.445 -0.254    0.102 -0.287  0.142
 TransDip  -0.028 -0.092 -0.205    0.022  0.070  0.024    0.062 -0.060 -0.072

 Mode:                25                     26                     27
 Frequency:      1084.95                1103.05                1161.57
 Force Cnst:      1.5491                 1.7708                 1.6982
 Red. Mass:       2.2336                 2.4702                 2.1362
 IR Active:          YES                    YES                    YES
 IR Intens:       55.643                 27.911                 99.000
 Raman Active:       YES                    YES                    YES
               X      Y      Z        X      Y      Z        X      Y      Z
 C          0.019  0.100  0.044    0.006  0.054  0.041   -0.010 -0.061 -0.034
 O         -0.004 -0.015 -0.015   -0.003 -0.027  0.027    0.002  0.004  0.017
 O          0.019 -0.024 -0.007    0.019 -0.010 -0.013    0.007  0.011  0.004
 C         -0.002 -0.156 -0.015   -0.141  0.098 -0.140   -0.034  0.099 -0.021
 H         -0.013  0.022 -0.011    0.041 -0.004 -0.001   -0.087  0.038 -0.021
 H         -0.251 -0.159  0.450   -0.239  0.238 -0.017    0.033  0.096 -0.148
 C          0.006  0.166 -0.012    0.143 -0.125  0.118    0.048 -0.018  0.013
 H         -0.293  0.192 -0.139   -0.016 -0.122  0.058   -0.214 -0.376  0.545
 H          0.087 -0.094 -0.081    0.150 -0.396  0.220   -0.024 -0.108  0.195
 C         -0.121  0.008 -0.112   -0.063 -0.078 -0.044   -0.032  0.188 -0.164
 O          0.008 -0.002  0.000   -0.032  0.003  0.003    0.021 -0.008  0.020
 H          0.268 -0.143  0.065    0.160  0.333 -0.401   -0.222 -0.128  0.267
 O          0.040 -0.037 -0.001   -0.001  0.047  0.032    0.027 -0.085 -0.014
 O         -0.003 -0.000  0.003    0.011 -0.009 -0.014   -0.004  0.004  0.007
 C          0.037  0.040  0.102    0.076  0.050 -0.003   -0.025 -0.033  0.072
 H         -0.002 -0.220 -0.035   -0.144  0.115 -0.221    0.171 -0.303  0.195
 H         -0.169  0.146 -0.202   -0.154  0.002 -0.056    0.068  0.008  0.031
 H          0.150 -0.374  0.188    0.050 -0.238  0.204    0.081 -0.129 -0.007
 TransDip  -0.223  0.045 -0.073   -0.096 -0.094 -0.103   -0.159  0.255 -0.107

 Mode:                28                     29                     30
 Frequency:      1191.89                1266.63                1301.73
 Force Cnst:      1.1904                 1.5342                 2.1445
 Red. Mass:       1.4222                 1.6231                 2.1480
 IR Active:          YES                    YES                    YES
 IR Intens:       39.711                  2.529                212.709
 Raman Active:       YES                    YES                    YES
               X      Y      Z        X      Y      Z        X      Y      Z
 C          0.008  0.063  0.027    0.004 -0.009 -0.045    0.007 -0.019  0.003
 O          0.001 -0.016  0.005    0.014 -0.027  0.055   -0.003  0.012 -0.017
 O          0.012 -0.011 -0.007   -0.012  0.008 -0.002   -0.008  0.004 -0.001
 C         -0.019 -0.009 -0.017    0.028  0.082 -0.136   -0.030 -0.064 -0.002
 H         -0.032  0.006 -0.013    0.043 -0.013  0.000    0.207  0.024 -0.136
 H         -0.189 -0.260  0.399   -0.183 -0.216  0.367    0.095  0.343 -0.394
 C         -0.046 -0.048 -0.052    0.009  0.062 -0.043   -0.022  0.051  0.068
 H          0.163  0.062 -0.168   -0.074 -0.054  0.115   -0.079  0.242 -0.253
 H         -0.275 -0.195  0.488   -0.098 -0.282  0.345   -0.079 -0.319  0.347
 C          0.089  0.107 -0.005    0.014 -0.084  0.090    0.196 -0.086 -0.146
 O          0.014 -0.003  0.001   -0.003  0.004 -0.009   -0.029  0.020  0.032
 H          0.128  0.245 -0.361   -0.196 -0.390  0.522    0.065 -0.195  0.222
 O         -0.016 -0.025 -0.003   -0.002  0.019 -0.006   -0.036  0.070  0.052
 O         -0.002  0.005  0.006    0.001 -0.001 -0.002   -0.025 -0.025 -0.016
 C         -0.046 -0.036  0.004    0.003  0.006 -0.016   -0.055  0.005  0.045
 H          0.109 -0.075  0.159   -0.060  0.105 -0.053    0.039 -0.142  0.073
 H          0.127 -0.007  0.049   -0.037  0.033 -0.068    0.102  0.141 -0.101
 H         -0.016  0.096 -0.107   -0.034  0.098 -0.028    0.103 -0.017 -0.176
 TransDip   0.055  0.194 -0.006   -0.036 -0.035  0.011    0.383 -0.207 -0.168

 Mode:                31                     32                     33
 Frequency:      1312.41                1377.83                1389.61
 Force Cnst:      1.6009                 1.5296                 2.2766
 Red. Mass:       1.5776                 1.3675                 2.0010
 IR Active:          YES                    YES                    YES
 IR Intens:      158.751                 21.312                124.293
 Raman Active:       YES                    YES                    YES
               X      Y      Z        X      Y      Z        X      Y      Z
 C          0.013  0.027 -0.013   -0.020 -0.012  0.031    0.039  0.027 -0.069
 O          0.006 -0.014  0.018   -0.006  0.014 -0.025    0.013 -0.032  0.055
 O         -0.012  0.000 -0.002    0.019 -0.004  0.001   -0.038  0.009 -0.002
 C          0.039  0.043  0.021   -0.018 -0.019  0.034    0.040  0.045 -0.079
 H          0.204  0.020 -0.113   -0.022 -0.002  0.014   -0.073  0.009  0.020
 H         -0.048 -0.313  0.332    0.052  0.032 -0.110   -0.140 -0.018  0.258
 C         -0.048 -0.010 -0.024    0.029  0.028 -0.053   -0.069 -0.103  0.162
 H         -0.085 -0.341  0.502   -0.094 -0.105  0.136    0.261  0.293 -0.405
 H          0.021  0.281 -0.305   -0.056 -0.046  0.150    0.162  0.163 -0.425
 C          0.091 -0.116 -0.097   -0.021  0.017 -0.000    0.010  0.085 -0.090
 O         -0.019  0.018  0.023    0.001 -0.002 -0.002    0.004 -0.004  0.005
 H         -0.032  0.190 -0.229    0.070  0.071 -0.079   -0.212 -0.146  0.147
 O         -0.015  0.058  0.036    0.003 -0.004 -0.003   -0.002 -0.015  0.006
 O         -0.022 -0.022 -0.013    0.003  0.002  0.001    0.000  0.003  0.002
 C         -0.022  0.017  0.034    0.048 -0.103  0.097    0.019 -0.062  0.063
 H         -0.025 -0.105 -0.029   -0.361  0.309 -0.226   -0.185  0.127 -0.106
 H         -0.001  0.093 -0.086   -0.142  0.203 -0.472    0.013  0.104 -0.203
 H          0.084 -0.016 -0.113    0.014  0.492 -0.255    0.068  0.182 -0.169
 TransDip   0.255 -0.152 -0.273   -0.128  0.074  0.012   -0.002  0.208 -0.290

 Mode:                34                     35                     36
 Frequency:      1439.94                1456.16                1466.26
 Force Cnst:      6.6854                 1.4776                 1.3440
 Red. Mass:       5.4725                 1.1828                 1.0611
 IR Active:          YES                    YES                    YES
 IR Intens:      336.424                 14.706                 21.709
 Raman Active:       YES                    YES                    YES
               X      Y      Z        X      Y      Z        X      Y      Z
 C         -0.312 -0.130  0.318    0.025  0.017 -0.046   -0.007 -0.002  0.006
 O         -0.044  0.114 -0.187    0.007 -0.015  0.024   -0.001  0.002 -0.003
 O          0.229 -0.042  0.007   -0.018  0.004  0.001    0.004 -0.001  0.000
 C          0.139  0.052 -0.138    0.038 -0.066  0.040    0.004  0.005 -0.006
 H          0.010  0.002 -0.008    0.000 -0.000  0.000    0.196 -0.000 -0.097
 H         -0.194  0.189  0.409   -0.192  0.561  0.166   -0.000 -0.018  0.013
 C         -0.056 -0.018  0.051   -0.016  0.048 -0.035    0.001 -0.008  0.010
 H          0.225  0.057 -0.005    0.271 -0.047  0.175   -0.049  0.002 -0.017
 H          0.090 -0.073 -0.223    0.086 -0.325 -0.053   -0.004  0.066 -0.018
 C          0.024 -0.006 -0.021   -0.002 -0.004  0.005    0.000  0.000 -0.024
 O         -0.000  0.000  0.004   -0.000  0.000 -0.000   -0.004  0.008  0.010
 H         -0.469 -0.138 -0.017   -0.532  0.035 -0.264    0.000 -0.003  0.007
 O         -0.004  0.004  0.007    0.001  0.001 -0.000    0.005  0.000  0.003
 O         -0.003 -0.001 -0.000    0.001  0.000 -0.000   -0.013 -0.012 -0.005
 C         -0.017  0.008  0.006    0.008 -0.001 -0.004    0.005 -0.045 -0.033
 H         -0.019 -0.030 -0.017    0.045 -0.035  0.029    0.280  0.384  0.456
 H          0.102  0.016  0.052   -0.105 -0.022 -0.027    0.014  0.185 -0.361
 H          0.079 -0.082 -0.080   -0.068  0.068  0.063   -0.342  0.009  0.473
 TransDip  -0.379 -0.167  0.417   -0.010  0.075 -0.097    0.106  0.094  0.045

 Mode:                37                     38                     39
 Frequency:      1468.02                1471.74                1511.93
 Force Cnst:      1.3640                 1.3921                 1.6602
 Red. Mass:       1.0743                 1.0908                 1.2327
 IR Active:          YES                    YES                    YES
 IR Intens:        6.403                 15.960                293.882
 Raman Active:       YES                    YES                    YES
               X      Y      Z        X      Y      Z        X      Y      Z
 C          0.005  0.006 -0.017    0.009 -0.003  0.008   -0.001  0.001 -0.005
 O          0.003 -0.006  0.010   -0.002  0.004 -0.006    0.001 -0.001  0.003
 O         -0.004  0.001  0.001   -0.004  0.001 -0.001    0.001 -0.000  0.000
 C          0.015 -0.016  0.008   -0.033  0.014  0.010   -0.004 -0.001  0.001
 H         -0.082 -0.002  0.049   -0.099  0.002  0.051    0.856 -0.036 -0.404
 H         -0.064  0.173  0.062    0.100 -0.228 -0.117    0.002  0.002 -0.015
 C          0.032 -0.007 -0.015   -0.055  0.044 -0.004    0.005 -0.002 -0.007
 H         -0.216 -0.022 -0.042    0.525 -0.031  0.231    0.089  0.027 -0.030
 H         -0.071  0.177  0.098    0.193 -0.495 -0.227    0.029 -0.057 -0.021
 C         -0.024 -0.015  0.016   -0.013 -0.001 -0.004   -0.057  0.065  0.049
 O          0.002 -0.004 -0.007    0.003 -0.004 -0.005   -0.009  0.029  0.032
 H         -0.175  0.012 -0.085    0.261  0.013  0.088    0.007 -0.003  0.011
 O          0.001  0.002 -0.002    0.000 -0.001 -0.001    0.029 -0.020 -0.013
 O          0.006  0.005  0.002    0.007  0.006  0.002   -0.046 -0.043 -0.016
 C         -0.047 -0.012  0.006   -0.020 -0.011  0.003   -0.000 -0.004  0.003
 H         -0.138  0.383  0.034   -0.036  0.196  0.058   -0.100  0.003 -0.107
 H          0.611  0.214 -0.004    0.268  0.113 -0.039    0.095 -0.039  0.107
 H          0.236 -0.385 -0.159    0.076 -0.166 -0.033    0.103 -0.039 -0.125
 TransDip  -0.069  0.035 -0.024    0.112 -0.059 -0.017    0.456  0.304  0.029

 Mode:                40                     41                     42
 Frequency:      1574.40                2940.96                3038.42
 Force Cnst:     14.3437                 5.4279                 5.6879
 Red. Mass:       9.8216                 1.0651                 1.0457
 IR Active:          YES                    YES                    YES
 IR Intens:     1250.357                710.936                 10.933
 Raman Active:       YES                    YES                    YES
               X      Y      Z        X      Y      Z        X      Y      Z
 C          0.572 -0.310  0.385   -0.000 -0.000  0.000    0.001 -0.000 -0.000
 O         -0.103  0.133 -0.208    0.000  0.000 -0.000   -0.000 -0.000  0.000
 O         -0.288  0.084 -0.061    0.000  0.000  0.000   -0.000  0.000 -0.000
 C         -0.021  0.032 -0.053   -0.000 -0.000 -0.000   -0.000  0.004  0.002
 H          0.033 -0.002 -0.015    0.218  0.802  0.552   -0.002 -0.004 -0.003
 H         -0.241  0.011  0.390    0.002  0.001  0.001   -0.005 -0.001 -0.001
 C          0.015 -0.012 -0.007   -0.000 -0.002 -0.002    0.023 -0.033 -0.014
 H         -0.018 -0.025 -0.006    0.002  0.014  0.003   -0.062  0.453  0.281
 H          0.009  0.037  0.007    0.000 -0.001  0.005   -0.213 -0.058 -0.112
 C         -0.012  0.008  0.003    0.001  0.007  0.006    0.000 -0.003  0.002
 O         -0.000  0.000  0.001   -0.000 -0.004 -0.005   -0.000  0.000 -0.000
 H         -0.205 -0.037  0.002   -0.001  0.000  0.001    0.008 -0.041 -0.027
 O          0.002 -0.002 -0.001    0.007 -0.002 -0.002   -0.000  0.000 -0.000
 O         -0.002 -0.001 -0.001   -0.021 -0.048 -0.031    0.000  0.000  0.000
 C          0.002 -0.001 -0.001   -0.001 -0.002 -0.001   -0.016  0.030 -0.021
 H         -0.011  0.012 -0.009    0.002  0.000 -0.002   -0.311 -0.096  0.264
 H          0.009 -0.002  0.004   -0.003  0.007  0.008    0.137 -0.411 -0.269
 H          0.006 -0.005 -0.003    0.008  0.006  0.004    0.359  0.162  0.236
 TransDip   0.827 -0.466  0.618    0.537  0.579  0.325    0.006 -0.012 -0.105

 Mode:                43                     44                     45
 Frequency:      3043.79                3062.36                3090.97
 Force Cnst:      5.7586                 5.8730                 6.1634
 Red. Mass:       1.0550                 1.0629                 1.0949
 IR Active:          YES                    YES                    YES
 IR Intens:       78.860                 42.801                 12.200
 Raman Active:       YES                    YES                    YES
               X      Y      Z        X      Y      Z        X      Y      Z
 C          0.001 -0.000 -0.000    0.000 -0.001  0.001   -0.001  0.000  0.001
 O         -0.000 -0.000  0.000   -0.000  0.000 -0.000   -0.000  0.000 -0.000
 O         -0.000  0.000 -0.000   -0.000  0.000 -0.000    0.000 -0.000  0.000
 C         -0.002  0.006  0.003    0.046 -0.050 -0.019    0.024  0.015  0.020
 H         -0.003 -0.009 -0.005   -0.001 -0.000 -0.000   -0.002 -0.004 -0.003
 H          0.006  0.001  0.006   -0.408 -0.109 -0.236   -0.315 -0.073 -0.171
 C          0.030 -0.045 -0.020    0.006 -0.003 -0.000   -0.057 -0.037 -0.044
 H         -0.083  0.614  0.380   -0.005  0.049  0.030   -0.053  0.283  0.173
 H         -0.265 -0.072 -0.139   -0.071 -0.018 -0.035    0.741  0.170  0.361
 C         -0.001  0.000 -0.000    0.001 -0.001 -0.000   -0.000 -0.001 -0.001
 O         -0.000  0.000  0.000   -0.000  0.000 -0.000    0.000  0.000 -0.000
 H          0.013 -0.065 -0.043   -0.131  0.716  0.469    0.030 -0.117 -0.078
 O          0.000 -0.000 -0.000   -0.000  0.001 -0.000   -0.000  0.000  0.000
 O          0.000  0.001  0.000   -0.000  0.000  0.000    0.000  0.000  0.000
 C          0.012 -0.021  0.018   -0.001 -0.000  0.001    0.004  0.009  0.007
 H          0.241  0.077 -0.205    0.013  0.004 -0.011   -0.008 -0.001  0.011
 H         -0.097  0.290  0.190    0.000 -0.001 -0.001    0.026 -0.074 -0.047
 H         -0.283 -0.126 -0.185   -0.005 -0.002 -0.003   -0.071 -0.030 -0.046
 TransDip   0.148 -0.242  0.017    0.111 -0.170  0.051   -0.062 -0.045 -0.082

 Mode:                46                     47                     48
 Frequency:      3112.34                3115.92                3124.06
 Force Cnst:      6.2817                 6.3026                 6.3416
 Red. Mass:       1.1007                 1.1018                 1.1028
 IR Active:          YES                    YES                    YES
 IR Intens:       14.182                134.402                 61.100
 Raman Active:       YES                    YES                    YES
               X      Y      Z        X      Y      Z        X      Y      Z
 C         -0.001  0.000 -0.002   -0.000  0.000 -0.001    0.000  0.000 -0.000
 O          0.000 -0.000  0.000    0.000 -0.000  0.000    0.000 -0.000  0.000
 O          0.000 -0.000  0.000    0.000 -0.000  0.000   -0.000 -0.000  0.000
 C         -0.044 -0.038 -0.044   -0.025 -0.023 -0.026   -0.002 -0.001 -0.001
 H          0.001  0.003  0.002   -0.006 -0.014 -0.009    0.000 -0.004 -0.002
 H          0.592  0.136  0.325    0.342  0.078  0.188    0.023  0.005  0.013
 C         -0.016 -0.013 -0.014   -0.018 -0.016 -0.016   -0.002 -0.001 -0.002
 H         -0.016  0.104  0.061   -0.022  0.135  0.081   -0.001  0.006  0.003
 H          0.204  0.046  0.102    0.240  0.054  0.118    0.032  0.008  0.014
 C         -0.000  0.001  0.000   -0.001 -0.002 -0.002   -0.002 -0.000  0.001
 O          0.000 -0.000  0.000    0.000  0.000  0.000    0.000  0.000  0.000
 H         -0.071  0.319  0.206   -0.044  0.197  0.127   -0.001  0.002  0.001
 O          0.000  0.000 -0.000    0.000  0.000  0.000    0.000  0.000 -0.000
 O         -0.000 -0.000 -0.000    0.000  0.001  0.001    0.000  0.000 -0.000
 C          0.014  0.036  0.034   -0.016 -0.052 -0.054   -0.084 -0.009  0.038
 H          0.020  0.013 -0.008   -0.078 -0.034  0.055    0.612  0.207 -0.539
 H          0.111 -0.315 -0.199   -0.169  0.482  0.304    0.070 -0.253 -0.155
 H         -0.304 -0.126 -0.197    0.444  0.184  0.286    0.332  0.149  0.237
 TransDip  -0.115  0.017 -0.033   -0.159 -0.234 -0.240   -0.228 -0.021  0.102

 STANDARD THERMODYNAMIC QUANTITIES AT   298.15 K  AND     1.00 ATM

   This Molecule has  0 Imaginary Frequencies
   Zero point vibrational energy:       83.747 kcal/mol

   Atom    1 Element C  Has Mass   12.00000
   Atom    2 Element O  Has Mass   15.99491
   Atom    3 Element O  Has Mass   15.99491
   Atom    4 Element C  Has Mass   12.00000
   Atom    5 Element H  Has Mass    1.00783
   Atom    6 Element H  Has Mass    1.00783
   Atom    7 Element C  Has Mass   12.00000
   Atom    8 Element H  Has Mass    1.00783
   Atom    9 Element H  Has Mass    1.00783
   Atom   10 Element C  Has Mass   12.00000
   Atom   11 Element O  Has Mass   15.99491
   Atom   12 Element H  Has Mass    1.00783
   Atom   13 Element O  Has Mass   15.99491
   Atom   14 Element O  Has Mass   15.99491
   Atom   15 Element C  Has Mass   12.00000
   Atom   16 Element H  Has Mass    1.00783
   Atom   17 Element H  Has Mass    1.00783
   Atom   18 Element H  Has Mass    1.00783
   Molecular Mass:   148.037190 amu
   Principal axes and moments of inertia in amu*Bohr^2:
                             1           2           3
    Eigenvalues --      674.03866  2790.74378  3103.45911
          X              -0.55292     0.83262     0.03207
          Y              -0.42775    -0.31667     0.84661
          Z               0.71506     0.45439     0.53125
   Rotational Symmetry Number is   1
   The Molecule is an Asymmetric Top
   Translational Enthalpy:        0.889 kcal/mol
   Rotational Enthalpy:           0.889 kcal/mol
   Vibrational Enthalpy:         88.560 kcal/mol
   gas constant (RT):             0.592 kcal/mol
   Translational Entropy:        40.887  cal/mol.K
   Rotational Entropy:           30.146  cal/mol.K
   Vibrational Entropy:          31.507  cal/mol.K

   Total Enthalpy:               90.930 kcal/mol
   Total Entropy:               102.541  cal/mol.K
Archival summary:
1\1\c5-66\FREQ\ProcedureUnspecified\BasisUnspecified\558(2-,1)\leeping\FriMar2022:48:512020FriMar2022:48:512020\0\\#,FREQ,ProcedureUnspecified,BasisUnspecified,\\-2,1\O\O,1,1.43233\H,2,1.01526,1,95.3085\C,1,1.52631,2,105.281,3,22.1035,0\O,4,1.3378,1,108.298,2,-31.0764,0\C,4,1.53525,1,105.499,2,90.3007,0\H,6,1.09428,4,109.382,1,-61.6195,0\H,6,1.09504,4,109.54,1,179.605,0\H,6,1.09523,4,111.757,1,59.1349,0\C,4,1.53596,1,102.489,2,-154.038,0\H,10,1.0955,4,107.238,1,-167.253,0\H,10,1.09826,4,108.782,1,-52.61,0\C,10,1.52082,4,114.35,1,70.9261,0\H,13,1.09372,10,110.759,4,-61.6865,0\H,13,1.09688,10,109.242,4,54.7669,0\C,13,1.53565,10,115.619,4,174.965,0\O,16,1.25898,13,118.713,10,-21.8881,0\O,16,1.26265,13,116.326,10,159.721,0\\\@

 Total job time:  38121.64s(wall), 541060.28s(cpu) 
 Fri Mar 20 22:48:51 2020

        *************************************************************
        *                                                           *
        *  Thank you very much for using Q-Chem.  Have a nice day.  *
        *                                                           *
        *************************************************************


