
Running Job 1 of 1 qc-freq1.in
qchem qc-freq1.in_19055.0 /scratch/leeping/1862669/qc-freq1.d/ 1
/home/leeping/opt/qchem/5.0.2-openmp/exe/qcprog.exe_s qc-freq1.in_19055.0 /scratch/leeping/1862669/qc-freq1.d/
Check license passed

                  Welcome to Q-Chem
     A Quantum Leap Into The Future Of Chemistry


 Q-Chem 5.0, Q-Chem, Inc., Pleasanton, CA (2017)

 Yihan Shao,  Zhengting Gan,  E. Epifanovsky,  A. T. B. Gilbert,  M. Wormit,  
 J. Kussmann,  A. W. Lange,  A. Behn,  Jia Deng,  Xintian Feng,  D. Ghosh,  
 M. Goldey,  P. R. Horn,  L. D. Jacobson,  I. Kaliman,  T. Kus,  A. Landau,  
 Jie Liu,  E. I. Proynov,  R. M. Richard,  R. P. Steele,  E. J. Sundstrom,  
 H. L. Woodcock III,  P. M. Zimmerman,  D. Zuev,  B. Albrecht,  E. Alguire,  
 S. A. Baeppler,  D. Barton,  Z. Benda,  Y. A. Bernard,  E. J. Berquist,  
 K. B. Bravaya,  H. Burton,  D. Casanova,  Chun-Min Chang,  Yunqing Chen,  
 A. Chien,  K. D. Closser,  M. P. Coons,  S. Dasgupta,  A. L. Dempwolff,  
 M. Diedenhofen,  Hainam Do,  R. G. Edgar,  Po-Tung Fang,  S. Fatehi,  
 Qingguo Feng,  J. Fosso-Tande,  Qinghui Ge,  A. Ghysels,  G. Gidofalvi,  
 J. Gomes,  J. Gonthier,  A. Gunina,  M. W. D. Hanson-Heine,  
 P. H. P. Harbach,  A. W. Hauser,  J. E. Herr,  E. G. Hohenstein,  
 Z. C. Holden,  Kerwin Hui,  T.-C. Jagau,  Hyunjun Ji,  B. Kaduk,  
 K. Khistyaev,  Jaehoon Kim,  P. Klunzinger,  K. Koh,  D. Kosenkov,  
 L. Koulias,  T. Kowalczyk,  C. M. Krauter,  A. Kunitsa,  Ka Un Lao,  
 A. Laurent,  K. V. Lawler,  Joonho Lee,  D. Lefrancois,  S. Lehtola,  
 D. S. Levine,  Yi-Pei Li,  You-Sheng Lin,  Fenglai Liu,  E. Livshits,  
 A. Luenser,  P. Manohar,  E. Mansoor,  S. F. Manzer,  Shan-Ping Mao,  
 Yuezhi Mao,  N. Mardirossian,  A. V. Marenich,  T. Markovich,  
 L. A. Martinez-Martinez,  S. A. Maurer,  N. J. Mayhall,  S. C. McKenzie,  
 J.-M. Mewes,  A. F. Morrison,  J. W. Mullinax,  K. Nanda,  
 T. S. Nguyen-Beck,  R. Olivares-Amaya,  J. A. Parkhill,  T. M. Perrine,  
 F. Plasser,  S. Prager,  A. Prociuk,  E. Ramos,  D. R. Rehn,  F. Rob,  
 M. Schneider,  N. Sergueev,  S. M. Sharada,  S. Sharma,  D. W. Small,  
 T. Stauch,  T. Stein,  Yu-Chuan Su,  A. J. W. Thom,  A. Tkatchenko,  
 T. Tsuchimochi,  L. Vogt,  O. Vydrov,  M. A. Watson,  J. Wenzel,  
 M. de Wergifosse,  T. A. Wesolowski,  A. White,  J. Witte,  A. Yamada,  
 Jun Yang,  K. Yao,  S. Yeganeh,  S. R. Yost,  Zhi-Qiang You,  A. Zech,  
 Igor Ying Zhang,  Xing Zhang,  Yan Zhao,  Ying Zhu,  B. R. Brooks,  
 G. K. L. Chan,  C. J. Cramer,  M. S. Gordon,  W. J. Hehre,  A. Klamt,  
 M. W. Schmidt,  C. D. Sherrill,  D. G. Truhlar,  A. Aspuru-Guzik,  R. Baer,  
 A. T. Bell,  N. A. Besley,  Jeng-Da Chai,  R. A. DiStasio Jr.,  A. Dreuw,  
 B. D. Dunietz,  T. R. Furlani,  Chao-Ping Hsu,  Yousung Jung,  Jing Kong,  
 D. S. Lambrecht,  WanZhen Liang,  C. Ochsenfeld,  V. A. Rassolov,  
 L. V. Slipchenko,  J. E. Subotnik,  T. Van Voorhis,  J. M. Herbert,  
 A. I. Krylov,  P. M. W. Gill,  M. Head-Gordon

 Contributors to earlier versions of Q-Chem not listed above: 
 R. D. Adamson,  B. Austin,  J. Baker,  G. J. O. Beran,  K. Brandhorst,  
 S. T. Brown,  E. F. C. Byrd,  A. K. Chakraborty,  C.-L. Cheng,  
 Siu Hung Chien,  D. M. Chipman,  D. L. Crittenden,  H. Dachsel,  
 R. J. Doerksen,  A. D. Dutoi,  L. Fusti-Molnar,  W. A. Goddard III,  
 A. Golubeva-Zadorozhnaya,  S. R. Gwaltney,  G. Hawkins,  A. Heyden,  
 S. Hirata,  G. Kedziora,  F. J. Keil,  C. Kelley,  Jihan Kim,  R. A. King,  
 R. Z. Khaliullin,  P. P. Korambath,  W. Kurlancheek,  A. M. Lee,  M. S. Lee,  
 S. V. Levchenko,  Ching Yeh Lin,  D. Liotard,  R. C. Lochan,  I. Lotan,  
 P. E. Maslen,  N. Nair,  D. P. O'Neill,  D. Neuhauser,  E. Neuscamman,  
 C. M. Oana,  R. Olson,  B. Peters,  R. Peverati,  P. A. Pieniazek,  
 Y. M. Rhee,  J. Ritchie,  M. A. Rohrdanz,  E. Rosta,  N. J. Russ,  
 H. F. Schaefer III,  N. E. Schultz,  N. Shenvi,  A. C. Simmonett,  A. Sodt,  
 D. Stuck,  K. S. Thanthiriwatte,  V. Vanovschi,  Tao Wang,  A. Warshel,  
 C. F. Williams,  Q. Wu,  X. Xu,  W. Zhang

 Please cite Q-Chem as follows:
 Y. Shao et al., Mol. Phys. 113, 184-215 (2015)
 DOI: 10.1080/00268976.2014.952696

 Q-Chem 5.0.2 for Intel X86 EM64T Linux

 Parts of Q-Chem use Armadillo 5.200.1 (Boston Tea Smuggler).
 http://arma.sourceforge.net/

 Q-Chem begins on Fri Mar 20 12:13:26 2020  

Host: 
0

     Scratch files written to /scratch/leeping/1862669/qc-freq1.d//
 Dec517 15110_ 26548  26544 5633   
Processing $rem in /home/leeping/opt/qchem/5.0.2-openmp/config/preferences.
 MEM_STATIC 2000
 MEM_TOTAL  8000
 SYMMETRY   OFF
 SYM_IGNORE TRUE 
Symmetry turned off for PCM/SM12/SMD calculation

Checking the input file for inconsistencies... 	...done.

--------------------------------------------------------------
User input:
--------------------------------------------------------------
$molecule
-2 1
C        1.0650252415    1.5173815797   -2.5368314245
O        0.6412437425    2.1186436062   -3.5608830279
O        2.2716169453    1.4120486493   -2.1999346899
C       -0.0081087322    0.8792521689   -1.6403357560
H       -1.9990384762    0.2307216395    1.6885144885
H       -0.6493041057    0.2645946988   -2.2819309755
C        0.5330046991    0.0568884832   -0.4792064716
H        1.1159491570   -0.7918724810   -0.8463435896
H        1.1881708243    0.6649354954    0.1505799148
C       -0.5838330331   -0.4891280781    0.4546156287
O       -1.3803393071   -1.3131925969   -0.2797779616
H       -0.6400789036    1.6909453888   -1.2647137577
O       -1.2590791315    0.5810411672    1.0328361550
O       -3.0512585563   -0.1980840732    2.6349604196
C        0.0650177696   -1.3913708655    1.5424887371
H       -0.7145659662   -1.7922204272    2.1941269363
H        0.6235521724   -2.2104620549    1.0865123110
H        0.7399879908   -0.7653961527    2.1307441888
$end

$rem
jobtype               freq
method                wb97x-v
basis                 def2-tzvpd
symmetry              off
sym_ignore            true
unrestricted          true
incdft                false
incfock               0
!scf_algorithm        diis_gdm
scf_convergence       8
thresh                14
!purecart             112
max_scf_cycles        1000
geom_opt_max_cycles   500
geom_opt_dmax         100
geom_opt_tol_gradient 10
solvent_method        pcm
ideriv                1
rpath_tol_displacement 1000
rpath_max_cycles      100
rpath_direction       1
scf_guess             read
$end

$pcm
theory              cosmo
method              iswig
Radii               bondi
vdwScale            1.20
hpoints             110
heavypoints         110
$end

$solvent
dielectric 78.400000
$end

--------------------------------------------------------------
 ----------------------------------------------------------------
             Standard Nuclear Orientation (Angstroms)
    I     Atom           X                Y                Z
 ----------------------------------------------------------------
    1      C       1.0650252415     1.5173815797    -2.5368314245
    2      O       0.6412437425     2.1186436062    -3.5608830279
    3      O       2.2716169453     1.4120486493    -2.1999346899
    4      C      -0.0081087322     0.8792521689    -1.6403357560
    5      H      -1.9990384762     0.2307216395     1.6885144885
    6      H      -0.6493041057     0.2645946988    -2.2819309755
    7      C       0.5330046991     0.0568884832    -0.4792064716
    8      H       1.1159491570    -0.7918724810    -0.8463435896
    9      H       1.1881708243     0.6649354954     0.1505799148
   10      C      -0.5838330331    -0.4891280781     0.4546156287
   11      O      -1.3803393071    -1.3131925969    -0.2797779616
   12      H      -0.6400789036     1.6909453888    -1.2647137577
   13      O      -1.2590791315     0.5810411672     1.0328361550
   14      O      -3.0512585563    -0.1980840732     2.6349604196
   15      C       0.0650177696    -1.3913708655     1.5424887371
   16      H      -0.7145659662    -1.7922204272     2.1941269363
   17      H       0.6235521724    -2.2104620549     1.0865123110
   18      H       0.7399879908    -0.7653961527     2.1307441888
 ----------------------------------------------------------------
 Nuclear Repulsion Energy =   523.5287521672 hartrees
 There are       40 alpha and       40 beta electrons
 Requested basis set is def2-TZVPD
 There are 175 shells and 457 basis functions

 Total QAlloc Memory Limit   8000 MB
 Mega-Array Size      1956 MB
 MEM_STATIC part      2000 MB
 Discretize the solute cavity surface with Lebedev spheres
	Using 110 Lebedev grid points for each H atom
	Using 110 Lebedev grid points for other atoms
	Atomic van der Waals radii will be scaled by 1.20
 Remove points where switching function is < 1.0e-08
 Keep 1086 surface tesserae and discard 894 interior tesserae
 Molecular Surface Area = 200.611 Angst**2
 A cutoff of  1.0D-14 yielded  13862 shell pairs
 There are     94248 function pairs (    119681 Cartesian)
 
 -------------------------------------------------------
 OpenMP Integral Computing Module                       
 Release: version 1.0, May 2013, Q-Chem Inc. Pittsburgh 
 -------------------------------------------------------
 Integral Job Info:
 Integral job number is                      11
 Integral operator is                         1
 short-range coefficients              16700000
 long-range coefficients              100000000
 Omega coefficients                         300
 if combine SR and LR in K                    1
 Integral screening is                        0
 Integral computing path is                   2
 max size of driver memory is            800000
 size of driver memory is                776718
 size of scratch memory is              4473992
 max col of scratch BK array              10000
 max len of scratch array in speh3          662
 max len of scratch index in speh4           32
 max int batch size is                      520
 min int batch size is                       52
 fixed nKL is                                52
 max L of basis functions is                  3
 order of int derivative is                   0
 number of shells is                        175
 number of basis is                         517
 number of cartesian basis is               517
 number of contracted shell pairs         13862
 number of primitive shell pairs          28079
 maxK2 (contraction) of shell pair           36
 max number of K2 of shell pair               1
 max number of CS2 of shell pair           2300
 max number of PS2 of shell pair           3156
 mem total for path MDJ                  769904
 -------------------------------------------------------
 Smallest overlap matrix eigenvalue = 3.21E-06
 Guess MOs from SCF MO coefficient file
 Reading MOs from coefficient file
 Reading MOs from coefficient file
 Long-range K will be added via erf
 Coulomb attenuation parameter = 0.3 bohr**(-1)
 An unrestricted hybrid HF-DFT SCF calculation will be
 performed using Pulay DIIS extrapolation
 Polarizable Continuum solvation model will be applied
 Exchange:     0.1670 Hartree-Fock + 1.0000 wB97X-V + LR-HF
 Correlation:  1.0000 wB97X-V
 Using SG-2 standard quadrature grid
 Nonlocal Correlation:  VV10 with C = 0.0100 and b = 6.00
 Grid used for NLC:  SG-1 standard quadrature
 SCF converges when DIIS error is below 1.0E-08
Using Q-Chem read-in guess as SCF_GUESS READ specified.

 using 16 threads for integral computing
 -------------------------------------------------------
 OpenMP Integral computing Module                
 Release: version 1.0, May 2013, Q-Chem Inc. Pittsburgh 
 -------------------------------------------------------
 using 16 threads for integral computing
 -------------------------------------------------------
 OpenMP Integral computing Module                
 Release: version 1.0, May 2013, Q-Chem Inc. Pittsburgh 
 -------------------------------------------------------
 -------------------------------------------------------
 OpenMP BLAS3 based DFT computing Module                
 Release: version 1.0, May 2013, Q-Chem Inc. Pittsburgh 
 -------------------------------------------------------
 -------------------------------------------------------
 OpenMP BLAS3 based DFT computing Module                
 Release: version 1.0, May 2013, Q-Chem Inc. Pittsburgh 
 -------------------------------------------------------
 -------------------------------------------------------
 OpenMP BLAS3 based DFT computing Module                
 Release: version 1.0, May 2013, Q-Chem Inc. Pittsburgh 
 -------------------------------------------------------
 ---------------------------------------
  Cycle       Energy         DIIS Error
 ---------------------------------------
    1    -571.3778647937      3.23E-04
    2    -571.6695309530      3.27E-04
    3    -571.6737950939      1.56E-04
    4    -571.6745096963      1.16E-04
    5    -571.6749801015      8.71E-05
    6    -571.6752121743      6.92E-05
    7    -571.6753809236      5.26E-05
    8    -571.6754856612      3.89E-05
    9    -571.6755472084      2.79E-05
   10    -571.6755790505      1.99E-05
   11    -571.6755976831      1.33E-05
   12    -571.6756050206      9.42E-06
   13    -571.6756072744      7.90E-06
   14    -571.6756081010      7.27E-06
   15    -571.6756084014      7.04E-06
   16    -571.6756090457      6.49E-06
   17    -571.6756126881      5.90E-08
   18    -571.6756126987      3.54E-08
   19    -571.6756126998      2.39E-08
   20    -571.6756127006      1.90E-08
   21    -571.6756127008      1.62E-08
   22    -571.6756127011      1.54E-08
   23    -571.6756127013      1.51E-08
   24    -571.6756127016      1.47E-08
   25    -571.6756127023      1.42E-08
   26    -571.6756127040      1.29E-08
   27    -571.6756127051      1.24E-08
   28    -571.6756127054      1.23E-08
   29    -571.6756127057      1.22E-08
   30    -571.6756127061      1.20E-08
   31    -571.6756127082      1.13E-08
   32    -571.6756127147      8.78E-09 Convergence criterion met
 ---------------------------------------

************** Final PCM Free Energy Summary **************
 G_electrostatic  =      -0.29775217 hartree =    -186.84230748 kcal/mol
 G_cavitation     =       0.00000000 hartree =       0.00000000 kcal/mol
 G_dispersion     =       0.00000000 hartree =       0.00000000 kcal/mol
 G_repulsion      =       0.00000000 hartree =       0.00000000 kcal/mol
 --------------------------------------------------
 Non-electrostatic Free Energy =       0.00000000 hartree =       0.00000000 kcal/mol
 Total                         =      -0.29775217 hartree =    -186.84230748 kcal/mol
 --------------------------------------------------
 SCF Energy (H0 + V/2)                       =    -571.67561271 
 Solute Internal Energy (H0)                 =    -571.37786054 
 Total Free Energy (H0 + V/2 + non-elec)     =    -571.67561271 hartree
                                             = -358731.86131819 kcal/mol
***********************************************************

 <S^2> = 1.0081
 SCF time:  CPU 8561.84 s  wall 606.79 s
 SCF   energy in the final basis set = -571.67561271
 Total energy in the final basis set = -571.67561271
 
 --------------------------------------------------------------
 
                    Orbital Energies (a.u.)
 --------------------------------------------------------------
 
 Alpha MOs
 -- Occupied --
-19.225 -19.168 -19.156 -19.141 -19.138 -10.359 -10.341 -10.260
-10.258 -10.249  -1.156  -1.143  -1.065  -1.049  -0.971  -0.895
 -0.845  -0.764  -0.667  -0.609  -0.595  -0.562  -0.554  -0.548
 -0.527  -0.509  -0.499  -0.484  -0.478  -0.448  -0.441  -0.428
 -0.416  -0.380  -0.366  -0.352  -0.347  -0.343  -0.335  -0.329
 -- Virtual --
 -0.046   0.060   0.074   0.083   0.087   0.099   0.102   0.110
  0.122   0.126   0.129   0.132   0.144   0.148   0.154   0.162
  0.170   0.174   0.181   0.187   0.194   0.203   0.211   0.219
  0.226   0.232   0.239   0.242   0.254   0.268   0.268   0.271
  0.274   0.282   0.288   0.295   0.309   0.313   0.319   0.322
  0.332   0.335   0.343   0.345   0.350   0.357   0.359   0.369
  0.382   0.386   0.389   0.390   0.394   0.400   0.405   0.410
  0.414   0.421   0.425   0.427   0.432   0.437   0.443   0.451
  0.459   0.469   0.472   0.474   0.484   0.490   0.496   0.497
  0.500   0.509   0.514   0.519   0.527   0.538   0.541   0.543
  0.553   0.555   0.562   0.570   0.576   0.578   0.586   0.590
  0.597   0.601   0.607   0.611   0.620   0.624   0.638   0.646
  0.649   0.655   0.665   0.670   0.674   0.685   0.693   0.700
  0.707   0.710   0.718   0.727   0.734   0.739   0.750   0.754
  0.763   0.767   0.779   0.784   0.791   0.794   0.801   0.806
  0.812   0.823   0.824   0.836   0.844   0.847   0.852   0.856
  0.861   0.866   0.875   0.881   0.895   0.903   0.908   0.918
  0.926   0.941   0.945   0.948   0.965   0.995   1.011   1.016
  1.028   1.045   1.047   1.061   1.067   1.080   1.092   1.111
  1.119   1.136   1.146   1.153   1.168   1.175   1.186   1.200
  1.220   1.225   1.231   1.238   1.261   1.272   1.289   1.309
  1.313   1.332   1.348   1.363   1.371   1.390   1.407   1.417
  1.435   1.458   1.472   1.479   1.510   1.531   1.552   1.571
  1.586   1.624   1.643   1.663   1.707   1.752   1.799   1.835
  1.840   1.880   1.887   1.896   1.911   1.915   1.923   1.927
  1.937   1.950   1.950   1.959   1.966   1.990   1.994   2.015
  2.028   2.030   2.046   2.056   2.074   2.085   2.101   2.130
  2.145   2.163   2.180   2.209   2.223   2.250   2.265   2.290
  2.298   2.328   2.341   2.353   2.356   2.375   2.417   2.429
  2.446   2.457   2.467   2.475   2.489   2.497   2.517   2.532
  2.564   2.575   2.616   2.636   2.647   2.681   2.685   2.738
  2.749   2.762   2.770   2.792   2.853   2.860   2.877   2.888
  2.908   2.930   2.942   2.973   2.976   2.987   2.994   3.015
  3.026   3.060   3.088   3.094   3.106   3.127   3.150   3.219
  3.228   3.243   3.252   3.270   3.277   3.294   3.319   3.329
  3.348   3.378   3.392   3.417   3.433   3.446   3.450   3.470
  3.476   3.494   3.526   3.543   3.551   3.574   3.589   3.605
  3.616   3.623   3.644   3.656   3.663   3.665   3.677   3.695
  3.711   3.727   3.743   3.749   3.766   3.797   3.807   3.815
  3.825   3.851   3.886   3.900   3.937   3.991   4.018   4.049
  4.094   4.112   4.162   4.225   4.246   4.268   4.278   4.347
  4.427   4.446   4.484   4.560   4.600   4.655   4.710   4.739
  4.752   4.782   4.824   4.831   4.885   4.989   5.038   5.060
  5.074   5.235   5.272   5.282   5.288   5.302   5.309   5.310
  5.325   5.342   5.350   5.364   5.366   5.391   5.400   5.464
  5.504   5.508   5.562   5.574   5.638   5.705   5.715   5.728
  5.784   5.823   6.009   6.078   6.087   6.138   6.246   6.312
  6.314   6.340   6.371   6.486   6.529   6.541   6.564   6.623
  6.629   6.638   6.697   6.704   6.741   6.759   6.776   6.827
  6.956   6.965   6.970   6.992   7.053   7.093   7.183   7.238
  7.255   7.334   7.365   7.402   7.414   7.443   7.578  22.700
 22.884  22.957  23.163  23.745  43.798  44.274  44.426  44.437
 44.616
 
 Beta MOs
 -- Occupied --
-19.243 -19.168 -19.141 -19.138 -19.137 -10.359 -10.341 -10.262
-10.260 -10.249  -1.180  -1.143  -1.088  -1.049  -0.906  -0.893
 -0.853  -0.769  -0.673  -0.615  -0.603  -0.579  -0.558  -0.553
 -0.529  -0.518  -0.511  -0.489  -0.484  -0.461  -0.450  -0.430
 -0.416  -0.392  -0.368  -0.347  -0.336  -0.331  -0.326  -0.317
 -- Virtual --
  0.015   0.060   0.074   0.083   0.087   0.099   0.103   0.110
  0.123   0.126   0.129   0.135   0.146   0.152   0.154   0.161
  0.170   0.175   0.181   0.187   0.195   0.203   0.211   0.219
  0.226   0.232   0.239   0.241   0.254   0.267   0.268   0.270
  0.274   0.281   0.287   0.295   0.309   0.313   0.317   0.323
  0.331   0.334   0.342   0.344   0.350   0.358   0.360   0.368
  0.382   0.385   0.388   0.391   0.392   0.399   0.405   0.410
  0.413   0.417   0.424   0.428   0.429   0.438   0.444   0.453
  0.459   0.468   0.471   0.473   0.483   0.491   0.494   0.496
  0.499   0.508   0.515   0.519   0.527   0.538   0.540   0.542
  0.551   0.555   0.563   0.570   0.577   0.579   0.587   0.590
  0.598   0.602   0.607   0.611   0.620   0.624   0.637   0.646
  0.650   0.655   0.665   0.669   0.674   0.684   0.693   0.699
  0.705   0.709   0.717   0.727   0.733   0.739   0.751   0.754
  0.762   0.766   0.778   0.783   0.790   0.794   0.800   0.806
  0.811   0.822   0.823   0.835   0.844   0.846   0.853   0.856
  0.860   0.865   0.875   0.883   0.895   0.902   0.907   0.919
  0.926   0.942   0.944   0.948   0.969   0.999   1.014   1.016
  1.030   1.045   1.047   1.064   1.070   1.080   1.091   1.108
  1.115   1.136   1.145   1.152   1.166   1.174   1.185   1.200
  1.215   1.224   1.230   1.238   1.260   1.270   1.289   1.311
  1.318   1.332   1.347   1.361   1.370   1.389   1.403   1.414
  1.434   1.454   1.471   1.479   1.509   1.530   1.550   1.569
  1.584   1.623   1.641   1.662   1.706   1.752   1.800   1.837
  1.847   1.871   1.902   1.914   1.919   1.922   1.933   1.944
  1.947   1.951   1.959   1.966   1.969   1.987   1.996   2.013
  2.027   2.028   2.044   2.053   2.069   2.080   2.100   2.128
  2.139   2.159   2.173   2.205   2.221   2.248   2.261   2.288
  2.296   2.325   2.341   2.349   2.355   2.375   2.415   2.426
  2.445   2.456   2.464   2.473   2.489   2.497   2.517   2.531
  2.564   2.573   2.614   2.636   2.645   2.679   2.684   2.736
  2.747   2.760   2.769   2.789   2.852   2.856   2.877   2.885
  2.909   2.929   2.943   2.970   2.977   2.985   2.996   3.014
  3.059   3.082   3.091   3.097   3.108   3.145   3.149   3.216
  3.219   3.229   3.250   3.270   3.287   3.292   3.320   3.327
  3.347   3.377   3.392   3.415   3.431   3.445   3.450   3.468
  3.473   3.492   3.526   3.542   3.549   3.575   3.586   3.604
  3.615   3.621   3.639   3.655   3.658   3.664   3.676   3.692
  3.711   3.725   3.737   3.744   3.769   3.795   3.805   3.811
  3.822   3.846   3.881   3.894   3.933   3.983   4.016   4.046
  4.092   4.111   4.160   4.220   4.244   4.266   4.276   4.345
  4.432   4.445   4.482   4.558   4.598   4.652   4.708   4.736
  4.751   4.779   4.823   4.831   4.882   4.985   5.033   5.055
  5.066   5.231   5.263   5.302   5.309   5.327   5.340   5.345
  5.347   5.353   5.357   5.364   5.374   5.389   5.399   5.454
  5.504   5.510   5.545   5.562   5.641   5.698   5.715   5.728
  5.783   5.813   6.009   6.045   6.076   6.129   6.246   6.301
  6.314   6.339   6.364   6.502   6.605   6.618   6.623   6.625
  6.637   6.651   6.672   6.681   6.700   6.753   6.774   6.826
  6.952   6.962   6.970   6.985   7.051   7.060   7.183   7.234
  7.254   7.307   7.365   7.402   7.413   7.442   7.576  22.698
 22.883  22.956  23.163  23.745  43.822  44.274  44.417  44.427
 44.614
 --------------------------------------------------------------
 
          Ground-State Mulliken Net Atomic Charges

     Atom                 Charge (a.u.)    Spin (a.u.)
  --------------------------------------------------------
      1 C                     0.040164      -0.001768
      2 O                    -0.708639      -0.001256
      3 O                    -0.688615      -0.001111
      4 C                    -0.366755      -0.008880
      5 H                     0.269700      -0.004473
      6 H                     0.264663       0.002263
      7 C                    -0.495708      -0.067796
      8 H                     0.237410       0.000995
      9 H                     0.230560      -0.007369
     10 C                     1.098708       0.053437
     11 O                    -0.416829      -0.847988
     12 H                     0.236108      -0.002185
     13 O                    -0.536534       0.002008
     14 O                    -0.836214       1.005458
     15 C                    -1.123989      -0.119283
     16 H                     0.276970       0.004647
     17 H                     0.265643       0.002823
     18 H                     0.253359      -0.009521
  --------------------------------------------------------
  Sum of atomic charges =    -2.000000
  Sum of spin   charges =    -0.000000

 -----------------------------------------------------------------
                    Cartesian Multipole Moments
 -----------------------------------------------------------------
    Charge (ESU x 10^10)
                -9.6064
    Dipole Moment (Debye)
         X       6.5473      Y      -8.8738      Z       5.5728
       Tot      12.3559
    Quadrupole Moments (Debye-Ang)
        XX    -122.2027     XY     -16.8961     YY     -86.8668
        XZ      50.9647     YZ      29.2682     ZZ    -139.5464
    Octopole Moments (Debye-Ang^2)
       XXX     112.6068    XXY     -35.1467    XYY       0.9738
       YYY     -91.7492    XXZ     -28.4297    XYZ      32.7859
       YYZ      88.9722    XZZ      44.1604    YZZ    -124.7334
       ZZZ     181.0146
    Hexadecapole Moments (Debye-Ang^3)
      XXXX   -1393.6928   XXXY    -248.2035   XXYY    -320.4989
      XYYY    -194.7908   YYYY    -713.0620   XXXZ     809.1835
      XXYZ     204.3691   XYYZ     200.7925   YYYZ     480.6237
      XXZZ    -804.9149   XYZZ    -164.7590   YYZZ    -605.5990
      XZZZ     796.6478   YZZZ     736.6021   ZZZZ   -2405.3402
 -----------------------------------------------------------------
 Calculating analytic gradient of the SCF energy
 Gradient of SCF Energy
            1           2           3           4           5           6
    1   0.0364370   0.0089406  -0.0562773  -0.0756681   0.0228154   0.0279850
    2   0.0101754  -0.0264325   0.0050527   0.0195153  -0.0074002   0.0310266
    3  -0.0243957   0.0458371  -0.0118761   0.0170751  -0.0341962   0.0357872
            7           8           9          10          11          12
    1   0.1005746  -0.0251540  -0.0346183  -0.0695996   0.0170412   0.0311187
    2  -0.0424060   0.0488058  -0.0427146   0.0409154   0.0149168  -0.0455327
    3   0.0088788   0.0274774  -0.0392081  -0.0362319   0.0104271  -0.0267133
           13          14          15          16          17          18
    1  -0.0046863  -0.0087620   0.0578155   0.0589838  -0.0379484  -0.0489977
    2   0.0083676  -0.0014852  -0.0444030   0.0274038   0.0539498  -0.0497550
    3   0.0009010   0.0028925   0.0685358  -0.0448813   0.0354426  -0.0357520
 Max gradient component =       1.006E-01
 RMS gradient           =       3.852E-02
 Computing fast CPCM-ISWIG gradient
 Updating gradient with PCM contributions...
 -- total gradient after adding PCM contribution --
---------------------------------------------------
  Atom         X              Y              Z     
---------------------------------------------------
   1      -0.000018      -0.000002      -0.000000
   2       0.000002       0.000004       0.000010
   3       0.000012      -0.000006      -0.000001
   4       0.000007       0.000028      -0.000009
   5      -0.000008      -0.000004       0.000009
   6       0.000006      -0.000005      -0.000002
   7       0.000001      -0.000004       0.000022
   8      -0.000003       0.000000       0.000001
   9      -0.000003       0.000006       0.000001
  10       0.000044      -0.000096      -0.000051
  11       0.000005       0.000020       0.000011
  12      -0.000006      -0.000009      -0.000001
  13      -0.000037       0.000053       0.000022
  14      -0.000001      -0.000002      -0.000014
  15      -0.000009       0.000015       0.000004
  16       0.000005       0.000002       0.000000
  17       0.000001      -0.000001      -0.000001
  18       0.000002      -0.000001      -0.000000
---------------------------------------------------
 Number of fixed atoms: 0
 Gradient time:  CPU 862.71 s  wall 62.35 s
 ######################################################
 ######################################################
 # Starting finite difference calculation for IDERIV  #
 Finite diff step size:  1.88973e-03 a.u.
 ----------------------------------------------------------------
             Standard Nuclear Orientation (Angstroms)
    I     Atom           X                Y                Z
 ----------------------------------------------------------------
    1      C       1.0660252415     1.5173815797    -2.5368314245
    2      O       0.6412437425     2.1186436062    -3.5608830279
    3      O       2.2716169453     1.4120486493    -2.1999346899
    4      C      -0.0081087322     0.8792521689    -1.6403357560
    5      H      -1.9990384762     0.2307216395     1.6885144885
    6      H      -0.6493041057     0.2645946988    -2.2819309755
    7      C       0.5330046991     0.0568884832    -0.4792064716
    8      H       1.1159491570    -0.7918724810    -0.8463435896
    9      H       1.1881708243     0.6649354954     0.1505799148
   10      C      -0.5838330331    -0.4891280781     0.4546156287
   11      O      -1.3803393071    -1.3131925969    -0.2797779616
   12      H      -0.6400789036     1.6909453888    -1.2647137577
   13      O      -1.2590791315     0.5810411672     1.0328361550
   14      O      -3.0512585563    -0.1980840732     2.6349604196
   15      C       0.0650177696    -1.3913708655     1.5424887371
   16      H      -0.7145659662    -1.7922204272     2.1941269363
   17      H       0.6235521724    -2.2104620549     1.0865123110
   18      H       0.7399879908    -0.7653961527     2.1307441888
 ----------------------------------------------------------------
 Nuclear Repulsion Energy =   523.5289668574 hartrees
 There are       40 alpha and       40 beta electrons
 Discretize the solute cavity surface with Lebedev spheres
	Using 110 Lebedev grid points for each H atom
	Using 110 Lebedev grid points for other atoms
	Atomic van der Waals radii will be scaled by 1.20
 Remove points where switching function is < 1.0e-08
 Keep 1087 surface tesserae and discard 893 interior tesserae
 Molecular Surface Area = 200.613 Angst**2
 Requested basis set is def2-TZVPD
 There are 175 shells and 457 basis functions
 A cutoff of  1.0D-14 yielded  13862 shell pairs
 There are     94248 function pairs (    119681 Cartesian)
 Smallest overlap matrix eigenvalue = 3.21E-06
 Guess MOs from SCF MO coefficient file
 Reading MOs from coefficient file
 Reading MOs from coefficient file
 Long-range K will be added via erf
 Coulomb attenuation parameter = 0.3 bohr**(-1)
 An unrestricted hybrid HF-DFT SCF calculation will be
 performed using Pulay DIIS extrapolation
 Polarizable Continuum solvation model will be applied
 Exchange:     0.1670 Hartree-Fock + 1.0000 wB97X-V + LR-HF
 Correlation:  1.0000 wB97X-V
 Using SG-2 standard quadrature grid
 Nonlocal Correlation:  VV10 with C = 0.0100 and b = 6.00
 Grid used for NLC:  SG-1 standard quadrature
 SCF converges when DIIS error is below 1.0E-08
Using Q-Chem read-in guess as SCF_GUESS READ specified.

 using 16 threads for integral computing
 -------------------------------------------------------
 OpenMP Integral computing Module                
 Release: version 1.0, May 2013, Q-Chem Inc. Pittsburgh 
 -------------------------------------------------------
 using 16 threads for integral computing
 -------------------------------------------------------
 OpenMP Integral computing Module                
 Release: version 1.0, May 2013, Q-Chem Inc. Pittsburgh 
 -------------------------------------------------------
 -------------------------------------------------------
 OpenMP BLAS3 based DFT computing Module                
 Release: version 1.0, May 2013, Q-Chem Inc. Pittsburgh 
 -------------------------------------------------------
 -------------------------------------------------------
 OpenMP BLAS3 based DFT computing Module                
 Release: version 1.0, May 2013, Q-Chem Inc. Pittsburgh 
 -------------------------------------------------------
 -------------------------------------------------------
 OpenMP BLAS3 based DFT computing Module                
 Release: version 1.0, May 2013, Q-Chem Inc. Pittsburgh 
 -------------------------------------------------------
 ---------------------------------------
  Cycle       Energy         DIIS Error
 ---------------------------------------
    1    -571.3784024197      3.23E-04
    2    -571.6695272482      3.27E-04
    3    -571.6737964850      1.56E-04
    4    -571.6745131216      1.16E-04
    5    -571.6749939745      8.60E-05
    6    -571.6752550348      6.53E-05
    7    -571.6754596700      4.24E-05
    8    -571.6755676371      2.26E-05
    9    -571.6756025565      1.00E-05
   10    -571.6756098136      3.93E-06
   11    -571.6756109477      1.70E-06
   12    -571.6756111682      9.88E-07
   13    -571.6756112435      7.59E-07
   14    -571.6756112798      6.98E-07
   15    -571.6756113105      6.47E-07
   16    -571.6756113719      4.61E-07
   17    -571.6756114350      5.68E-08
   18    -571.6756114465      3.65E-08
   19    -571.6756114475      2.05E-08
   20    -571.6756114480      1.48E-08
   21    -571.6756114481      1.26E-08
   22    -571.6756114483      1.17E-08
   23    -571.6756114484      1.14E-08
   24    -571.6756114486      1.11E-08
   25    -571.6756114491      1.02E-08
   26    -571.6756114498      9.40E-09 Convergence criterion met
 ---------------------------------------

************** Final PCM Free Energy Summary **************
 G_electrostatic  =      -0.29773211 hartree =    -186.82971996 kcal/mol
 G_cavitation     =       0.00000000 hartree =       0.00000000 kcal/mol
 G_dispersion     =       0.00000000 hartree =       0.00000000 kcal/mol
 G_repulsion      =       0.00000000 hartree =       0.00000000 kcal/mol
 --------------------------------------------------
 Non-electrostatic Free Energy =       0.00000000 hartree =       0.00000000 kcal/mol
 Total                         =      -0.29773211 hartree =    -186.82971996 kcal/mol
 --------------------------------------------------
 SCF Energy (H0 + V/2)                       =    -571.67561145 
 Solute Internal Energy (H0)                 =    -571.37787934 
 Total Free Energy (H0 + V/2 + non-elec)     =    -571.67561145 hartree
                                             = -358731.86052449 kcal/mol
***********************************************************

 <S^2> = 1.0081
 SCF time:  CPU 6969.50 s  wall 494.63 s
 SCF   energy in the final basis set = -571.67561145
 Total energy in the final basis set = -571.67561145
 
 --------------------------------------------------------------
 
                    Orbital Energies (a.u.)
 --------------------------------------------------------------
 
 Alpha MOs
 -- Occupied --
-19.225 -19.168 -19.156 -19.141 -19.138 -10.359 -10.341 -10.260
-10.258 -10.249  -1.156  -1.143  -1.065  -1.049  -0.971  -0.895
 -0.845  -0.764  -0.667  -0.609  -0.595  -0.562  -0.554  -0.548
 -0.527  -0.510  -0.499  -0.485  -0.478  -0.448  -0.441  -0.428
 -0.416  -0.380  -0.366  -0.352  -0.347  -0.343  -0.335  -0.329
 -- Virtual --
 -0.046   0.060   0.074   0.083   0.087   0.099   0.102   0.110
  0.122   0.126   0.129   0.132   0.144   0.148   0.154   0.162
  0.170   0.174   0.181   0.187   0.194   0.203   0.211   0.219
  0.226   0.232   0.239   0.242   0.254   0.268   0.268   0.271
  0.274   0.282   0.288   0.295   0.309   0.313   0.319   0.322
  0.332   0.335   0.343   0.345   0.350   0.357   0.359   0.369
  0.382   0.386   0.389   0.390   0.394   0.400   0.405   0.410
  0.414   0.421   0.425   0.427   0.432   0.437   0.443   0.451
  0.459   0.469   0.472   0.474   0.484   0.490   0.496   0.497
  0.500   0.509   0.514   0.519   0.527   0.538   0.541   0.543
  0.553   0.555   0.562   0.570   0.576   0.578   0.586   0.590
  0.597   0.601   0.607   0.611   0.620   0.624   0.638   0.646
  0.649   0.655   0.665   0.670   0.674   0.685   0.693   0.700
  0.707   0.710   0.718   0.727   0.734   0.739   0.750   0.754
  0.763   0.767   0.779   0.784   0.791   0.794   0.801   0.806
  0.812   0.823   0.824   0.836   0.844   0.847   0.852   0.856
  0.861   0.866   0.875   0.881   0.895   0.903   0.908   0.918
  0.926   0.941   0.945   0.948   0.965   0.995   1.011   1.016
  1.028   1.044   1.047   1.061   1.067   1.080   1.092   1.111
  1.119   1.136   1.146   1.153   1.168   1.175   1.186   1.200
  1.220   1.226   1.231   1.238   1.261   1.272   1.289   1.309
  1.313   1.332   1.348   1.363   1.371   1.390   1.407   1.417
  1.435   1.458   1.472   1.479   1.510   1.531   1.552   1.571
  1.586   1.624   1.643   1.663   1.707   1.752   1.799   1.835
  1.840   1.880   1.887   1.896   1.911   1.915   1.923   1.927
  1.937   1.950   1.950   1.959   1.966   1.990   1.994   2.015
  2.028   2.030   2.046   2.056   2.074   2.085   2.101   2.130
  2.145   2.163   2.180   2.209   2.223   2.250   2.265   2.290
  2.298   2.328   2.341   2.353   2.356   2.375   2.417   2.429
  2.446   2.457   2.467   2.475   2.489   2.498   2.517   2.532
  2.564   2.575   2.616   2.636   2.647   2.681   2.685   2.738
  2.749   2.762   2.770   2.792   2.853   2.860   2.877   2.888
  2.908   2.930   2.942   2.973   2.976   2.987   2.994   3.015
  3.026   3.060   3.088   3.094   3.106   3.127   3.150   3.219
  3.228   3.243   3.252   3.270   3.277   3.294   3.319   3.329
  3.348   3.378   3.392   3.417   3.433   3.446   3.450   3.470
  3.476   3.494   3.526   3.543   3.550   3.574   3.589   3.606
  3.616   3.623   3.644   3.656   3.663   3.665   3.677   3.695
  3.712   3.727   3.743   3.749   3.766   3.797   3.807   3.815
  3.825   3.850   3.886   3.900   3.937   3.991   4.018   4.049
  4.094   4.112   4.162   4.225   4.246   4.268   4.278   4.347
  4.427   4.446   4.484   4.560   4.600   4.655   4.710   4.739
  4.752   4.782   4.824   4.831   4.885   4.988   5.038   5.060
  5.074   5.235   5.272   5.282   5.288   5.302   5.309   5.310
  5.325   5.342   5.350   5.364   5.366   5.391   5.400   5.464
  5.505   5.508   5.562   5.574   5.638   5.705   5.714   5.729
  5.784   5.823   6.010   6.078   6.087   6.138   6.247   6.312
  6.315   6.340   6.371   6.486   6.529   6.541   6.564   6.624
  6.629   6.638   6.697   6.704   6.741   6.759   6.776   6.827
  6.957   6.966   6.970   6.992   7.053   7.093   7.183   7.238
  7.255   7.334   7.365   7.403   7.414   7.443   7.578  22.700
 22.884  22.957  23.163  23.746  43.798  44.274  44.426  44.437
 44.616
 
 Beta MOs
 -- Occupied --
-19.243 -19.168 -19.141 -19.138 -19.137 -10.359 -10.341 -10.261
-10.260 -10.249  -1.180  -1.144  -1.088  -1.049  -0.906  -0.893
 -0.853  -0.768  -0.673  -0.615  -0.603  -0.579  -0.558  -0.553
 -0.529  -0.518  -0.511  -0.489  -0.484  -0.461  -0.450  -0.430
 -0.416  -0.392  -0.368  -0.347  -0.336  -0.331  -0.326  -0.317
 -- Virtual --
  0.015   0.060   0.074   0.083   0.087   0.099   0.103   0.110
  0.123   0.126   0.129   0.135   0.146   0.152   0.154   0.161
  0.170   0.175   0.181   0.187   0.195   0.203   0.211   0.219
  0.226   0.232   0.239   0.241   0.254   0.267   0.268   0.270
  0.274   0.281   0.287   0.295   0.309   0.313   0.317   0.323
  0.331   0.334   0.342   0.344   0.350   0.358   0.360   0.368
  0.382   0.385   0.388   0.391   0.392   0.399   0.405   0.410
  0.413   0.417   0.424   0.428   0.429   0.438   0.444   0.453
  0.459   0.468   0.471   0.473   0.483   0.491   0.494   0.496
  0.499   0.508   0.515   0.519   0.527   0.538   0.540   0.542
  0.551   0.555   0.563   0.570   0.577   0.579   0.587   0.590
  0.598   0.602   0.607   0.611   0.620   0.624   0.637   0.646
  0.650   0.655   0.665   0.669   0.674   0.684   0.693   0.699
  0.705   0.709   0.717   0.727   0.733   0.739   0.751   0.754
  0.762   0.766   0.778   0.783   0.790   0.795   0.800   0.806
  0.811   0.822   0.824   0.835   0.844   0.846   0.853   0.856
  0.860   0.865   0.875   0.883   0.895   0.902   0.907   0.919
  0.926   0.942   0.944   0.948   0.969   0.999   1.014   1.016
  1.030   1.045   1.047   1.064   1.070   1.080   1.091   1.108
  1.115   1.136   1.145   1.152   1.166   1.174   1.185   1.200
  1.215   1.224   1.230   1.238   1.260   1.270   1.289   1.311
  1.318   1.332   1.347   1.361   1.370   1.389   1.403   1.414
  1.434   1.453   1.471   1.479   1.509   1.530   1.550   1.569
  1.584   1.623   1.641   1.662   1.706   1.752   1.800   1.837
  1.847   1.871   1.902   1.914   1.919   1.922   1.933   1.944
  1.947   1.951   1.959   1.966   1.969   1.987   1.996   2.013
  2.027   2.028   2.044   2.053   2.069   2.080   2.100   2.128
  2.139   2.159   2.173   2.205   2.221   2.248   2.261   2.288
  2.296   2.325   2.341   2.349   2.355   2.375   2.415   2.426
  2.445   2.456   2.464   2.473   2.489   2.497   2.517   2.531
  2.564   2.573   2.614   2.636   2.645   2.679   2.684   2.736
  2.747   2.760   2.769   2.789   2.852   2.856   2.877   2.885
  2.909   2.929   2.943   2.970   2.977   2.985   2.996   3.013
  3.059   3.082   3.091   3.097   3.108   3.145   3.149   3.216
  3.219   3.229   3.250   3.270   3.287   3.292   3.320   3.327
  3.347   3.376   3.392   3.414   3.431   3.445   3.450   3.468
  3.473   3.492   3.525   3.542   3.549   3.575   3.586   3.604
  3.615   3.621   3.639   3.655   3.658   3.664   3.676   3.692
  3.711   3.725   3.737   3.744   3.769   3.795   3.805   3.811
  3.822   3.846   3.881   3.894   3.934   3.983   4.015   4.046
  4.092   4.110   4.160   4.220   4.244   4.265   4.276   4.345
  4.432   4.445   4.482   4.558   4.598   4.651   4.708   4.736
  4.751   4.779   4.823   4.830   4.882   4.984   5.033   5.055
  5.066   5.231   5.263   5.302   5.309   5.327   5.340   5.345
  5.347   5.353   5.357   5.364   5.374   5.389   5.399   5.454
  5.505   5.510   5.545   5.562   5.641   5.698   5.714   5.729
  5.783   5.813   6.009   6.045   6.076   6.129   6.247   6.301
  6.315   6.339   6.364   6.502   6.605   6.618   6.624   6.625
  6.637   6.651   6.672   6.681   6.700   6.754   6.774   6.826
  6.952   6.962   6.969   6.985   7.052   7.060   7.183   7.234
  7.254   7.307   7.365   7.403   7.414   7.442   7.576  22.698
 22.883  22.956  23.163  23.746  43.822  44.274  44.417  44.427
 44.614
 --------------------------------------------------------------
 
          Ground-State Mulliken Net Atomic Charges

     Atom                 Charge (a.u.)    Spin (a.u.)
  --------------------------------------------------------
      1 C                     0.041120      -0.001761
      2 O                    -0.709157      -0.001259
      3 O                    -0.687583      -0.001101
      4 C                    -0.367986      -0.008877
      5 H                     0.269671      -0.004468
      6 H                     0.264635       0.002256
      7 C                    -0.495807      -0.067817
      8 H                     0.237446       0.000992
      9 H                     0.230596      -0.007366
     10 C                     1.098552       0.053423
     11 O                    -0.416838      -0.847974
     12 H                     0.236092      -0.002188
     13 O                    -0.536538       0.002007
     14 O                    -0.836207       1.005462
     15 C                    -1.123906      -0.119266
     16 H                     0.276922       0.004635
     17 H                     0.265635       0.002821
     18 H                     0.253352      -0.009518
  --------------------------------------------------------
  Sum of atomic charges =    -2.000000
  Sum of spin   charges =    -0.000000

 -----------------------------------------------------------------
                    Cartesian Multipole Moments
 -----------------------------------------------------------------
    Charge (ESU x 10^10)
                -9.6064
    Dipole Moment (Debye)
         X       6.5591      Y      -8.8746      Z       5.5756
       Tot      12.3640
    Quadrupole Moments (Debye-Ang)
        XX    -122.1736     XY     -16.8788     YY     -86.8748
        XZ      50.9427     YZ      29.2820     ZZ    -139.5676
    Octopole Moments (Debye-Ang^2)
       XXX     112.6889    XXY     -35.1184    XYY       0.9992
       YYY     -91.7699    XXZ     -28.5018    XYZ      32.7634
       YYZ      89.0053    XZZ      44.2002    YZZ    -124.7854
       ZZZ     181.1433
    Hexadecapole Moments (Debye-Ang^3)
      XXXX   -1393.5366   XXXY    -248.0359   XXYY    -320.4366
      XYYY    -194.7599   YYYY    -713.1604   XXXZ     809.0620
      XXYZ     204.2708   XYYZ     200.7825   YYYZ     480.7550
      XXZZ    -804.7862   XYZZ    -164.7525   YYZZ    -605.7939
      XZZZ     796.5883   YZZZ     736.9369   ZZZZ   -2405.8572
 -----------------------------------------------------------------
 Calculating analytic gradient of the SCF energy
 Gradient of SCF Energy
            1           2           3           4           5           6
    1   0.0378007   0.0087839  -0.0572596  -0.0759275   0.0228090   0.0279972
    2   0.0100763  -0.0263163   0.0051128   0.0194702  -0.0074043   0.0310322
    3  -0.0240228   0.0456228  -0.0121020   0.0170932  -0.0341973   0.0358210
            7           8           9          10          11          12
    1   0.1005760  -0.0251554  -0.0346148  -0.0695802   0.0170429   0.0311294
    2  -0.0424419   0.0488178  -0.0427081   0.0409453   0.0149169  -0.0455716
    3   0.0089332   0.0274664  -0.0392265  -0.0362411   0.0104239  -0.0267116
           13          14          15          16          17          18
    1  -0.0046876  -0.0087603   0.0578059   0.0589829  -0.0379471  -0.0489956
    2   0.0083671  -0.0014839  -0.0444149   0.0274078   0.0539493  -0.0497547
    3   0.0008988   0.0028951   0.0685385  -0.0448817   0.0354421  -0.0357522
 Max gradient component =       1.006E-01
 RMS gradient           =       3.858E-02
 Computing fast CPCM-ISWIG gradient
 Updating gradient with PCM contributions...
 -- total gradient after adding PCM contribution --
---------------------------------------------------
  Atom         X              Y              Z     
---------------------------------------------------
   1       0.001355      -0.000052       0.000203
   2      -0.000231       0.000068      -0.000107
   3      -0.000878       0.000035      -0.000168
   4      -0.000212      -0.000020       0.000061
   5      -0.000010      -0.000003       0.000009
   6      -0.000020      -0.000012       0.000014
   7       0.000033      -0.000001       0.000020
   8      -0.000004       0.000004       0.000001
   9      -0.000006       0.000005      -0.000003
  10       0.000037      -0.000088      -0.000057
  11       0.000003       0.000018       0.000008
  12      -0.000033      -0.000022       0.000013
  13      -0.000033       0.000053       0.000020
  14       0.000001      -0.000003      -0.000014
  15      -0.000007       0.000017       0.000000
  16       0.000003       0.000002      -0.000000
  17       0.000001      -0.000001      -0.000000
  18       0.000002      -0.000001      -0.000000
---------------------------------------------------
 Number of fixed atoms: 0
 Gradient time:  CPU 858.00 s  wall 62.53 s
 ----------------------------------------------------------------
             Standard Nuclear Orientation (Angstroms)
    I     Atom           X                Y                Z
 ----------------------------------------------------------------
    1      C       1.0640252415     1.5173815797    -2.5368314245
    2      O       0.6412437425     2.1186436062    -3.5608830279
    3      O       2.2716169453     1.4120486493    -2.1999346899
    4      C      -0.0081087322     0.8792521689    -1.6403357560
    5      H      -1.9990384762     0.2307216395     1.6885144885
    6      H      -0.6493041057     0.2645946988    -2.2819309755
    7      C       0.5330046991     0.0568884832    -0.4792064716
    8      H       1.1159491570    -0.7918724810    -0.8463435896
    9      H       1.1881708243     0.6649354954     0.1505799148
   10      C      -0.5838330331    -0.4891280781     0.4546156287
   11      O      -1.3803393071    -1.3131925969    -0.2797779616
   12      H      -0.6400789036     1.6909453888    -1.2647137577
   13      O      -1.2590791315     0.5810411672     1.0328361550
   14      O      -3.0512585563    -0.1980840732     2.6349604196
   15      C       0.0650177696    -1.3913708655     1.5424887371
   16      H      -0.7145659662    -1.7922204272     2.1941269363
   17      H       0.6235521724    -2.2104620549     1.0865123110
   18      H       0.7399879908    -0.7653961527     2.1307441888
 ----------------------------------------------------------------
 Nuclear Repulsion Energy =   523.5285530394 hartrees
 There are       40 alpha and       40 beta electrons
 Discretize the solute cavity surface with Lebedev spheres
	Using 110 Lebedev grid points for each H atom
	Using 110 Lebedev grid points for other atoms
	Atomic van der Waals radii will be scaled by 1.20
 Remove points where switching function is < 1.0e-08
 Keep 1086 surface tesserae and discard 894 interior tesserae
 Molecular Surface Area = 200.609 Angst**2
 Requested basis set is def2-TZVPD
 There are 175 shells and 457 basis functions
 A cutoff of  1.0D-14 yielded  13862 shell pairs
 There are     94248 function pairs (    119681 Cartesian)
 Smallest overlap matrix eigenvalue = 3.21E-06
 Guess MOs from SCF MO coefficient file
 Reading MOs from coefficient file
 Reading MOs from coefficient file
 Long-range K will be added via erf
 Coulomb attenuation parameter = 0.3 bohr**(-1)
 An unrestricted hybrid HF-DFT SCF calculation will be
 performed using Pulay DIIS extrapolation
 Polarizable Continuum solvation model will be applied
 Exchange:     0.1670 Hartree-Fock + 1.0000 wB97X-V + LR-HF
 Correlation:  1.0000 wB97X-V
 Using SG-2 standard quadrature grid
 Nonlocal Correlation:  VV10 with C = 0.0100 and b = 6.00
 Grid used for NLC:  SG-1 standard quadrature
 SCF converges when DIIS error is below 1.0E-08
Using Q-Chem read-in guess as SCF_GUESS READ specified.

 using 16 threads for integral computing
 -------------------------------------------------------
 OpenMP Integral computing Module                
 Release: version 1.0, May 2013, Q-Chem Inc. Pittsburgh 
 -------------------------------------------------------
 using 16 threads for integral computing
 -------------------------------------------------------
 OpenMP Integral computing Module                
 Release: version 1.0, May 2013, Q-Chem Inc. Pittsburgh 
 -------------------------------------------------------
 -------------------------------------------------------
 OpenMP BLAS3 based DFT computing Module                
 Release: version 1.0, May 2013, Q-Chem Inc. Pittsburgh 
 -------------------------------------------------------
 -------------------------------------------------------
 OpenMP BLAS3 based DFT computing Module                
 Release: version 1.0, May 2013, Q-Chem Inc. Pittsburgh 
 -------------------------------------------------------
 -------------------------------------------------------
 OpenMP BLAS3 based DFT computing Module                
 Release: version 1.0, May 2013, Q-Chem Inc. Pittsburgh 
 -------------------------------------------------------
 ---------------------------------------
  Cycle       Energy         DIIS Error
 ---------------------------------------
    1    -571.3768002082      3.25E-04
    2    -571.6695309720      3.27E-04
    3    -571.6738006227      1.56E-04
    4    -571.6745196389      1.15E-04
    5    -571.6750223055      8.39E-05
    6    -571.6753364761      5.73E-05
    7    -571.6755428245      2.83E-05
    8    -571.6756015207      1.04E-05
    9    -571.6756102002      2.96E-06
   10    -571.6756109315      1.16E-06
   11    -571.6756110883      5.31E-07
   12    -571.6756111662      3.29E-07
   13    -571.6756112074      2.77E-07
   14    -571.6756112369      2.45E-07
   15    -571.6756112686      2.14E-07
   16    -571.6756113166      1.56E-07
   17    -571.6756113602      5.76E-08
   18    -571.6756113715      3.85E-08
   19    -571.6756113726      2.25E-08
   20    -571.6756113732      1.78E-08
   21    -571.6756113734      1.61E-08
   22    -571.6756113736      1.55E-08
   23    -571.6756113739      1.53E-08
   24    -571.6756113742      1.49E-08
   25    -571.6756113754      1.41E-08
   26    -571.6756113771      1.32E-08
   27    -571.6756113779      1.28E-08
   28    -571.6756113783      1.26E-08
   29    -571.6756113786      1.25E-08
   30    -571.6756113792      1.23E-08
   31    -571.6756113831      1.12E-08
   32    -571.6756113889      8.70E-09 Convergence criterion met
 ---------------------------------------

************** Final PCM Free Energy Summary **************
 G_electrostatic  =      -0.29776910 hartree =    -186.85293152 kcal/mol
 G_cavitation     =       0.00000000 hartree =       0.00000000 kcal/mol
 G_dispersion     =       0.00000000 hartree =       0.00000000 kcal/mol
 G_repulsion      =       0.00000000 hartree =       0.00000000 kcal/mol
 --------------------------------------------------
 Non-electrostatic Free Energy =       0.00000000 hartree =       0.00000000 kcal/mol
 Total                         =      -0.29776910 hartree =    -186.85293152 kcal/mol
 --------------------------------------------------
 SCF Energy (H0 + V/2)                       =    -571.67561139 
 Solute Internal Energy (H0)                 =    -571.37784229 
 Total Free Energy (H0 + V/2 + non-elec)     =    -571.67561139 hartree
                                             = -358731.86048624 kcal/mol
***********************************************************

 <S^2> = 1.0081
 SCF time:  CPU 8634.16 s  wall 611.73 s
 SCF   energy in the final basis set = -571.67561139
 Total energy in the final basis set = -571.67561139
 
 --------------------------------------------------------------
 
                    Orbital Energies (a.u.)
 --------------------------------------------------------------
 
 Alpha MOs
 -- Occupied --
-19.225 -19.168 -19.156 -19.140 -19.138 -10.359 -10.341 -10.260
-10.258 -10.249  -1.156  -1.143  -1.065  -1.049  -0.971  -0.896
 -0.845  -0.764  -0.667  -0.609  -0.595  -0.562  -0.554  -0.548
 -0.527  -0.509  -0.499  -0.484  -0.478  -0.448  -0.441  -0.428
 -0.416  -0.380  -0.366  -0.352  -0.347  -0.343  -0.335  -0.329
 -- Virtual --
 -0.046   0.060   0.074   0.083   0.087   0.099   0.102   0.110
  0.122   0.126   0.129   0.132   0.144   0.148   0.154   0.161
  0.170   0.174   0.181   0.187   0.194   0.203   0.211   0.219
  0.226   0.232   0.239   0.242   0.254   0.268   0.268   0.271
  0.274   0.282   0.288   0.295   0.309   0.313   0.319   0.322
  0.332   0.335   0.343   0.345   0.350   0.357   0.359   0.369
  0.382   0.386   0.389   0.390   0.394   0.400   0.405   0.410
  0.414   0.421   0.425   0.427   0.432   0.437   0.443   0.451
  0.459   0.469   0.472   0.474   0.484   0.490   0.496   0.497
  0.500   0.509   0.514   0.519   0.527   0.538   0.541   0.543
  0.553   0.555   0.562   0.570   0.576   0.578   0.586   0.590
  0.597   0.601   0.607   0.611   0.620   0.624   0.638   0.646
  0.649   0.655   0.665   0.670   0.674   0.685   0.693   0.699
  0.707   0.710   0.718   0.727   0.734   0.739   0.750   0.754
  0.763   0.767   0.779   0.784   0.791   0.794   0.801   0.806
  0.812   0.823   0.824   0.836   0.844   0.847   0.852   0.856
  0.861   0.866   0.875   0.881   0.895   0.903   0.908   0.918
  0.926   0.941   0.945   0.948   0.965   0.995   1.011   1.016
  1.028   1.045   1.047   1.061   1.067   1.080   1.092   1.111
  1.119   1.136   1.146   1.153   1.168   1.175   1.186   1.200
  1.220   1.225   1.231   1.238   1.261   1.272   1.289   1.309
  1.313   1.332   1.348   1.363   1.371   1.390   1.407   1.417
  1.435   1.458   1.472   1.479   1.510   1.531   1.552   1.572
  1.586   1.624   1.643   1.663   1.707   1.752   1.799   1.835
  1.840   1.881   1.887   1.896   1.911   1.915   1.923   1.927
  1.937   1.950   1.950   1.959   1.965   1.990   1.994   2.015
  2.028   2.030   2.046   2.056   2.074   2.085   2.101   2.130
  2.145   2.163   2.180   2.209   2.223   2.250   2.265   2.290
  2.298   2.328   2.341   2.352   2.356   2.375   2.417   2.429
  2.446   2.457   2.467   2.475   2.490   2.497   2.517   2.533
  2.564   2.575   2.616   2.636   2.647   2.681   2.685   2.738
  2.749   2.762   2.770   2.792   2.853   2.860   2.877   2.888
  2.908   2.930   2.942   2.973   2.976   2.987   2.994   3.015
  3.026   3.060   3.088   3.094   3.106   3.127   3.150   3.219
  3.228   3.243   3.252   3.270   3.277   3.294   3.319   3.329
  3.348   3.378   3.392   3.417   3.434   3.446   3.450   3.470
  3.476   3.493   3.526   3.543   3.551   3.574   3.589   3.605
  3.616   3.623   3.644   3.656   3.663   3.665   3.677   3.695
  3.711   3.727   3.743   3.749   3.766   3.797   3.807   3.815
  3.825   3.851   3.886   3.900   3.936   3.991   4.018   4.049
  4.094   4.112   4.162   4.225   4.246   4.269   4.278   4.346
  4.427   4.446   4.484   4.560   4.600   4.655   4.710   4.739
  4.752   4.782   4.824   4.832   4.884   4.989   5.038   5.060
  5.074   5.235   5.272   5.282   5.288   5.302   5.309   5.310
  5.325   5.342   5.350   5.364   5.366   5.391   5.400   5.464
  5.504   5.508   5.562   5.574   5.638   5.705   5.715   5.728
  5.784   5.823   6.008   6.078   6.087   6.138   6.245   6.312
  6.313   6.340   6.371   6.486   6.529   6.541   6.564   6.622
  6.629   6.638   6.698   6.704   6.741   6.758   6.776   6.827
  6.956   6.965   6.970   6.992   7.053   7.093   7.183   7.238
  7.255   7.334   7.365   7.401   7.413   7.443   7.578  22.700
 22.884  22.957  23.163  23.743  43.798  44.274  44.426  44.437
 44.616
 
 Beta MOs
 -- Occupied --
-19.243 -19.168 -19.141 -19.138 -19.137 -10.359 -10.341 -10.262
-10.260 -10.249  -1.180  -1.143  -1.088  -1.049  -0.906  -0.893
 -0.853  -0.769  -0.673  -0.615  -0.603  -0.579  -0.558  -0.553
 -0.529  -0.518  -0.511  -0.489  -0.484  -0.461  -0.450  -0.430
 -0.416  -0.392  -0.368  -0.347  -0.336  -0.331  -0.326  -0.317
 -- Virtual --
  0.015   0.060   0.074   0.083   0.087   0.099   0.103   0.110
  0.123   0.126   0.129   0.135   0.146   0.152   0.154   0.161
  0.170   0.175   0.181   0.187   0.195   0.203   0.211   0.219
  0.226   0.232   0.239   0.241   0.254   0.267   0.268   0.270
  0.274   0.281   0.287   0.295   0.309   0.313   0.317   0.323
  0.331   0.334   0.342   0.344   0.350   0.358   0.360   0.368
  0.382   0.385   0.388   0.391   0.392   0.399   0.405   0.410
  0.413   0.417   0.424   0.428   0.429   0.438   0.444   0.453
  0.459   0.468   0.471   0.473   0.483   0.491   0.494   0.496
  0.499   0.508   0.515   0.519   0.527   0.538   0.540   0.542
  0.551   0.555   0.563   0.570   0.577   0.579   0.587   0.590
  0.598   0.602   0.607   0.611   0.620   0.624   0.637   0.646
  0.650   0.655   0.665   0.670   0.674   0.684   0.693   0.699
  0.705   0.709   0.717   0.727   0.733   0.739   0.751   0.754
  0.762   0.766   0.778   0.783   0.790   0.794   0.800   0.806
  0.811   0.822   0.823   0.835   0.844   0.846   0.853   0.856
  0.860   0.865   0.875   0.883   0.895   0.902   0.907   0.919
  0.926   0.942   0.944   0.948   0.969   0.999   1.014   1.016
  1.030   1.045   1.047   1.064   1.070   1.080   1.091   1.108
  1.115   1.136   1.145   1.152   1.166   1.174   1.185   1.200
  1.215   1.224   1.230   1.238   1.260   1.270   1.289   1.311
  1.318   1.332   1.347   1.361   1.370   1.389   1.403   1.414
  1.434   1.454   1.471   1.479   1.509   1.530   1.550   1.570
  1.584   1.623   1.641   1.662   1.706   1.751   1.800   1.837
  1.847   1.871   1.902   1.914   1.919   1.922   1.933   1.945
  1.947   1.951   1.959   1.966   1.969   1.987   1.996   2.013
  2.027   2.028   2.044   2.053   2.069   2.080   2.100   2.128
  2.139   2.159   2.173   2.205   2.221   2.248   2.260   2.288
  2.296   2.326   2.341   2.349   2.355   2.375   2.415   2.426
  2.445   2.456   2.464   2.473   2.489   2.496   2.517   2.531
  2.564   2.573   2.614   2.636   2.645   2.679   2.684   2.736
  2.747   2.760   2.769   2.789   2.852   2.856   2.877   2.885
  2.909   2.929   2.943   2.970   2.977   2.985   2.996   3.014
  3.059   3.082   3.091   3.097   3.108   3.145   3.149   3.216
  3.219   3.229   3.250   3.270   3.287   3.292   3.320   3.327
  3.347   3.377   3.392   3.415   3.431   3.445   3.450   3.468
  3.473   3.492   3.526   3.542   3.549   3.575   3.586   3.604
  3.615   3.621   3.639   3.655   3.658   3.664   3.676   3.692
  3.711   3.725   3.737   3.744   3.769   3.794   3.805   3.811
  3.822   3.846   3.881   3.894   3.933   3.983   4.016   4.047
  4.092   4.111   4.160   4.220   4.244   4.266   4.276   4.345
  4.432   4.445   4.482   4.558   4.598   4.652   4.709   4.736
  4.752   4.779   4.824   4.831   4.882   4.985   5.033   5.055
  5.066   5.231   5.263   5.302   5.309   5.327   5.340   5.345
  5.347   5.353   5.357   5.364   5.374   5.389   5.400   5.454
  5.504   5.510   5.545   5.562   5.641   5.698   5.715   5.728
  5.783   5.813   6.008   6.045   6.076   6.129   6.245   6.301
  6.313   6.339   6.364   6.502   6.605   6.618   6.622   6.624
  6.637   6.651   6.672   6.681   6.700   6.753   6.774   6.826
  6.952   6.962   6.970   6.985   7.051   7.060   7.183   7.234
  7.255   7.307   7.364   7.401   7.413   7.442   7.576  22.698
 22.884  22.956  23.163  23.743  43.822  44.274  44.417  44.427
 44.614
 --------------------------------------------------------------
 
          Ground-State Mulliken Net Atomic Charges

     Atom                 Charge (a.u.)    Spin (a.u.)
  --------------------------------------------------------
      1 C                     0.039199      -0.001776
      2 O                    -0.708120      -0.001252
      3 O                    -0.689639      -0.001121
      4 C                    -0.365522      -0.008884
      5 H                     0.269709      -0.004472
      6 H                     0.264691       0.002269
      7 C                    -0.495616      -0.067781
      8 H                     0.237373       0.000997
      9 H                     0.230526      -0.007371
     10 C                     1.098901       0.053437
     11 O                    -0.416813      -0.848001
     12 H                     0.236124      -0.002183
     13 O                    -0.536528       0.002008
     14 O                    -0.836213       1.005459
     15 C                    -1.124074      -0.119277
     16 H                     0.276982       0.004646
     17 H                     0.265653       0.002824
     18 H                     0.253368      -0.009522
  --------------------------------------------------------
  Sum of atomic charges =    -2.000000
  Sum of spin   charges =     0.000000

 -----------------------------------------------------------------
                    Cartesian Multipole Moments
 -----------------------------------------------------------------
    Charge (ESU x 10^10)
                -9.6064
    Dipole Moment (Debye)
         X       6.5355      Y      -8.8730      Z       5.5700
       Tot      12.3478
    Quadrupole Moments (Debye-Ang)
        XX    -122.2326     XY     -16.9111     YY     -86.8599
        XZ      50.9872     YZ      29.2562     ZZ    -139.5235
    Octopole Moments (Debye-Ang^2)
       XXX     112.5304    XXY     -35.1885    XYY       0.9509
       YYY     -91.7278    XXZ     -28.3632    XYZ      32.8092
       YYZ      88.9354    XZZ      44.1188    YZZ    -124.6729
       ZZZ     180.8992
    Hexadecapole Moments (Debye-Ang^3)
      XXXX   -1393.8820   XXXY    -248.3071   XXYY    -320.5674
      XYYY    -194.8200   YYYY    -712.9678   XXXZ     809.3368
      XXYZ     204.4496   XYYZ     200.8116   YYYZ     480.4968
      XXZZ    -805.0528   XYZZ    -164.7763   YYZZ    -605.4155
      XZZZ     796.6820   YZZZ     736.3031   ZZZZ   -2404.7511
 -----------------------------------------------------------------
 Calculating analytic gradient of the SCF energy
 Gradient of SCF Energy
            1           2           3           4           5           6
    1   0.0350785   0.0090971  -0.0553014  -0.0754069   0.0228162   0.0279728
    2   0.0102737  -0.0265488   0.0049930   0.0195618  -0.0073979   0.0310211
    3  -0.0247665   0.0460517  -0.0116520   0.0170565  -0.0341972   0.0357533
            7           8           9          10          11          12
    1   0.1005723  -0.0251525  -0.0346215  -0.0696133   0.0170421   0.0311079
    2  -0.0423695   0.0487939  -0.0427212   0.0408885   0.0149160  -0.0454939
    3   0.0088237   0.0274888  -0.0391901  -0.0362215   0.0104269  -0.0267151
           13          14          15          16          17          18
    1  -0.0046857  -0.0087616   0.0578212   0.0589828  -0.0379492  -0.0489989
    2   0.0083694  -0.0014853  -0.0443970   0.0274014   0.0539507  -0.0497557
    3   0.0009049   0.0028940   0.0685318  -0.0448791   0.0354426  -0.0357525
 Max gradient component =       1.006E-01
 RMS gradient           =       3.847E-02
 Computing fast CPCM-ISWIG gradient
 Updating gradient with PCM contributions...
 -- total gradient after adding PCM contribution --
---------------------------------------------------
  Atom         X              Y              Z     
---------------------------------------------------
   1      -0.001385       0.000047      -0.000201
   2       0.000235      -0.000060       0.000128
   3       0.000896      -0.000045       0.000164
   4       0.000227       0.000076      -0.000080
   5      -0.000006      -0.000003       0.000007
   6       0.000032       0.000002      -0.000017
   7      -0.000031      -0.000007       0.000025
   8      -0.000001      -0.000003       0.000001
   9       0.000000       0.000008       0.000004
  10       0.000050      -0.000102      -0.000049
  11       0.000007       0.000021       0.000014
  12       0.000021       0.000004      -0.000015
  13      -0.000039       0.000053       0.000025
  14      -0.000002      -0.000002      -0.000013
  15      -0.000012       0.000014       0.000006
  16       0.000005       0.000001       0.000001
  17       0.000001      -0.000001      -0.000001
  18       0.000002      -0.000001      -0.000001
---------------------------------------------------
 Number of fixed atoms: 0
 Gradient time:  CPU 858.33 s  wall 61.86 s
 ----------------------------------------------------------------
             Standard Nuclear Orientation (Angstroms)
    I     Atom           X                Y                Z
 ----------------------------------------------------------------
    1      C       1.0650252415     1.5183815797    -2.5368314245
    2      O       0.6412437425     2.1186436062    -3.5608830279
    3      O       2.2716169453     1.4120486493    -2.1999346899
    4      C      -0.0081087322     0.8792521689    -1.6403357560
    5      H      -1.9990384762     0.2307216395     1.6885144885
    6      H      -0.6493041057     0.2645946988    -2.2819309755
    7      C       0.5330046991     0.0568884832    -0.4792064716
    8      H       1.1159491570    -0.7918724810    -0.8463435896
    9      H       1.1881708243     0.6649354954     0.1505799148
   10      C      -0.5838330331    -0.4891280781     0.4546156287
   11      O      -1.3803393071    -1.3131925969    -0.2797779616
   12      H      -0.6400789036     1.6909453888    -1.2647137577
   13      O      -1.2590791315     0.5810411672     1.0328361550
   14      O      -3.0512585563    -0.1980840732     2.6349604196
   15      C       0.0650177696    -1.3913708655     1.5424887371
   16      H      -0.7145659662    -1.7922204272     2.1941269363
   17      H       0.6235521724    -2.2104620549     1.0865123110
   18      H       0.7399879908    -0.7653961527     2.1307441888
 ----------------------------------------------------------------
 Nuclear Repulsion Energy =   523.5267365949 hartrees
 There are       40 alpha and       40 beta electrons
 Discretize the solute cavity surface with Lebedev spheres
	Using 110 Lebedev grid points for each H atom
	Using 110 Lebedev grid points for other atoms
	Atomic van der Waals radii will be scaled by 1.20
 Remove points where switching function is < 1.0e-08
 Keep 1086 surface tesserae and discard 894 interior tesserae
 Molecular Surface Area = 200.608 Angst**2
 Requested basis set is def2-TZVPD
 There are 175 shells and 457 basis functions
 A cutoff of  1.0D-14 yielded  13862 shell pairs
 There are     94248 function pairs (    119681 Cartesian)
 Smallest overlap matrix eigenvalue = 3.21E-06
 Guess MOs from SCF MO coefficient file
 Reading MOs from coefficient file
 Reading MOs from coefficient file
 Long-range K will be added via erf
 Coulomb attenuation parameter = 0.3 bohr**(-1)
 An unrestricted hybrid HF-DFT SCF calculation will be
 performed using Pulay DIIS extrapolation
 Polarizable Continuum solvation model will be applied
 Exchange:     0.1670 Hartree-Fock + 1.0000 wB97X-V + LR-HF
 Correlation:  1.0000 wB97X-V
 Using SG-2 standard quadrature grid
 Nonlocal Correlation:  VV10 with C = 0.0100 and b = 6.00
 Grid used for NLC:  SG-1 standard quadrature
 SCF converges when DIIS error is below 1.0E-08
Using Q-Chem read-in guess as SCF_GUESS READ specified.

 using 16 threads for integral computing
 -------------------------------------------------------
 OpenMP Integral computing Module                
 Release: version 1.0, May 2013, Q-Chem Inc. Pittsburgh 
 -------------------------------------------------------
 using 16 threads for integral computing
 -------------------------------------------------------
 OpenMP Integral computing Module                
 Release: version 1.0, May 2013, Q-Chem Inc. Pittsburgh 
 -------------------------------------------------------
 -------------------------------------------------------
 OpenMP BLAS3 based DFT computing Module                
 Release: version 1.0, May 2013, Q-Chem Inc. Pittsburgh 
 -------------------------------------------------------
 -------------------------------------------------------
 OpenMP BLAS3 based DFT computing Module                
 Release: version 1.0, May 2013, Q-Chem Inc. Pittsburgh 
 -------------------------------------------------------
 -------------------------------------------------------
 OpenMP BLAS3 based DFT computing Module                
 Release: version 1.0, May 2013, Q-Chem Inc. Pittsburgh 
 -------------------------------------------------------
 ---------------------------------------
  Cycle       Energy         DIIS Error
 ---------------------------------------
    1    -571.3786640280      3.24E-04
    2    -571.6695243534      3.28E-04
    3    -571.6737980230      1.56E-04
    4    -571.6745159541      1.15E-04
    5    -571.6749995347      8.56E-05
    6    -571.6752708325      6.39E-05
    7    -571.6754794367      3.96E-05
    8    -571.6755797665      1.94E-05
    9    -571.6756064036      7.86E-06
   10    -571.6756110116      2.91E-06
   11    -571.6756116666      1.24E-06
   12    -571.6756118100      7.41E-07
   13    -571.6756118695      5.71E-07
   14    -571.6756119013      5.29E-07
   15    -571.6756119307      4.84E-07
   16    -571.6756119852      3.38E-07
   17    -571.6756120382      5.69E-08
   18    -571.6756120496      3.67E-08
   19    -571.6756120507      2.03E-08
   20    -571.6756120511      1.46E-08
   21    -571.6756120513      1.24E-08
   22    -571.6756120514      1.15E-08
   23    -571.6756120515      1.12E-08
   24    -571.6756120517      1.09E-08
   25    -571.6756120522      9.98E-09 Convergence criterion met
 ---------------------------------------

************** Final PCM Free Energy Summary **************
 G_electrostatic  =      -0.29773285 hartree =    -186.83018569 kcal/mol
 G_cavitation     =       0.00000000 hartree =       0.00000000 kcal/mol
 G_dispersion     =       0.00000000 hartree =       0.00000000 kcal/mol
 G_repulsion      =       0.00000000 hartree =       0.00000000 kcal/mol
 --------------------------------------------------
 Non-electrostatic Free Energy =       0.00000000 hartree =       0.00000000 kcal/mol
 Total                         =      -0.29773285 hartree =    -186.83018569 kcal/mol
 --------------------------------------------------
 SCF Energy (H0 + V/2)                       =    -571.67561205 
 Solute Internal Energy (H0)                 =    -571.37787920 
 Total Free Energy (H0 + V/2 + non-elec)     =    -571.67561205 hartree
                                             = -358731.86090249 kcal/mol
***********************************************************

 <S^2> = 1.0081
 SCF time:  CPU 6694.74 s  wall 474.48 s
 SCF   energy in the final basis set = -571.67561205
 Total energy in the final basis set = -571.67561205
 
 --------------------------------------------------------------
 
                    Orbital Energies (a.u.)
 --------------------------------------------------------------
 
 Alpha MOs
 -- Occupied --
-19.225 -19.168 -19.156 -19.141 -19.138 -10.359 -10.341 -10.260
-10.258 -10.249  -1.156  -1.143  -1.065  -1.049  -0.971  -0.895
 -0.845  -0.764  -0.667  -0.609  -0.595  -0.562  -0.554  -0.548
 -0.527  -0.510  -0.499  -0.484  -0.478  -0.448  -0.441  -0.428
 -0.416  -0.380  -0.366  -0.352  -0.347  -0.343  -0.335  -0.329
 -- Virtual --
 -0.046   0.060   0.074   0.083   0.087   0.099   0.102   0.110
  0.122   0.126   0.129   0.132   0.144   0.148   0.154   0.162
  0.170   0.174   0.181   0.187   0.194   0.203   0.211   0.219
  0.226   0.232   0.239   0.242   0.254   0.268   0.268   0.271
  0.274   0.282   0.288   0.295   0.309   0.313   0.319   0.322
  0.332   0.335   0.343   0.345   0.350   0.357   0.359   0.369
  0.382   0.386   0.389   0.390   0.394   0.400   0.405   0.410
  0.414   0.421   0.425   0.427   0.432   0.437   0.443   0.451
  0.459   0.469   0.472   0.474   0.484   0.490   0.496   0.497
  0.500   0.509   0.514   0.519   0.527   0.538   0.541   0.543
  0.553   0.555   0.562   0.570   0.576   0.578   0.586   0.590
  0.597   0.601   0.607   0.611   0.620   0.624   0.638   0.646
  0.649   0.655   0.665   0.670   0.674   0.685   0.693   0.699
  0.707   0.710   0.718   0.727   0.734   0.739   0.750   0.754
  0.763   0.767   0.779   0.784   0.791   0.794   0.801   0.806
  0.812   0.823   0.824   0.836   0.844   0.847   0.852   0.856
  0.861   0.866   0.875   0.881   0.895   0.903   0.908   0.918
  0.926   0.941   0.945   0.948   0.965   0.995   1.011   1.016
  1.028   1.044   1.047   1.061   1.067   1.080   1.092   1.111
  1.119   1.136   1.146   1.153   1.168   1.175   1.186   1.200
  1.220   1.225   1.231   1.238   1.261   1.272   1.289   1.309
  1.313   1.332   1.348   1.363   1.371   1.390   1.407   1.417
  1.435   1.458   1.472   1.479   1.510   1.531   1.552   1.571
  1.586   1.624   1.643   1.664   1.707   1.752   1.799   1.835
  1.840   1.881   1.887   1.896   1.911   1.915   1.923   1.927
  1.937   1.950   1.950   1.959   1.966   1.990   1.994   2.015
  2.028   2.030   2.047   2.056   2.074   2.085   2.101   2.130
  2.145   2.163   2.180   2.209   2.223   2.250   2.265   2.290
  2.298   2.328   2.341   2.352   2.356   2.375   2.417   2.429
  2.446   2.457   2.467   2.475   2.490   2.497   2.517   2.532
  2.564   2.575   2.616   2.636   2.647   2.681   2.685   2.738
  2.749   2.762   2.770   2.792   2.853   2.860   2.877   2.888
  2.908   2.930   2.942   2.973   2.976   2.987   2.994   3.015
  3.026   3.060   3.088   3.094   3.107   3.127   3.150   3.219
  3.228   3.243   3.252   3.269   3.277   3.294   3.319   3.329
  3.348   3.378   3.392   3.417   3.434   3.446   3.450   3.470
  3.476   3.494   3.526   3.543   3.550   3.574   3.589   3.606
  3.616   3.623   3.644   3.656   3.663   3.665   3.677   3.695
  3.711   3.727   3.743   3.749   3.766   3.797   3.807   3.815
  3.825   3.851   3.886   3.900   3.937   3.991   4.018   4.049
  4.094   4.112   4.162   4.225   4.246   4.268   4.278   4.346
  4.427   4.446   4.484   4.560   4.600   4.655   4.710   4.739
  4.752   4.782   4.824   4.831   4.885   4.989   5.038   5.060
  5.074   5.234   5.272   5.282   5.288   5.302   5.309   5.310
  5.325   5.342   5.350   5.364   5.366   5.391   5.400   5.464
  5.505   5.508   5.562   5.574   5.638   5.705   5.714   5.729
  5.784   5.823   6.009   6.078   6.087   6.138   6.247   6.312
  6.314   6.340   6.371   6.486   6.529   6.541   6.564   6.624
  6.629   6.638   6.697   6.704   6.741   6.759   6.776   6.827
  6.956   6.966   6.970   6.992   7.053   7.093   7.183   7.238
  7.255   7.334   7.365   7.403   7.414   7.443   7.578  22.700
 22.884  22.957  23.163  23.746  43.798  44.274  44.426  44.437
 44.616
 
 Beta MOs
 -- Occupied --
-19.243 -19.168 -19.141 -19.138 -19.137 -10.359 -10.341 -10.261
-10.260 -10.249  -1.180  -1.143  -1.088  -1.049  -0.906  -0.893
 -0.853  -0.769  -0.673  -0.615  -0.603  -0.579  -0.558  -0.553
 -0.529  -0.518  -0.511  -0.489  -0.484  -0.461  -0.450  -0.430
 -0.416  -0.392  -0.368  -0.347  -0.336  -0.331  -0.326  -0.317
 -- Virtual --
  0.015   0.060   0.074   0.083   0.087   0.099   0.103   0.110
  0.123   0.126   0.129   0.135   0.146   0.152   0.154   0.161
  0.170   0.175   0.181   0.187   0.195   0.203   0.211   0.219
  0.226   0.232   0.239   0.241   0.254   0.267   0.268   0.270
  0.274   0.281   0.287   0.295   0.309   0.313   0.317   0.323
  0.331   0.334   0.342   0.344   0.350   0.358   0.360   0.368
  0.382   0.385   0.388   0.391   0.392   0.399   0.405   0.410
  0.413   0.417   0.424   0.428   0.429   0.438   0.444   0.453
  0.459   0.468   0.471   0.473   0.483   0.491   0.494   0.496
  0.499   0.508   0.515   0.519   0.527   0.538   0.540   0.542
  0.551   0.555   0.563   0.570   0.577   0.579   0.587   0.590
  0.598   0.602   0.607   0.611   0.620   0.624   0.637   0.646
  0.650   0.655   0.665   0.669   0.674   0.684   0.693   0.699
  0.705   0.709   0.717   0.727   0.733   0.739   0.751   0.754
  0.762   0.766   0.778   0.783   0.790   0.795   0.800   0.806
  0.811   0.822   0.824   0.835   0.844   0.846   0.853   0.856
  0.860   0.865   0.875   0.883   0.895   0.902   0.907   0.919
  0.926   0.942   0.944   0.948   0.969   0.999   1.014   1.016
  1.030   1.045   1.047   1.064   1.070   1.080   1.091   1.108
  1.115   1.136   1.145   1.152   1.166   1.174   1.185   1.200
  1.215   1.224   1.230   1.238   1.260   1.270   1.289   1.311
  1.318   1.332   1.347   1.361   1.370   1.389   1.403   1.414
  1.434   1.454   1.471   1.479   1.509   1.530   1.550   1.569
  1.584   1.623   1.641   1.662   1.706   1.752   1.800   1.837
  1.847   1.871   1.902   1.914   1.919   1.922   1.933   1.944
  1.947   1.951   1.959   1.966   1.969   1.987   1.996   2.013
  2.027   2.028   2.044   2.053   2.069   2.080   2.100   2.128
  2.139   2.159   2.173   2.205   2.221   2.248   2.261   2.288
  2.296   2.325   2.341   2.349   2.355   2.375   2.415   2.426
  2.445   2.456   2.464   2.474   2.489   2.497   2.517   2.531
  2.564   2.573   2.614   2.636   2.645   2.679   2.684   2.736
  2.747   2.760   2.769   2.789   2.852   2.856   2.877   2.885
  2.909   2.929   2.943   2.970   2.977   2.985   2.996   3.014
  3.059   3.082   3.091   3.097   3.109   3.145   3.149   3.216
  3.219   3.229   3.250   3.270   3.287   3.292   3.320   3.327
  3.347   3.377   3.391   3.415   3.431   3.445   3.450   3.468
  3.473   3.492   3.526   3.542   3.549   3.575   3.586   3.604
  3.615   3.621   3.639   3.655   3.658   3.664   3.676   3.692
  3.711   3.725   3.737   3.744   3.769   3.794   3.805   3.811
  3.822   3.846   3.881   3.894   3.933   3.983   4.015   4.047
  4.092   4.111   4.160   4.220   4.244   4.266   4.276   4.345
  4.432   4.445   4.482   4.558   4.598   4.652   4.708   4.736
  4.751   4.779   4.823   4.831   4.882   4.985   5.033   5.055
  5.066   5.231   5.263   5.302   5.309   5.327   5.340   5.345
  5.347   5.353   5.357   5.364   5.374   5.389   5.399   5.454
  5.505   5.510   5.545   5.562   5.641   5.698   5.714   5.728
  5.783   5.813   6.009   6.045   6.076   6.129   6.247   6.301
  6.314   6.339   6.364   6.502   6.605   6.618   6.624   6.625
  6.637   6.651   6.672   6.681   6.700   6.754   6.774   6.826
  6.952   6.962   6.969   6.985   7.051   7.060   7.183   7.234
  7.254   7.307   7.365   7.403   7.414   7.442   7.576  22.698
 22.883  22.956  23.163  23.746  43.822  44.274  44.417  44.427
 44.614
 --------------------------------------------------------------
 
          Ground-State Mulliken Net Atomic Charges

[...]
 O          0.005  0.003  0.007   -0.001  0.000  0.003   -0.002 -0.002  0.005
 C          0.107 -0.007  0.028    0.077  0.011  0.020   -0.103 -0.013  0.030
 H         -0.163  0.146 -0.191   -0.189  0.116 -0.226    0.327 -0.265  0.379
 H          0.018 -0.174  0.212   -0.068 -0.132  0.096    0.058  0.243 -0.232
 H          0.075 -0.232  0.313    0.059 -0.235  0.303    0.022  0.193 -0.325
 TransDip  -0.094  0.031 -0.033   -0.096 -0.057  0.116   -0.089  0.158  0.096

 Mode:                25                     26                     27
 Frequency:      1039.55                1077.19                1104.35
 Force Cnst:      1.5680                 1.5401                 1.9707
 Red. Mass:       2.4627                 2.2527                 2.7426
 IR Active:          YES                    YES                    YES
 IR Intens:       40.867                 10.885                  2.408
 Raman Active:       YES                    YES                    YES
               X      Y      Z        X      Y      Z        X      Y      Z
 C          0.008  0.006 -0.009    0.010 -0.112 -0.067    0.004 -0.001 -0.017
 O         -0.006  0.006 -0.011   -0.002  0.024  0.006    0.002  0.022 -0.033
 O          0.020 -0.003  0.007   -0.014  0.021  0.012   -0.011 -0.005  0.009
 C         -0.004 -0.030  0.043    0.006  0.110  0.078    0.164 -0.116  0.184
 H          0.105 -0.105  0.017   -0.042 -0.198 -0.091   -0.025  0.057 -0.011
 H         -0.040 -0.118  0.163    0.349  0.079 -0.249    0.150 -0.228  0.310
 C         -0.013  0.028 -0.043   -0.060 -0.143 -0.017   -0.153  0.130 -0.179
 H         -0.076 -0.041  0.033    0.304  0.060  0.103   -0.105  0.225 -0.312
 H         -0.102 -0.015  0.083   -0.290  0.116 -0.013   -0.093  0.266 -0.376
 C         -0.167  0.127 -0.168    0.147  0.125 -0.050    0.013 -0.019  0.072
 O          0.023  0.015  0.013   -0.020 -0.018 -0.024    0.006  0.003  0.001
 H         -0.030 -0.094  0.139   -0.295 -0.101  0.005    0.083 -0.275  0.381
 O          0.078 -0.090 -0.027   -0.019  0.007  0.022    0.006 -0.005 -0.012
 O         -0.008 -0.001  0.005    0.000  0.003  0.003   -0.000 -0.001  0.001
 C          0.039  0.044  0.168   -0.069 -0.029  0.056   -0.038 -0.026 -0.017
 H          0.034 -0.290 -0.041    0.268 -0.236  0.321    0.065 -0.006  0.118
 H         -0.279  0.149 -0.421    0.080  0.183 -0.152    0.075  0.012  0.056
 H          0.310 -0.419  0.344    0.073  0.076 -0.206   -0.066  0.113 -0.129
 TransDip  -0.050  0.194  0.040    0.016 -0.099 -0.033   -0.009 -0.008  0.048

 Mode:                28                     29                     30
 Frequency:      1160.20                1242.07                1259.07
 Force Cnst:      1.3637                 1.9402                 1.2610
 Red. Mass:       1.7195                 2.1346                 1.3501
 IR Active:          YES                    YES                    YES
 IR Intens:      130.240                254.268                 30.405
 Raman Active:       YES                    YES                    YES
               X      Y      Z        X      Y      Z        X      Y      Z
 C         -0.005  0.085  0.051   -0.007  0.046  0.026    0.007  0.004 -0.032
 O          0.002 -0.012 -0.012    0.001 -0.011  0.003    0.011 -0.024  0.044
 O         -0.001 -0.014 -0.010    0.008 -0.006 -0.003   -0.006  0.004 -0.003
 C          0.016 -0.078 -0.024   -0.007  0.013 -0.011    0.012  0.058 -0.096
 H          0.003 -0.151 -0.049   -0.058  0.017  0.015    0.013 -0.023 -0.016
 H         -0.207 -0.172  0.293   -0.131 -0.319  0.428   -0.138 -0.181  0.281
 C         -0.057 -0.012  0.013    0.025 -0.073 -0.074    0.000  0.068 -0.064
 H          0.067  0.245 -0.392    0.280  0.129 -0.128   -0.198 -0.245  0.342
 H         -0.125 -0.280  0.339   -0.249 -0.119  0.268   -0.137 -0.281  0.420
 C          0.129 -0.058 -0.096   -0.066  0.215  0.136    0.058 -0.010  0.013
 O          0.003  0.014  0.009   -0.012 -0.035 -0.027   -0.006 -0.006 -0.001
 H          0.246  0.231 -0.297    0.057  0.222 -0.349   -0.154 -0.319  0.440
 O         -0.050  0.052  0.044    0.047 -0.057 -0.042   -0.007  0.007  0.003
 O          0.006  0.006 -0.004   -0.010 -0.005  0.009    0.001  0.001 -0.001
 C         -0.045  0.016  0.043    0.009 -0.047 -0.051   -0.030 -0.003 -0.010
 H          0.107 -0.162  0.105    0.054  0.128  0.123    0.091 -0.052  0.105
 H         -0.033  0.147 -0.190    0.159 -0.116  0.266    0.053  0.019  0.047
 H          0.102 -0.033 -0.076   -0.122  0.038  0.031    0.005 -0.014 -0.031
 TransDip   0.173 -0.240 -0.214   -0.265  0.343  0.270   -0.026  0.043 -0.169

 Mode:                31                     32                     33
 Frequency:      1314.62                1355.41                1378.98
 Force Cnst:      1.1882                 1.5754                 1.6008
 Red. Mass:       1.1669                 1.4554                 1.4288
 IR Active:          YES                    YES                    YES
 IR Intens:       31.655                 22.179                 23.693
 Raman Active:       YES                    YES                    YES
               X      Y      Z        X      Y      Z        X      Y      Z
 C          0.002  0.030  0.004   -0.021 -0.023  0.040    0.027  0.027 -0.041
 O          0.004 -0.010  0.010   -0.011  0.026 -0.044    0.010 -0.023  0.039
 O         -0.005 -0.003 -0.003    0.023 -0.001  0.004   -0.027  0.001 -0.005
 C          0.008  0.059  0.022   -0.039 -0.057  0.091    0.031  0.039 -0.053
 H          0.018  0.012 -0.006    0.013 -0.033 -0.013    0.010 -0.027 -0.004
 H         -0.026 -0.325  0.423    0.162  0.113 -0.262   -0.126 -0.058  0.186
 C         -0.004 -0.042 -0.040    0.044  0.057 -0.077   -0.034 -0.052  0.081
 H         -0.041 -0.288  0.465   -0.212 -0.256  0.255    0.137  0.182 -0.193
 H         -0.016  0.296 -0.361   -0.141 -0.047  0.207    0.151  0.135 -0.294
 C          0.016 -0.063 -0.025    0.010 -0.017 -0.015   -0.029 -0.020 -0.036
 O          0.003  0.008  0.005    0.002  0.001  0.008    0.014  0.014  0.014
 H         -0.026  0.204 -0.346    0.156  0.239 -0.233   -0.126 -0.151  0.107
 O         -0.011  0.013  0.010   -0.004  0.005  0.004    0.001  0.002  0.002
 O          0.003  0.001 -0.003    0.001  0.001 -0.001    0.000  0.000 -0.000
 C          0.001  0.009  0.015   -0.051  0.046 -0.063   -0.041  0.070 -0.074
 H         -0.038 -0.036 -0.063    0.301 -0.193  0.224    0.318 -0.226  0.187
 H         -0.051  0.023 -0.075    0.116 -0.096  0.373    0.096 -0.142  0.448
 H          0.023  0.029 -0.043    0.091 -0.312  0.174    0.125 -0.391  0.238
 TransDip   0.092 -0.059 -0.143    0.073 -0.123  0.048    0.037 -0.032 -0.148

 Mode:                34                     35                     36
 Frequency:      1434.72                1454.81                1458.79
 Force Cnst:      4.8156                 1.5963                 1.3449
 Red. Mass:       3.9707                 1.2801                 1.0726
 IR Active:          YES                    YES                    YES
 IR Intens:      397.614                 41.086                 22.001
 Raman Active:       YES                    YES                    YES
               X      Y      Z        X      Y      Z        X      Y      Z
 C          0.258  0.163 -0.222    0.049  0.040 -0.061    0.016  0.014 -0.021
 O          0.038 -0.093  0.154    0.011 -0.022  0.037    0.004 -0.008  0.014
 O         -0.195  0.001 -0.029   -0.035 -0.000 -0.004   -0.012 -0.000 -0.001
 C         -0.130 -0.059  0.077    0.043 -0.050  0.072    0.014 -0.014  0.019
 H          0.020 -0.057 -0.030    0.025 -0.060 -0.020   -0.075  0.259  0.087
 H          0.432 -0.252 -0.285   -0.411  0.466  0.005   -0.131  0.144  0.003
 C          0.034  0.007 -0.007   -0.010  0.032 -0.041    0.012  0.001 -0.005
 H         -0.145 -0.085 -0.074    0.140  0.029  0.190   -0.047 -0.027 -0.031
 H         -0.131  0.084  0.090    0.137 -0.194  0.032   -0.055  0.027  0.038
 C         -0.002  0.015  0.005   -0.002 -0.001  0.001   -0.000  0.007 -0.001
 O         -0.004 -0.005 -0.004   -0.000 -0.001 -0.000   -0.002 -0.000  0.000
 H          0.449  0.334  0.178   -0.425 -0.171 -0.417   -0.134 -0.056 -0.126
 O          0.001  0.001 -0.001    0.000  0.004  0.000   -0.001 -0.016 -0.001
 O          0.001  0.001 -0.000    0.000  0.001 -0.000   -0.000 -0.003 -0.001
 C          0.008 -0.010  0.001    0.015 -0.003 -0.006   -0.046 -0.007  0.030
 H         -0.022  0.055  0.007    0.078 -0.003  0.077   -0.276  0.056 -0.231
 H         -0.011  0.007 -0.049   -0.146 -0.072 -0.072    0.465  0.259  0.155
 H         -0.044  0.037  0.013   -0.162  0.088  0.097    0.480 -0.230 -0.327
 TransDip   0.448  0.275 -0.363    0.033  0.101 -0.176   -0.001  0.142 -0.048

 Mode:                37                     38                     39
 Frequency:      1466.20                1472.90                1502.88
 Force Cnst:      1.3934                 1.3511                 1.4759
 Red. Mass:       1.1001                 1.0570                 1.1090
 IR Active:          YES                    YES                    YES
 IR Intens:       19.358                  8.507                108.720
 Raman Active:       YES                    YES                    YES
               X      Y      Z        X      Y      Z        X      Y      Z
 C          0.006 -0.004  0.009   -0.002 -0.002  0.004    0.004  0.002 -0.001
 O         -0.002  0.004 -0.007   -0.001  0.002 -0.003   -0.000 -0.001  0.001
 O         -0.002  0.000 -0.001    0.002  0.000  0.000   -0.003  0.000 -0.001
 C         -0.032 -0.004  0.006   -0.004  0.003 -0.000   -0.002  0.000  0.000
 H         -0.029  0.096  0.028    0.007  0.001 -0.009   -0.272  0.860  0.269
 H          0.159 -0.129 -0.054    0.029 -0.032  0.003    0.002 -0.006 -0.001
 C         -0.070  0.025 -0.034   -0.015  0.003  0.001   -0.002 -0.011  0.004
 H          0.484  0.205  0.386    0.079  0.024  0.090   -0.016 -0.007 -0.028
 H          0.441 -0.453 -0.080    0.102 -0.058 -0.062   -0.051  0.011  0.030
 C         -0.009 -0.000 -0.002   -0.008 -0.022 -0.023    0.054  0.010 -0.046
 O          0.003  0.003  0.002    0.003  0.004  0.004   -0.003  0.006  0.003
 H          0.164  0.102  0.094    0.025  0.019  0.013    0.007  0.008 -0.003
 O          0.002 -0.007 -0.001   -0.001  0.002  0.003   -0.010 -0.050  0.005
 O          0.000 -0.002  0.000    0.001  0.000 -0.000    0.000 -0.012 -0.002
 C         -0.007  0.011  0.010   -0.015 -0.045 -0.028    0.007  0.007 -0.003
 H         -0.036 -0.113 -0.107    0.005  0.581  0.381    0.127 -0.041  0.116
 H          0.017 -0.022  0.089    0.327  0.337 -0.269   -0.154 -0.060 -0.077
 H          0.111 -0.008 -0.110   -0.110 -0.254  0.330   -0.139  0.048  0.122
 TransDip   0.127 -0.032  0.053    0.077  0.050  0.019   -0.236  0.153  0.180

 Mode:                40                     41                     42
 Frequency:      1585.26                2193.61                3064.67
 Force Cnst:     15.2023                 3.1629                 5.7141
 Red. Mass:      10.2673                 1.1156                 1.0326
 IR Active:          YES                    YES                    YES
 IR Intens:     1255.333               3917.361                 22.268
 Raman Active:       YES                    YES                    YES
               X      Y      Z        X      Y      Z        X      Y      Z
 C          0.587 -0.229  0.449   -0.001 -0.001  0.001   -0.000  0.000 -0.000
 O         -0.107  0.128 -0.221    0.000  0.000 -0.001    0.000 -0.000  0.000
 O         -0.298  0.033 -0.094    0.001  0.000 -0.000    0.000 -0.000  0.000
 C         -0.020  0.031 -0.053    0.001 -0.000 -0.000   -0.008 -0.001 -0.003
 H          0.005 -0.019 -0.001    0.693  0.374 -0.610   -0.003  0.000 -0.001
 H         -0.258 -0.022  0.253    0.001  0.000 -0.000    0.061  0.061  0.063
 C          0.020  0.000 -0.004    0.004 -0.005 -0.004   -0.005  0.001 -0.001
 H         -0.016 -0.032 -0.008    0.014  0.014 -0.016    0.026 -0.041 -0.019
 H         -0.013  0.026  0.023   -0.005 -0.002  0.005    0.028  0.028  0.030
 C         -0.007  0.001  0.003   -0.008  0.019  0.006    0.000  0.001  0.000
 O         -0.001 -0.001 -0.001    0.000 -0.003 -0.002   -0.000 -0.000 -0.001
 H         -0.223 -0.185  0.054    0.000 -0.000  0.004    0.035 -0.048 -0.023
 O          0.001  0.001 -0.000   -0.054 -0.033  0.050    0.000 -0.000 -0.000
 O         -0.000  0.000  0.000    0.012  0.004 -0.011    0.000 -0.000  0.000
 C          0.001  0.001 -0.001    0.002 -0.002 -0.001    0.018 -0.022  0.037
 H         -0.006  0.006 -0.006    0.002 -0.001 -0.001    0.426  0.213 -0.344
 H          0.006  0.001  0.004   -0.000 -0.005  0.014   -0.266  0.391  0.229
 H          0.004 -0.004 -0.000    0.000  0.002 -0.000   -0.366 -0.351 -0.313
 TransDip   0.827 -0.352  0.693    1.453  0.313 -1.345    0.041 -0.070  0.128

 Mode:                43                     44                     45
 Frequency:      3065.04                3082.99                3105.29
 Force Cnst:      5.8775                 5.9310                 6.2512
 Red. Mass:       1.0619                 1.0591                 1.1003
 IR Active:          YES                    YES                    YES
 IR Intens:       25.387                 42.403                 10.206
 Raman Active:       YES                    YES                    YES
               X      Y      Z        X      Y      Z        X      Y      Z
 C         -0.000  0.001 -0.002    0.001 -0.000  0.000    0.000 -0.001 -0.001
 O          0.000 -0.000  0.000   -0.000 -0.000  0.000   -0.000  0.000  0.000
 O          0.000 -0.000  0.000   -0.000  0.000 -0.000   -0.000 -0.000 -0.000
 C         -0.065 -0.001 -0.022    0.008  0.003  0.003    0.010 -0.072 -0.048
 H          0.000  0.000 -0.000   -0.002 -0.002  0.002   -0.000  0.001 -0.001
 H          0.452  0.452  0.467   -0.067 -0.066 -0.069    0.326  0.301  0.316
 C          0.009 -0.000  0.005    0.065 -0.013  0.014    0.003  0.023  0.016
 H         -0.039  0.061  0.027   -0.360  0.545  0.241    0.105 -0.148 -0.066
 H         -0.064 -0.063 -0.065   -0.407 -0.398 -0.403   -0.141 -0.131 -0.132
 C          0.000  0.001 -0.000    0.001  0.000  0.001    0.000  0.000  0.000
 O         -0.000 -0.000  0.000   -0.000 -0.000 -0.000   -0.000 -0.000 -0.000
 H          0.322 -0.436 -0.206   -0.027  0.037  0.018   -0.453  0.571  0.266
 O         -0.000 -0.000  0.000   -0.000  0.000 -0.000    0.000  0.000 -0.000
 O          0.000 -0.000  0.000    0.000  0.000 -0.000   -0.000 -0.000  0.000
 C         -0.002  0.002 -0.005    0.001 -0.002  0.004   -0.001 -0.001 -0.001
 H         -0.049 -0.024  0.039    0.042  0.022 -0.035    0.003  0.001 -0.003
 H          0.031 -0.046 -0.027   -0.019  0.028  0.016   -0.001  0.001  0.001
 H          0.045  0.044  0.038   -0.037 -0.033 -0.033    0.013  0.012  0.011
 TransDip  -0.114  0.043 -0.106    0.189 -0.039  0.079   -0.002 -0.101 -0.016

 Mode:                46                     47                     48
 Frequency:      3136.42                3155.22                3162.63
 Force Cnst:      6.4072                 6.4779                 6.5142
 Red. Mass:       1.1055                 1.1044                 1.1054
 IR Active:          YES                    YES                    YES
 IR Intens:       36.178                 19.842                 32.671
 Raman Active:       YES                    YES                    YES
               X      Y      Z        X      Y      Z        X      Y      Z
 C         -0.000 -0.000 -0.000    0.000  0.000 -0.000   -0.000 -0.000  0.000
 O          0.000  0.000  0.000    0.000  0.000  0.000   -0.000 -0.000 -0.000
 O         -0.000  0.000  0.000    0.000 -0.000  0.000   -0.000  0.000 -0.000
 C          0.002 -0.023 -0.016    0.000  0.002  0.001    0.000 -0.002 -0.001
 H         -0.003  0.001  0.002   -0.002 -0.002 -0.001   -0.003 -0.001  0.004
 H          0.114  0.106  0.115   -0.009 -0.009 -0.009    0.010  0.010  0.011
 C         -0.003 -0.074 -0.050   -0.000  0.000  0.000    0.000 -0.009 -0.006
 H         -0.362  0.521  0.225    0.002 -0.004 -0.003   -0.050  0.073  0.032
 H          0.398  0.364  0.375   -0.001 -0.001 -0.003    0.045  0.041  0.042
 C          0.000 -0.001 -0.001   -0.001 -0.001  0.000    0.001 -0.001 -0.001
 O         -0.000 -0.000  0.000    0.000  0.000 -0.000   -0.000  0.000 -0.000
 H         -0.134  0.171  0.076    0.008 -0.011 -0.005   -0.013  0.018  0.007
 O          0.000  0.000 -0.000    0.000  0.000  0.000   -0.000  0.000  0.000
 O          0.000 -0.000  0.000   -0.000  0.000  0.000    0.000  0.000 -0.000
 C         -0.006  0.007  0.008   -0.077 -0.054  0.004    0.038 -0.058 -0.063
 H          0.036  0.021 -0.028    0.506  0.256 -0.428   -0.260 -0.144  0.208
 H          0.054 -0.079 -0.045   -0.010 -0.009 -0.001   -0.428  0.629  0.354
 H         -0.023 -0.020 -0.017    0.423  0.402  0.381    0.241  0.211  0.192
 TransDip   0.008 -0.166 -0.097   -0.102 -0.087  0.049    0.086 -0.112 -0.116

 STANDARD THERMODYNAMIC QUANTITIES AT   298.15 K  AND     1.00 ATM

   This Molecule has  0 Imaginary Frequencies
   Zero point vibrational energy:       80.859 kcal/mol

   Atom    1 Element C  Has Mass   12.00000
   Atom    2 Element O  Has Mass   15.99491
   Atom    3 Element O  Has Mass   15.99491
   Atom    4 Element C  Has Mass   12.00000
   Atom    5 Element H  Has Mass    1.00783
   Atom    6 Element H  Has Mass    1.00783
   Atom    7 Element C  Has Mass   12.00000
   Atom    8 Element H  Has Mass    1.00783
   Atom    9 Element H  Has Mass    1.00783
   Atom   10 Element C  Has Mass   12.00000
   Atom   11 Element O  Has Mass   15.99491
   Atom   12 Element H  Has Mass    1.00783
   Atom   13 Element O  Has Mass   15.99491
   Atom   14 Element O  Has Mass   15.99491
   Atom   15 Element C  Has Mass   12.00000
   Atom   16 Element H  Has Mass    1.00783
   Atom   17 Element H  Has Mass    1.00783
   Atom   18 Element H  Has Mass    1.00783
   Molecular Mass:   148.037190 amu
   Principal axes and moments of inertia in amu*Bohr^2:
                             1           2           3
    Eigenvalues --      661.62759  3338.82492  3569.29756
          X              -0.51804     0.76997     0.37252
          Y              -0.37699    -0.59647     0.70859
          Z               0.76780     0.22665     0.59927
   Rotational Symmetry Number is   1
   The Molecule is an Asymmetric Top
   Translational Enthalpy:        0.889 kcal/mol
   Rotational Enthalpy:           0.889 kcal/mol
   Vibrational Enthalpy:         86.393 kcal/mol
   gas constant (RT):             0.592 kcal/mol
   Translational Entropy:        40.887  cal/mol.K
   Rotational Entropy:           30.445  cal/mol.K
   Vibrational Entropy:          38.581  cal/mol.K

   Total Enthalpy:               88.763 kcal/mol
   Total Entropy:               109.913  cal/mol.K
Archival summary:
1\1\c5-65\FREQ\ProcedureUnspecified\BasisUnspecified\558(2-,1)\leeping\SatMar2106:35:562020SatMar2106:35:562020\0\\#,FREQ,ProcedureUnspecified,BasisUnspecified,\\-2,1\O\H,1,1.04889\C,1,1.39124,2,110.2\O,3,1.36119,1,113.948,2,60.8411,0\O,2,1.47878,1,177.314,3,170.595,0\C,3,1.55483,1,109.155,2,-178.358,0\H,6,1.09316,3,108.185,1,174.447,0\H,6,1.09343,3,106.246,1,58.9252,0\C,6,1.52227,3,113.11,1,-62.5995,0\H,9,1.09514,6,110.115,3,55.0132,0\H,9,1.09571,6,110.585,3,-62.0427,0\C,9,1.53705,6,114.897,3,176.119,0\O,12,1.25716,9,118.62,6,-5.55756,0\O,12,1.26087,9,115.914,6,174.878,0\C,3,1.55516,1,110.98,2,-58.3089,0\H,15,1.09123,3,110.899,1,-178.011,0\H,15,1.09227,3,109.418,1,60.6886,0\H,15,1.09246,3,107.579,1,-57.914,0\\\@

 Total job time:  66149.74s(wall), 931753.67s(cpu) 
 Sat Mar 21 06:35:56 2020

        *************************************************************
        *                                                           *
        *  Thank you very much for using Q-Chem.  Have a nice day.  *
        *                                                           *
        *************************************************************


