
Running Job 1 of 1 qc-freq2.in
qchem qc-freq2.in_27717.0 /scratch/leeping/1862941/qc-freq2.d/ 1
/home/leeping/opt/qchem/5.0.2-openmp/exe/qcprog.exe_s qc-freq2.in_27717.0 /scratch/leeping/1862941/qc-freq2.d/
Check license passed

                  Welcome to Q-Chem
     A Quantum Leap Into The Future Of Chemistry


 Q-Chem 5.0, Q-Chem, Inc., Pleasanton, CA (2017)

 Yihan Shao,  Zhengting Gan,  E. Epifanovsky,  A. T. B. Gilbert,  M. Wormit,  
 J. Kussmann,  A. W. Lange,  A. Behn,  Jia Deng,  Xintian Feng,  D. Ghosh,  
 M. Goldey,  P. R. Horn,  L. D. Jacobson,  I. Kaliman,  T. Kus,  A. Landau,  
 Jie Liu,  E. I. Proynov,  R. M. Richard,  R. P. Steele,  E. J. Sundstrom,  
 H. L. Woodcock III,  P. M. Zimmerman,  D. Zuev,  B. Albrecht,  E. Alguire,  
 S. A. Baeppler,  D. Barton,  Z. Benda,  Y. A. Bernard,  E. J. Berquist,  
 K. B. Bravaya,  H. Burton,  D. Casanova,  Chun-Min Chang,  Yunqing Chen,  
 A. Chien,  K. D. Closser,  M. P. Coons,  S. Dasgupta,  A. L. Dempwolff,  
 M. Diedenhofen,  Hainam Do,  R. G. Edgar,  Po-Tung Fang,  S. Fatehi,  
 Qingguo Feng,  J. Fosso-Tande,  Qinghui Ge,  A. Ghysels,  G. Gidofalvi,  
 J. Gomes,  J. Gonthier,  A. Gunina,  M. W. D. Hanson-Heine,  
 P. H. P. Harbach,  A. W. Hauser,  J. E. Herr,  E. G. Hohenstein,  
 Z. C. Holden,  Kerwin Hui,  T.-C. Jagau,  Hyunjun Ji,  B. Kaduk,  
 K. Khistyaev,  Jaehoon Kim,  P. Klunzinger,  K. Koh,  D. Kosenkov,  
 L. Koulias,  T. Kowalczyk,  C. M. Krauter,  A. Kunitsa,  Ka Un Lao,  
 A. Laurent,  K. V. Lawler,  Joonho Lee,  D. Lefrancois,  S. Lehtola,  
 D. S. Levine,  Yi-Pei Li,  You-Sheng Lin,  Fenglai Liu,  E. Livshits,  
 A. Luenser,  P. Manohar,  E. Mansoor,  S. F. Manzer,  Shan-Ping Mao,  
 Yuezhi Mao,  N. Mardirossian,  A. V. Marenich,  T. Markovich,  
 L. A. Martinez-Martinez,  S. A. Maurer,  N. J. Mayhall,  S. C. McKenzie,  
 J.-M. Mewes,  A. F. Morrison,  J. W. Mullinax,  K. Nanda,  
 T. S. Nguyen-Beck,  R. Olivares-Amaya,  J. A. Parkhill,  T. M. Perrine,  
 F. Plasser,  S. Prager,  A. Prociuk,  E. Ramos,  D. R. Rehn,  F. Rob,  
 M. Schneider,  N. Sergueev,  S. M. Sharada,  S. Sharma,  D. W. Small,  
 T. Stauch,  T. Stein,  Yu-Chuan Su,  A. J. W. Thom,  A. Tkatchenko,  
 T. Tsuchimochi,  L. Vogt,  O. Vydrov,  M. A. Watson,  J. Wenzel,  
 M. de Wergifosse,  T. A. Wesolowski,  A. White,  J. Witte,  A. Yamada,  
 Jun Yang,  K. Yao,  S. Yeganeh,  S. R. Yost,  Zhi-Qiang You,  A. Zech,  
 Igor Ying Zhang,  Xing Zhang,  Yan Zhao,  Ying Zhu,  B. R. Brooks,  
 G. K. L. Chan,  C. J. Cramer,  M. S. Gordon,  W. J. Hehre,  A. Klamt,  
 M. W. Schmidt,  C. D. Sherrill,  D. G. Truhlar,  A. Aspuru-Guzik,  R. Baer,  
 A. T. Bell,  N. A. Besley,  Jeng-Da Chai,  R. A. DiStasio Jr.,  A. Dreuw,  
 B. D. Dunietz,  T. R. Furlani,  Chao-Ping Hsu,  Yousung Jung,  Jing Kong,  
 D. S. Lambrecht,  WanZhen Liang,  C. Ochsenfeld,  V. A. Rassolov,  
 L. V. Slipchenko,  J. E. Subotnik,  T. Van Voorhis,  J. M. Herbert,  
 A. I. Krylov,  P. M. W. Gill,  M. Head-Gordon

 Contributors to earlier versions of Q-Chem not listed above: 
 R. D. Adamson,  B. Austin,  J. Baker,  G. J. O. Beran,  K. Brandhorst,  
 S. T. Brown,  E. F. C. Byrd,  A. K. Chakraborty,  C.-L. Cheng,  
 Siu Hung Chien,  D. M. Chipman,  D. L. Crittenden,  H. Dachsel,  
 R. J. Doerksen,  A. D. Dutoi,  L. Fusti-Molnar,  W. A. Goddard III,  
 A. Golubeva-Zadorozhnaya,  S. R. Gwaltney,  G. Hawkins,  A. Heyden,  
 S. Hirata,  G. Kedziora,  F. J. Keil,  C. Kelley,  Jihan Kim,  R. A. King,  
 R. Z. Khaliullin,  P. P. Korambath,  W. Kurlancheek,  A. M. Lee,  M. S. Lee,  
 S. V. Levchenko,  Ching Yeh Lin,  D. Liotard,  R. C. Lochan,  I. Lotan,  
 P. E. Maslen,  N. Nair,  D. P. O'Neill,  D. Neuhauser,  E. Neuscamman,  
 C. M. Oana,  R. Olson,  B. Peters,  R. Peverati,  P. A. Pieniazek,  
 Y. M. Rhee,  J. Ritchie,  M. A. Rohrdanz,  E. Rosta,  N. J. Russ,  
 H. F. Schaefer III,  N. E. Schultz,  N. Shenvi,  A. C. Simmonett,  A. Sodt,  
 D. Stuck,  K. S. Thanthiriwatte,  V. Vanovschi,  Tao Wang,  A. Warshel,  
 C. F. Williams,  Q. Wu,  X. Xu,  W. Zhang

 Please cite Q-Chem as follows:
 Y. Shao et al., Mol. Phys. 113, 184-215 (2015)
 DOI: 10.1080/00268976.2014.952696

 Q-Chem 5.0.2 for Intel X86 EM64T Linux

 Parts of Q-Chem use Armadillo 5.200.1 (Boston Tea Smuggler).
 http://arma.sourceforge.net/

 Q-Chem begins on Sat Mar 21 02:26:04 2020  

Host: 
0

     Scratch files written to /scratch/leeping/1862941/qc-freq2.d//
 Dec517 15110_ 26548  26544 5633   
Processing $rem in /home/leeping/opt/qchem/5.0.2-openmp/config/preferences.
 MEM_STATIC 2000
 MEM_TOTAL  8000
 SYMMETRY   OFF
 SYM_IGNORE TRUE 
Symmetry turned off for PCM/SM12/SMD calculation

Checking the input file for inconsistencies... 	...done.

--------------------------------------------------------------
User input:
--------------------------------------------------------------
$molecule
-2 1
C        0.2032994775    0.5091934175    0.3966634910
C       -0.2299114598    1.4301480855   -0.6337608820
O       -0.3567941017    1.0310301277   -1.8528103476
O       -0.5461671548    2.6384526641   -0.3023482803
C        0.8948717709   -0.7509513113    0.0563660911
H        0.5065190865    0.9761323874    1.3382118739
H        0.4034067235   -1.2523291118   -0.7870046249
H        0.9021399098   -1.4449341428    0.9095504837
O        2.3126189565   -0.5573233096   -0.3289476976
H       -1.4734507982   -0.1282009675    0.7645010065
O       -2.4023722771   -0.5044790746    0.9752959990
H       -2.8695758997   -0.4953931244    0.1323745293
H        2.6807680362   -1.4279435929   -0.5259731962
$end

$rem
jobtype               freq
method                wb97x-v
basis                 def2-tzvpd
symmetry              off
sym_ignore            true
incdft                false
incfock               0
!scf_algorithm        diis_gdm
scf_convergence       8
thresh                14
!purecart             112
max_scf_cycles        1000
geom_opt_max_cycles   500
geom_opt_dmax         100
geom_opt_tol_gradient 10
solvent_method        pcm
ideriv                1
rpath_tol_displacement 1000
rpath_max_cycles      100
rpath_direction       1
!scf_guess            read
scf_guess             read
$end

$pcm
theory              cosmo
method              iswig
Radii               bondi
vdwScale            1.20
hpoints             110
heavypoints         110
$end

$solvent
dielectric 78.400000
$end

--------------------------------------------------------------
 ----------------------------------------------------------------
             Standard Nuclear Orientation (Angstroms)
    I     Atom           X                Y                Z
 ----------------------------------------------------------------
    1      C       0.2032994775     0.5091934175     0.3966634910
    2      C      -0.2299114598     1.4301480855    -0.6337608820
    3      O      -0.3567941017     1.0310301277    -1.8528103476
    4      O      -0.5461671548     2.6384526641    -0.3023482803
    5      C       0.8948717709    -0.7509513113     0.0563660911
    6      H       0.5065190865     0.9761323874     1.3382118739
    7      H       0.4034067235    -1.2523291118    -0.7870046249
    8      H       0.9021399098    -1.4449341428     0.9095504837
    9      O       2.3126189565    -0.5573233096    -0.3289476976
   10      H      -1.4734507982    -0.1282009675     0.7645010065
   11      O      -2.4023722771    -0.5044790746     0.9752959990
   12      H      -2.8695758997    -0.4953931244     0.1323745293
   13      H       2.6807680362    -1.4279435929    -0.5259731962
 ----------------------------------------------------------------
 Nuclear Repulsion Energy =   295.7618689472 hartrees
 There are       29 alpha and       29 beta electrons
 Requested basis set is def2-TZVPD
 There are 125 shells and 325 basis functions

 Total QAlloc Memory Limit   8000 MB
 Mega-Array Size      1956 MB
 MEM_STATIC part      2000 MB
 Discretize the solute cavity surface with Lebedev spheres
	Using 110 Lebedev grid points for each H atom
	Using 110 Lebedev grid points for other atoms
	Atomic van der Waals radii will be scaled by 1.20
 Remove points where switching function is < 1.0e-08
 Keep 849 surface tesserae and discard 581 interior tesserae
 Molecular Surface Area = 157.901 Angst**2

                       Distance Matrix (Angstroms)
             C (  1)   C (  2)   O (  3)   O (  4)   C (  5)   H (  6)
   C (  2)  1.448311
   O (  3)  2.376163  1.288983
   O (  4)  2.363062  1.292228  2.241339
   C (  5)  1.477173  2.549237  2.896046  3.700450
   H (  6)  1.093841  2.153401  3.306198  2.561815  2.185581
   H (  7)  2.131684  2.760482  2.632029  4.034199  1.097357  3.081107
   H (  8)  2.137766  3.453903  3.917391  4.498927  1.099813  2.490347
   O (  9)  2.472488  3.241514  3.459883  4.287931  1.481879  2.897051
   H ( 10)  1.831138  2.435155  3.072630  3.106830  2.549162  2.338584
   O ( 11)  2.855148  3.324369  3.813183  3.867285  3.431763  3.284139
   H ( 12)  3.243702  3.355965  3.547534  3.925328  3.773878  3.875235
   H ( 13)  3.277439  4.080730  4.127206  5.196027  1.996713  3.739268
             H (  7)   H (  8)   O (  9)   H ( 10)   O ( 11)   H ( 12)
   H (  8)  1.778800
   O (  9)  2.082772  2.076339
   H ( 10)  2.682057  2.719974  3.964101
   O ( 11)  3.396672  3.436361  4.892340  1.024165
   H ( 12)  3.482905  3.966292  5.203057  1.575938  0.963783
   H ( 13)  2.298989  2.285724  0.965574  4.540065  5.380048  5.666515

 
 A cutoff of  1.0D-14 yielded   7428 shell pairs
 There are     50728 function pairs (     64543 Cartesian)
 
 -------------------------------------------------------
 OpenMP Integral Computing Module                       
 Release: version 1.0, May 2013, Q-Chem Inc. Pittsburgh 
 -------------------------------------------------------
 Integral Job Info:
 Integral job number is                      11
 Integral operator is                         1
 short-range coefficients              16700000
 long-range coefficients              100000000
 Omega coefficients                         300
 if combine SR and LR in K                    1
 Integral screening is                        0
 Integral computing path is                   2
 max size of driver memory is            800000
 size of driver memory is                776718
 size of scratch memory is              4473992
 max col of scratch BK array              10000
 max len of scratch array in speh3          662
 max len of scratch index in speh4           32
 max int batch size is                      520
 min int batch size is                       52
 fixed nKL is                                52
 max L of basis functions is                  3
 order of int derivative is                   0
 number of shells is                        125
 number of basis is                         367
 number of cartesian basis is               367
 number of contracted shell pairs          7428
 number of primitive shell pairs          15338
 maxK2 (contraction) of shell pair           36
 max number of K2 of shell pair               1
 max number of CS2 of shell pair           1223
 max number of PS2 of shell pair           1698
 mem total for path MDJ                  652836
 -------------------------------------------------------
 Smallest overlap matrix eigenvalue = 5.51E-06
 Guess MOs from SCF MO coefficient file
 Reading MOs from coefficient file
 Reading MOs from coefficient file
 Long-range K will be added via erf
 Coulomb attenuation parameter = 0.3 bohr**(-1)
 A restricted hybrid HF-DFT SCF calculation will be
 performed using Pulay DIIS extrapolation
 Polarizable Continuum solvation model will be applied
 Exchange:     0.1670 Hartree-Fock + 1.0000 wB97X-V + LR-HF
 Correlation:  1.0000 wB97X-V
 Using SG-2 standard quadrature grid
 Nonlocal Correlation:  VV10 with C = 0.0100 and b = 6.00
 Grid used for NLC:  SG-1 standard quadrature
 SCF converges when DIIS error is below 1.0E-08
Using Q-Chem read-in guess as SCF_GUESS READ specified.

 using 16 threads for integral computing
 -------------------------------------------------------
 OpenMP Integral computing Module                
 Release: version 1.0, May 2013, Q-Chem Inc. Pittsburgh 
 -------------------------------------------------------
 using 16 threads for integral computing
 -------------------------------------------------------
 OpenMP Integral computing Module                
 Release: version 1.0, May 2013, Q-Chem Inc. Pittsburgh 
 -------------------------------------------------------
 -------------------------------------------------------
 OpenMP BLAS3 based DFT computing Module                
 Release: version 1.0, May 2013, Q-Chem Inc. Pittsburgh 
 -------------------------------------------------------
 -------------------------------------------------------
 OpenMP BLAS3 based DFT computing Module                
 Release: version 1.0, May 2013, Q-Chem Inc. Pittsburgh 
 -------------------------------------------------------
 -------------------------------------------------------
 OpenMP BLAS3 based DFT computing Module                
 Release: version 1.0, May 2013, Q-Chem Inc. Pittsburgh 
 -------------------------------------------------------
 ---------------------------------------
  Cycle       Energy         DIIS Error
 ---------------------------------------
    1    -418.7425546119      6.55E-04
    2    -419.0876301368      7.44E-04
    3    -419.0985903873      3.24E-04
    4    -419.1004007128      2.36E-04
    5    -419.1014347024      1.78E-04
    6    -419.1019872385      1.38E-04
    7    -419.1023864861      9.96E-05
    8    -419.1025467009      7.96E-05
    9    -419.1026591306      6.18E-05
   10    -419.1027417158      4.43E-05
   11    -419.1027751819      3.48E-05
   12    -419.1027987609      2.60E-05
   13    -419.1028091872      2.10E-05
   14    -419.1028176718      1.57E-05
   15    -419.1028222037      1.20E-05
   16    -419.1028242584      9.82E-06
   17    -419.1028284935      8.64E-09 Convergence criterion met
 ---------------------------------------

************** Final PCM Free Energy Summary **************
 G_electrostatic  =      -0.36027477 hartree =    -226.07583128 kcal/mol
 G_cavitation     =       0.00000000 hartree =       0.00000000 kcal/mol
 G_dispersion     =       0.00000000 hartree =       0.00000000 kcal/mol
 G_repulsion      =       0.00000000 hartree =       0.00000000 kcal/mol
 --------------------------------------------------
 Non-electrostatic Free Energy =       0.00000000 hartree =       0.00000000 kcal/mol
 Total                         =      -0.36027477 hartree =    -226.07583128 kcal/mol
 --------------------------------------------------
 SCF Energy (H0 + V/2)                       =    -419.10282849 
 Solute Internal Energy (H0)                 =    -418.74255372 
 Total Free Energy (H0 + V/2 + non-elec)     =    -419.10282849 hartree
                                             = -262990.99420256 kcal/mol
***********************************************************

 SCF time:  CPU 1431.76 s  wall 103.10 s
 SCF   energy in the final basis set = -419.10282849
 Total energy in the final basis set = -419.10282849
 
 --------------------------------------------------------------
 
                    Orbital Energies (a.u.)
 --------------------------------------------------------------
 
 Alpha MOs
 -- Occupied --
-19.183 -19.174 -19.107 -19.106 -10.305 -10.278 -10.174  -1.109
 -1.098  -1.090  -1.001  -0.831  -0.705  -0.600  -0.583  -0.567
 -0.535  -0.497  -0.484  -0.471  -0.455  -0.446  -0.409  -0.395
 -0.360  -0.319  -0.317  -0.296  -0.239
 -- Virtual --
  0.061   0.079   0.084   0.089   0.111   0.115   0.123   0.127
  0.130   0.146   0.154   0.164   0.170   0.174   0.185   0.195
  0.199   0.202   0.224   0.236   0.247   0.260   0.264   0.276
  0.288   0.292   0.294   0.313   0.318   0.326   0.329   0.342
  0.344   0.347   0.364   0.371   0.374   0.380   0.392   0.394
  0.400   0.412   0.417   0.426   0.429   0.433   0.440   0.451
  0.465   0.476   0.479   0.485   0.490   0.497   0.503   0.515
  0.522   0.531   0.536   0.550   0.571   0.571   0.578   0.583
  0.592   0.595   0.614   0.620   0.628   0.636   0.639   0.651
  0.659   0.663   0.686   0.695   0.705   0.707   0.718   0.727
  0.747   0.752   0.753   0.765   0.782   0.791   0.803   0.810
  0.828   0.834   0.842   0.851   0.860   0.867   0.875   0.885
  0.908   0.914   0.937   0.953   0.981   0.998   1.016   1.025
  1.059   1.061   1.081   1.091   1.093   1.124   1.132   1.155
  1.183   1.191   1.216   1.228   1.250   1.274   1.290   1.307
  1.315   1.350   1.365   1.381   1.400   1.443   1.475   1.514
  1.543   1.577   1.586   1.638   1.714   1.729   1.761   1.784
  1.818   1.836   1.855   1.901   1.913   1.926   1.935   1.958
  1.971   1.982   1.997   2.014   2.040   2.059   2.087   2.113
  2.145   2.178   2.197   2.241   2.247   2.257   2.288   2.294
  2.325   2.347   2.371   2.382   2.422   2.442   2.451   2.482
  2.488   2.519   2.568   2.591   2.659   2.703   2.713   2.730
  2.736   2.772   2.784   2.812   2.893   2.931   2.944   2.965
  2.971   2.986   2.992   3.016   3.046   3.065   3.115   3.144
  3.160   3.194   3.232   3.256   3.261   3.300   3.356   3.378
  3.417   3.420   3.447   3.468   3.477   3.505   3.523   3.550
  3.559   3.588   3.604   3.624   3.637   3.651   3.694   3.711
  3.736   3.766   3.777   3.835   3.867   3.888   4.013   4.022
  4.075   4.104   4.175   4.221   4.316   4.360   4.406   4.448
  4.521   4.645   4.766   4.851   4.863   4.928   4.972   5.098
  5.166   5.253   5.352   5.385   5.389   5.401   5.416   5.418
  5.492   5.527   5.559   5.607   5.612   5.639   5.712   5.751
  5.787   5.842   5.903   5.992   6.046   6.179   6.209   6.281
  6.394   6.471   6.482   6.551   6.618   6.652   6.684   6.696
  6.711   6.743   6.772   6.804   6.874   6.880   6.958   7.000
  7.046   7.106   7.261   7.290   7.302   7.349   7.389   7.404
  7.415  22.709  22.956  23.619  44.073  44.282  44.336  44.436
 --------------------------------------------------------------
 
          Ground-State Mulliken Net Atomic Charges

     Atom                 Charge (a.u.)
  ----------------------------------------
      1 C                    -0.561152
      2 C                     0.249918
      3 O                    -0.786309
      4 O                    -0.816886
      5 C                    -0.091080
      6 H                     0.209215
      7 H                     0.129187
      8 H                     0.186633
      9 O                    -0.531878
     10 H                     0.148130
     11 O                    -0.795573
     12 H                     0.341591
     13 H                     0.318204
  ----------------------------------------
  Sum of atomic charges =    -2.000000

 -----------------------------------------------------------------
                    Cartesian Multipole Moments
 -----------------------------------------------------------------
    Charge (ESU x 10^10)
                -9.6064
    Dipole Moment (Debye)
         X       3.6696      Y     -13.6802      Z       3.9905
       Tot      14.7153
    Quadrupole Moments (Debye-Ang)
        XX     -62.7258     XY       1.4141     YY     -78.1115
        XZ       5.0085     YZ      11.7041     ZZ     -67.5334
    Octopole Moments (Debye-Ang^2)
       XXX       7.4630    XXY     -35.7879    XYY      32.3002
       YYY    -160.1849    XXZ     -10.9589    XYZ      -7.1896
       YYZ      21.9972    XZZ      18.0771    YZZ     -40.6287
       ZZZ      56.5392
    Hexadecapole Moments (Debye-Ang^3)
      XXXX    -629.5837   XXXY      28.3218   XXYY    -186.6113
      XYYY      90.4664   YYYY    -776.0934   XXXZ      89.0076
      XXYZ      45.1789   XYYZ       2.4268   YYYZ     111.2345
      XXZZ    -178.2215   XYZZ      22.1707   YYZZ    -164.8347
      XZZZ      41.0462   YZZZ     108.9105   ZZZZ    -357.0881
 -----------------------------------------------------------------
 Calculating analytic gradient of the SCF energy
 Gradient of SCF Energy
            1           2           3           4           5           6
    1   0.0015035   0.0004825   0.0134462   0.0147239  -0.0394105  -0.0657488
    2   0.0724457   0.0316771   0.0145773  -0.0506113  -0.0803181  -0.0547141
    3   0.1318891  -0.0760950   0.0503531  -0.0051047  -0.0056087  -0.0758361
            7           8           9          10          11          12
    1   0.0574191   0.0287159   0.0290649  -0.0569232   0.0142709   0.0336747
    2   0.0254006   0.0431973  -0.0324049  -0.0252079   0.0217488  -0.0047709
    3   0.0420318  -0.0596765  -0.0172583   0.0023100  -0.0628953   0.0615464
           13
    1  -0.0312191
    2   0.0389804
    3   0.0143442
 Max gradient component =       1.319E-01
 RMS gradient           =       4.712E-02
 Computing fast CPCM-ISWIG gradient
 Updating gradient with PCM contributions...
 -- total gradient after adding PCM contribution --
---------------------------------------------------
  Atom         X              Y              Z     
---------------------------------------------------
   1      -0.000021      -0.000009       0.000034
   2       0.000023       0.000046      -0.000042
   3      -0.000003      -0.000010       0.000023
   4      -0.000014      -0.000024       0.000001
   5       0.000030       0.000000      -0.000018
   6       0.000004      -0.000002      -0.000006
   7      -0.000001      -0.000004       0.000001
   8      -0.000004      -0.000001       0.000001
   9      -0.000020      -0.000003       0.000003
  10       0.000027       0.000005      -0.000008
  11      -0.000031      -0.000000      -0.000013
  12       0.000006      -0.000008       0.000018
  13       0.000004       0.000009       0.000007
---------------------------------------------------
 Number of fixed atoms: 0
 Gradient time:  CPU 291.33 s  wall 21.55 s
 ######################################################
 ######################################################
 # Starting finite difference calculation for IDERIV  #
 Finite diff step size:  1.88973e-03 a.u.
 ----------------------------------------------------------------
             Standard Nuclear Orientation (Angstroms)
    I     Atom           X                Y                Z
 ----------------------------------------------------------------
    1      C       0.2042994775     0.5091934175     0.3966634910
    2      C      -0.2299114598     1.4301480855    -0.6337608820
    3      O      -0.3567941017     1.0310301277    -1.8528103476
    4      O      -0.5461671548     2.6384526641    -0.3023482803
    5      C       0.8948717709    -0.7509513113     0.0563660911
    6      H       0.5065190865     0.9761323874     1.3382118739
    7      H       0.4034067235    -1.2523291118    -0.7870046249
    8      H       0.9021399098    -1.4449341428     0.9095504837
    9      O       2.3126189565    -0.5573233096    -0.3289476976
   10      H      -1.4734507982    -0.1282009675     0.7645010065
   11      O      -2.4023722771    -0.5044790746     0.9752959990
   12      H      -2.8695758997    -0.4953931244     0.1323745293
   13      H       2.6807680362    -1.4279435929    -0.5259731962
 ----------------------------------------------------------------
 Nuclear Repulsion Energy =   295.7615329313 hartrees
 There are       29 alpha and       29 beta electrons
 Discretize the solute cavity surface with Lebedev spheres
	Using 110 Lebedev grid points for each H atom
	Using 110 Lebedev grid points for other atoms
	Atomic van der Waals radii will be scaled by 1.20
 Remove points where switching function is < 1.0e-08
 Keep 849 surface tesserae and discard 581 interior tesserae
 Molecular Surface Area = 157.898 Angst**2

                       Distance Matrix (Angstroms)
             C (  1)   C (  2)   O (  3)   O (  4)   C (  5)   H (  6)
   C (  2)  1.448610
   O (  3)  2.376399  1.288983
   O (  4)  2.363379  1.292228  2.241339
   C (  5)  1.476705  2.549237  2.896046  3.700450
   H (  6)  1.093564  2.153401  3.306198  2.561815  2.185581
   H (  7)  2.131590  2.760482  2.632029  4.034199  1.097357  3.081107
   H (  8)  2.137440  3.453903  3.917391  4.498927  1.099813  2.490347
   O (  9)  2.471635  3.241514  3.459883  4.287931  1.481879  2.897051
   H ( 10)  1.832054  2.435155  3.072630  3.106830  2.549162  2.338584
   O ( 11)  2.856061  3.324369  3.813183  3.867285  3.431763  3.284139
   H ( 12)  3.244650  3.355965  3.547534  3.925328  3.773878  3.875235
   H ( 13)  3.276684  4.080730  4.127206  5.196027  1.996713  3.739268
             H (  7)   H (  8)   O (  9)   H ( 10)   O ( 11)   H ( 12)
   H (  8)  1.778800
   O (  9)  2.082772  2.076339
   H ( 10)  2.682057  2.719974  3.964101
   O ( 11)  3.396672  3.436361  4.892340  1.024165
   H ( 12)  3.482905  3.966292  5.203057  1.575938  0.963783
   H ( 13)  2.298989  2.285724  0.965574  4.540065  5.380048  5.666515

 
 Requested basis set is def2-TZVPD
 There are 125 shells and 325 basis functions
 A cutoff of  1.0D-14 yielded   7428 shell pairs
 There are     50728 function pairs (     64543 Cartesian)
 Smallest overlap matrix eigenvalue = 5.51E-06
 Guess MOs from SCF MO coefficient file
 Reading MOs from coefficient file
 Reading MOs from coefficient file
 Long-range K will be added via erf
 Coulomb attenuation parameter = 0.3 bohr**(-1)
 A restricted hybrid HF-DFT SCF calculation will be
 performed using Pulay DIIS extrapolation
 Polarizable Continuum solvation model will be applied
 Exchange:     0.1670 Hartree-Fock + 1.0000 wB97X-V + LR-HF
 Correlation:  1.0000 wB97X-V
 Using SG-2 standard quadrature grid
 Nonlocal Correlation:  VV10 with C = 0.0100 and b = 6.00
 Grid used for NLC:  SG-1 standard quadrature
 SCF converges when DIIS error is below 1.0E-08
Using Q-Chem read-in guess as SCF_GUESS READ specified.

 using 16 threads for integral computing
 -------------------------------------------------------
 OpenMP Integral computing Module                
 Release: version 1.0, May 2013, Q-Chem Inc. Pittsburgh 
 -------------------------------------------------------
 using 16 threads for integral computing
 -------------------------------------------------------
 OpenMP Integral computing Module                
 Release: version 1.0, May 2013, Q-Chem Inc. Pittsburgh 
 -------------------------------------------------------
 -------------------------------------------------------
 OpenMP BLAS3 based DFT computing Module                
 Release: version 1.0, May 2013, Q-Chem Inc. Pittsburgh 
 -------------------------------------------------------
 -------------------------------------------------------
 OpenMP BLAS3 based DFT computing Module                
 Release: version 1.0, May 2013, Q-Chem Inc. Pittsburgh 
 -------------------------------------------------------
 -------------------------------------------------------
 OpenMP BLAS3 based DFT computing Module                
 Release: version 1.0, May 2013, Q-Chem Inc. Pittsburgh 
 -------------------------------------------------------
 ---------------------------------------
  Cycle       Energy         DIIS Error
 ---------------------------------------
    1    -418.7427609282      6.55E-04
    2    -419.0876281535      7.44E-04
    3    -419.0985900686      3.24E-04
    4    -419.1004013336      2.36E-04
    5    -419.1014394765      1.77E-04
    6    -419.1019994004      1.37E-04
    7    -419.1024113394      9.67E-05
    8    -419.1025849011      7.39E-05
    9    -419.1027092832      5.18E-05
   10    -419.1027984741      2.60E-05
   11    -419.1028213350      1.25E-05
   12    -419.1028275585      3.64E-06
   13    -419.1028280559      1.27E-06
   14    -419.1028281230      2.14E-07
   15    -419.1028281248      5.96E-08
   16    -419.1028281249      1.48E-08
   17    -419.1028281249      1.18E-09 Convergence criterion met
 ---------------------------------------

************** Final PCM Free Energy Summary **************
 G_electrostatic  =      -0.36027556 hartree =    -226.07632849 kcal/mol
 G_cavitation     =       0.00000000 hartree =       0.00000000 kcal/mol
 G_dispersion     =       0.00000000 hartree =       0.00000000 kcal/mol
 G_repulsion      =       0.00000000 hartree =       0.00000000 kcal/mol
 --------------------------------------------------
 Non-electrostatic Free Energy =       0.00000000 hartree =       0.00000000 kcal/mol
 Total                         =      -0.36027556 hartree =    -226.07632849 kcal/mol
 --------------------------------------------------
 SCF Energy (H0 + V/2)                       =    -419.10282812 
 Solute Internal Energy (H0)                 =    -418.74255256 
 Total Free Energy (H0 + V/2 + non-elec)     =    -419.10282812 hartree
                                             = -262990.99397127 kcal/mol
***********************************************************

 SCF time:  CPU 1446.28 s  wall 103.71 s
 SCF   energy in the final basis set = -419.10282812
 Total energy in the final basis set = -419.10282812
 
 --------------------------------------------------------------
 
                    Orbital Energies (a.u.)
 --------------------------------------------------------------
 
 Alpha MOs
 -- Occupied --
-19.183 -19.174 -19.107 -19.106 -10.305 -10.278 -10.174  -1.109
 -1.098  -1.090  -1.001  -0.831  -0.705  -0.600  -0.583  -0.567
 -0.535  -0.497  -0.484  -0.471  -0.455  -0.446  -0.409  -0.395
 -0.360  -0.319  -0.317  -0.296  -0.239
 -- Virtual --
  0.061   0.079   0.084   0.089   0.111   0.115   0.123   0.127
  0.130   0.146   0.154   0.164   0.170   0.174   0.185   0.195
  0.200   0.202   0.224   0.236   0.247   0.260   0.264   0.276
  0.288   0.292   0.294   0.313   0.318   0.326   0.329   0.342
  0.344   0.347   0.364   0.371   0.374   0.380   0.392   0.394
  0.400   0.412   0.417   0.426   0.429   0.433   0.440   0.451
  0.465   0.476   0.479   0.485   0.490   0.497   0.503   0.515
  0.522   0.531   0.536   0.550   0.571   0.571   0.578   0.583
  0.592   0.595   0.614   0.620   0.628   0.636   0.639   0.651
  0.659   0.663   0.686   0.695   0.705   0.707   0.718   0.727
  0.747   0.752   0.753   0.765   0.782   0.791   0.803   0.810
  0.828   0.834   0.842   0.851   0.860   0.867   0.875   0.885
  0.908   0.914   0.937   0.953   0.981   0.998   1.017   1.025
  1.059   1.061   1.081   1.091   1.093   1.124   1.132   1.155
  1.183   1.191   1.216   1.228   1.250   1.274   1.290   1.307
  1.315   1.350   1.365   1.381   1.400   1.443   1.475   1.514
  1.543   1.577   1.586   1.638   1.714   1.729   1.761   1.784
  1.818   1.836   1.855   1.901   1.913   1.926   1.935   1.958
  1.971   1.982   1.997   2.014   2.040   2.059   2.087   2.113
  2.145   2.178   2.197   2.241   2.247   2.257   2.288   2.294
  2.325   2.347   2.372   2.382   2.422   2.442   2.451   2.482
  2.488   2.519   2.568   2.591   2.659   2.703   2.713   2.730
  2.736   2.772   2.784   2.812   2.893   2.931   2.944   2.966
  2.971   2.986   2.992   3.016   3.046   3.065   3.115   3.144
  3.160   3.194   3.232   3.256   3.261   3.300   3.356   3.378
  3.416   3.420   3.447   3.468   3.477   3.505   3.523   3.550
  3.559   3.588   3.604   3.623   3.637   3.651   3.694   3.711
  3.736   3.766   3.777   3.835   3.867   3.888   4.012   4.023
  4.075   4.104   4.175   4.221   4.316   4.360   4.406   4.448
  4.521   4.645   4.766   4.852   4.864   4.928   4.973   5.098
  5.166   5.253   5.352   5.385   5.389   5.401   5.416   5.418
  5.492   5.527   5.559   5.607   5.612   5.639   5.712   5.751
  5.787   5.842   5.903   5.992   6.046   6.179   6.209   6.281
  6.394   6.471   6.482   6.551   6.618   6.652   6.684   6.696
  6.711   6.743   6.772   6.804   6.874   6.880   6.958   7.000
  7.046   7.106   7.261   7.290   7.302   7.349   7.389   7.404
  7.415  22.710  22.957  23.618  44.073  44.282  44.336  44.436
 --------------------------------------------------------------
 
          Ground-State Mulliken Net Atomic Charges

     Atom                 Charge (a.u.)
  ----------------------------------------
      1 C                    -0.562841
      2 C                     0.251179
      3 O                    -0.786285
      4 O                    -0.816901
      5 C                    -0.091005
      6 H                     0.209724
      7 H                     0.129100
      8 H                     0.186617
      9 O                    -0.531837
     10 H                     0.148065
     11 O                    -0.795531
     12 H                     0.341592
     13 H                     0.318124
  ----------------------------------------
  Sum of atomic charges =    -2.000000

 -----------------------------------------------------------------
                    Cartesian Multipole Moments
 -----------------------------------------------------------------
    Charge (ESU x 10^10)
                -9.6064
    Dipole Moment (Debye)
         X       3.6631      Y     -13.6810      Z       3.9923
       Tot      14.7149
    Quadrupole Moments (Debye-Ang)
        XX     -62.7266     XY       1.4160     YY     -78.1119
        XZ       5.0050     YZ      11.7037     ZZ     -67.5313
    Octopole Moments (Debye-Ang^2)
       XXX       7.4006    XXY     -35.7914    XYY      32.2867
       YYY    -160.1827    XXZ     -10.9486    XYZ      -7.1906
       YYZ      21.9978    XZZ      18.0658    YZZ     -40.6273
       ZZZ      56.5459
    Hexadecapole Moments (Debye-Ang^3)
      XXXX    -629.5881   XXXY      28.3447   XXYY    -186.6250
      XYYY      90.4705   YYYY    -776.0848   XXXZ      88.9817
      XXYZ      45.1716   XYYZ       2.4208   YYYZ     111.2293
      XXZZ    -178.2198   XYZZ      22.1727   YYZZ    -164.8299
      XZZZ      41.0288   YZZZ     108.9099   ZZZZ    -357.0771
 -----------------------------------------------------------------
 Calculating analytic gradient of the SCF energy
 Gradient of SCF Energy
            1           2           3           4           5           6
    1   0.0014955   0.0004212   0.0134663   0.0147442  -0.0393427  -0.0656740
    2   0.0718307   0.0321322   0.0145873  -0.0506078  -0.0800637  -0.0547915
    3   0.1323789  -0.0764372   0.0503401  -0.0051139  -0.0055802  -0.0760642
            7           8           9          10          11          12
    1   0.0574133   0.0286863   0.0290320  -0.0569513   0.0142693   0.0336752
    2   0.0253666   0.0431887  -0.0323928  -0.0252018   0.0217467  -0.0047681
    3   0.0420332  -0.0596612  -0.0172644   0.0023525  -0.0628855   0.0615525
           13
    1  -0.0312353
    2   0.0389735
    3   0.0143495
 Max gradient component =       1.324E-01
 RMS gradient           =       4.715E-02
 Computing fast CPCM-ISWIG gradient
 Updating gradient with PCM contributions...
 -- total gradient after adding PCM contribution --
---------------------------------------------------
  Atom         X              Y              Z     
---------------------------------------------------
   1       0.000411      -0.000287       0.000283
   2      -0.000150       0.000158      -0.000152
   3       0.000030       0.000001       0.000010
   4       0.000011       0.000005      -0.000020
   5      -0.000108       0.000100      -0.000023
   6      -0.000076      -0.000036      -0.000145
   7       0.000011      -0.000021       0.000000
   8      -0.000009       0.000012       0.000001
   9      -0.000084       0.000061       0.000031
  10       0.000087       0.000036      -0.000022
  11      -0.000115      -0.000036       0.000003
  12       0.000003      -0.000009       0.000019
  13      -0.000012       0.000017       0.000014
---------------------------------------------------
 Number of fixed atoms: 0
 Gradient time:  CPU 290.47 s  wall 21.42 s
 ----------------------------------------------------------------
             Standard Nuclear Orientation (Angstroms)
    I     Atom           X                Y                Z
 ----------------------------------------------------------------
    1      C       0.2022994775     0.5091934175     0.3966634910
    2      C      -0.2299114598     1.4301480855    -0.6337608820
    3      O      -0.3567941017     1.0310301277    -1.8528103476
    4      O      -0.5461671548     2.6384526641    -0.3023482803
    5      C       0.8948717709    -0.7509513113     0.0563660911
    6      H       0.5065190865     0.9761323874     1.3382118739
    7      H       0.4034067235    -1.2523291118    -0.7870046249
    8      H       0.9021399098    -1.4449341428     0.9095504837
    9      O       2.3126189565    -0.5573233096    -0.3289476976
   10      H      -1.4734507982    -0.1282009675     0.7645010065
   11      O      -2.4023722771    -0.5044790746     0.9752959990
   12      H      -2.8695758997    -0.4953931244     0.1323745293
   13      H       2.6807680362    -1.4279435929    -0.5259731962
 ----------------------------------------------------------------
 Nuclear Repulsion Energy =   295.7621976530 hartrees
 There are       29 alpha and       29 beta electrons
 Discretize the solute cavity surface with Lebedev spheres
	Using 110 Lebedev grid points for each H atom
	Using 110 Lebedev grid points for other atoms
	Atomic van der Waals radii will be scaled by 1.20
 Remove points where switching function is < 1.0e-08
 Keep 849 surface tesserae and discard 581 interior tesserae
 Molecular Surface Area = 157.904 Angst**2

                       Distance Matrix (Angstroms)
             C (  1)   C (  2)   O (  3)   O (  4)   C (  5)   H (  6)
   C (  2)  1.448012
   O (  3)  2.375928  1.288983
   O (  4)  2.362745  1.292228  2.241339
   C (  5)  1.477641  2.549237  2.896046  3.700450
   H (  6)  1.094118  2.153401  3.306198  2.561815  2.185581
   H (  7)  2.131778  2.760482  2.632029  4.034199  1.097357  3.081107
   H (  8)  2.138094  3.453903  3.917391  4.498927  1.099813  2.490347
   O (  9)  2.473341  3.241514  3.459883  4.287931  1.481879  2.897051
   H ( 10)  1.830223  2.435155  3.072630  3.106830  2.549162  2.338584
   O ( 11)  2.854236  3.324369  3.813183  3.867285  3.431763  3.284139
   H ( 12)  3.242755  3.355965  3.547534  3.925328  3.773878  3.875235
   H ( 13)  3.278195  4.080730  4.127206  5.196027  1.996713  3.739268
             H (  7)   H (  8)   O (  9)   H ( 10)   O ( 11)   H ( 12)
   H (  8)  1.778800
   O (  9)  2.082772  2.076339
   H ( 10)  2.682057  2.719974  3.964101
   O ( 11)  3.396672  3.436361  4.892340  1.024165
   H ( 12)  3.482905  3.966292  5.203057  1.575938  0.963783
   H ( 13)  2.298989  2.285724  0.965574  4.540065  5.380048  5.666515

 
 Requested basis set is def2-TZVPD
 There are 125 shells and 325 basis functions
 A cutoff of  1.0D-14 yielded   7428 shell pairs
 There are     50728 function pairs (     64543 Cartesian)
 Smallest overlap matrix eigenvalue = 5.51E-06
 Guess MOs from SCF MO coefficient file
 Reading MOs from coefficient file
 Reading MOs from coefficient file
 Long-range K will be added via erf
 Coulomb attenuation parameter = 0.3 bohr**(-1)
 A restricted hybrid HF-DFT SCF calculation will be
 performed using Pulay DIIS extrapolation
 Polarizable Continuum solvation model will be applied
 Exchange:     0.1670 Hartree-Fock + 1.0000 wB97X-V + LR-HF
 Correlation:  1.0000 wB97X-V
 Using SG-2 standard quadrature grid
 Nonlocal Correlation:  VV10 with C = 0.0100 and b = 6.00
 Grid used for NLC:  SG-1 standard quadrature
 SCF converges when DIIS error is below 1.0E-08
Using Q-Chem read-in guess as SCF_GUESS READ specified.

 using 16 threads for integral computing
 -------------------------------------------------------
 OpenMP Integral computing Module                
 Release: version 1.0, May 2013, Q-Chem Inc. Pittsburgh 
 -------------------------------------------------------
 using 16 threads for integral computing
 -------------------------------------------------------
 OpenMP Integral computing Module                
 Release: version 1.0, May 2013, Q-Chem Inc. Pittsburgh 
 -------------------------------------------------------
 -------------------------------------------------------
 OpenMP BLAS3 based DFT computing Module                
 Release: version 1.0, May 2013, Q-Chem Inc. Pittsburgh 
 -------------------------------------------------------
 -------------------------------------------------------
 OpenMP BLAS3 based DFT computing Module                
 Release: version 1.0, May 2013, Q-Chem Inc. Pittsburgh 
 -------------------------------------------------------
 -------------------------------------------------------
 OpenMP BLAS3 based DFT computing Module                
 Release: version 1.0, May 2013, Q-Chem Inc. Pittsburgh 
 -------------------------------------------------------
 ---------------------------------------
  Cycle       Energy         DIIS Error
 ---------------------------------------
    1    -418.7421430311      6.57E-04
    2    -419.0876275741      7.44E-04
    3    -419.0985967559      3.24E-04
    4    -419.1004098244      2.36E-04
    5    -419.1014602179      1.76E-04
    6    -419.1020423637      1.33E-04
    7    -419.1024843239      8.77E-05
    8    -419.1026701949      5.95E-05
    9    -419.1027799352      3.29E-05
   10    -419.1028240995      9.53E-06
   11    -419.1028276404      3.07E-06
   12    -419.1028280250      6.99E-07
   13    -419.1028280432      2.00E-07
   14    -419.1028280448      2.99E-08
   15    -419.1028280449      9.08E-09 Convergence criterion met
 ---------------------------------------

************** Final PCM Free Energy Summary **************
 G_electrostatic  =      -0.36027393 hartree =    -226.07530400 kcal/mol
 G_cavitation     =       0.00000000 hartree =       0.00000000 kcal/mol
 G_dispersion     =       0.00000000 hartree =       0.00000000 kcal/mol
 G_repulsion      =       0.00000000 hartree =       0.00000000 kcal/mol
 --------------------------------------------------
 Non-electrostatic Free Energy =       0.00000000 hartree =       0.00000000 kcal/mol
 Total                         =      -0.36027393 hartree =    -226.07530400 kcal/mol
 --------------------------------------------------
 SCF Energy (H0 + V/2)                       =    -419.10282804 
 Solute Internal Energy (H0)                 =    -418.74255411 
 Total Free Energy (H0 + V/2 + non-elec)     =    -419.10282804 hartree
                                             = -262990.99392103 kcal/mol
***********************************************************

 SCF time:  CPU 1258.64 s  wall 90.57 s
 SCF   energy in the final basis set = -419.10282804
 Total energy in the final basis set = -419.10282804
 
 --------------------------------------------------------------
 
                    Orbital Energies (a.u.)
 --------------------------------------------------------------
 
 Alpha MOs
 -- Occupied --
-19.183 -19.174 -19.107 -19.106 -10.305 -10.278 -10.174  -1.109
 -1.098  -1.090  -1.001  -0.831  -0.705  -0.600  -0.583  -0.567
 -0.535  -0.497  -0.484  -0.471  -0.455  -0.446  -0.409  -0.395
 -0.360  -0.319  -0.317  -0.296  -0.239
 -- Virtual --
  0.061   0.079   0.084   0.089   0.111   0.115   0.123   0.127
  0.130   0.146   0.154   0.164   0.170   0.174   0.185   0.195
  0.199   0.202   0.224   0.236   0.247   0.260   0.264   0.276
  0.288   0.292   0.294   0.313   0.318   0.326   0.329   0.342
  0.344   0.347   0.364   0.370   0.374   0.380   0.392   0.394
  0.400   0.412   0.417   0.426   0.429   0.433   0.440   0.451
  0.465   0.476   0.479   0.485   0.490   0.497   0.503   0.515
  0.522   0.531   0.536   0.550   0.571   0.571   0.578   0.583
  0.592   0.595   0.614   0.620   0.628   0.636   0.639   0.651
  0.659   0.663   0.686   0.695   0.705   0.707   0.718   0.727
  0.747   0.752   0.753   0.765   0.782   0.791   0.803   0.810
  0.828   0.834   0.842   0.850   0.860   0.867   0.875   0.885
  0.908   0.914   0.937   0.953   0.981   0.998   1.016   1.025
  1.059   1.062   1.081   1.091   1.093   1.124   1.132   1.155
  1.183   1.191   1.216   1.228   1.250   1.274   1.290   1.307
  1.315   1.350   1.365   1.381   1.400   1.443   1.475   1.514
  1.543   1.578   1.586   1.638   1.714   1.728   1.761   1.784
  1.818   1.836   1.855   1.901   1.912   1.926   1.935   1.958
  1.971   1.982   1.997   2.014   2.040   2.059   2.087   2.113
  2.145   2.178   2.198   2.241   2.247   2.257   2.288   2.294
  2.325   2.348   2.371   2.382   2.422   2.442   2.451   2.482
  2.488   2.519   2.568   2.591   2.659   2.702   2.713   2.730
  2.736   2.772   2.784   2.812   2.893   2.931   2.944   2.965
  2.971   2.986   2.992   3.016   3.046   3.065   3.115   3.144
  3.160   3.194   3.232   3.256   3.261   3.300   3.356   3.378
  3.417   3.420   3.447   3.468   3.477   3.505   3.523   3.550
  3.559   3.588   3.604   3.624   3.637   3.651   3.694   3.711
  3.736   3.766   3.776   3.835   3.867   3.888   4.013   4.022
  4.075   4.104   4.174   4.222   4.316   4.360   4.406   4.448
  4.521   4.644   4.766   4.851   4.863   4.927   4.972   5.098
  5.166   5.253   5.352   5.385   5.389   5.401   5.416   5.418
  5.492   5.527   5.559   5.607   5.612   5.640   5.712   5.751
  5.787   5.842   5.902   5.991   6.046   6.179   6.209   6.281
  6.394   6.472   6.482   6.551   6.618   6.652   6.684   6.696
  6.711   6.743   6.772   6.804   6.874   6.880   6.958   7.000
  7.046   7.106   7.261   7.290   7.302   7.349   7.389   7.404
  7.415  22.709  22.956  23.619  44.073  44.282  44.336  44.436
 --------------------------------------------------------------
 
          Ground-State Mulliken Net Atomic Charges

     Atom                 Charge (a.u.)
  ----------------------------------------
      1 C                    -0.559461
      2 C                     0.248659
      3 O                    -0.786332
      4 O                    -0.816870
      5 C                    -0.091163
      6 H                     0.208707
      7 H                     0.129275
      8 H                     0.186651
      9 O                    -0.531920
     10 H                     0.148194
     11 O                    -0.795614
     12 H                     0.341590
     13 H                     0.318284
  ----------------------------------------
  Sum of atomic charges =    -2.000000

 -----------------------------------------------------------------
                    Cartesian Multipole Moments
 -----------------------------------------------------------------
    Charge (ESU x 10^10)
                -9.6064
    Dipole Moment (Debye)
         X       3.6762      Y     -13.6794      Z       3.9887
       Tot      14.7156
    Quadrupole Moments (Debye-Ang)
        XX     -62.7251     XY       1.4121     YY     -78.1111
        XZ       5.0120     YZ      11.7045     ZZ     -67.5354
    Octopole Moments (Debye-Ang^2)
       XXX       7.5256    XXY     -35.7844    XYY      32.3137
       YYY    -160.1870    XXZ     -10.9692    XYZ      -7.1886
       YYZ      21.9966    XZZ      18.0886    YZZ     -40.6300
       ZZZ      56.5324
    Hexadecapole Moments (Debye-Ang^3)
      XXXX    -629.5797   XXXY      28.2988   XXYY    -186.5977
      XYYY      90.4622   YYYY    -776.1020   XXXZ      89.0338
      XXYZ      45.1862   XYYZ       2.4329   YYYZ     111.2397
      XXZZ    -178.2232   XYZZ      22.1687   YYZZ    -164.8396
      XZZZ      41.0639   YZZZ     108.9111   ZZZZ    -357.0991
 -----------------------------------------------------------------
 Calculating analytic gradient of the SCF energy
 Gradient of SCF Energy
            1           2           3           4           5           6
    1   0.0015096   0.0005462   0.0134259   0.0147034  -0.0394803  -0.0658220
    2   0.0730561   0.0312243   0.0145674  -0.0506148  -0.0805712  -0.0546358
    3   0.1313992  -0.0757536   0.0503662  -0.0050955  -0.0056366  -0.0756078
            7           8           9          10          11          12
    1   0.0574247   0.0287460   0.0290979  -0.0568951   0.0142725   0.0336743
    2   0.0254349   0.0432057  -0.0324169  -0.0252140   0.0217509  -0.0047737
    3   0.0420311  -0.0596922  -0.0172522   0.0022673  -0.0629052   0.0615403
           13
    1  -0.0312030
    2   0.0389873
    3   0.0143390
 Max gradient component =       1.314E-01
 RMS gradient           =       4.709E-02
 Computing fast CPCM-ISWIG gradient
 Updating gradient with PCM contributions...
 -- total gradient after adding PCM contribution --
---------------------------------------------------
  Atom         X              Y              Z     
---------------------------------------------------
   1      -0.000454       0.000268      -0.000215
   2       0.000196      -0.000066       0.000067
   3      -0.000035      -0.000021       0.000035
   4      -0.000040      -0.000053       0.000021
   5       0.000167      -0.000099      -0.000013
   6       0.000084       0.000032       0.000133
   7      -0.000013       0.000014       0.000001
   8       0.000002      -0.000014       0.000001
   9       0.000044      -0.000068      -0.000025
  10      -0.000033      -0.000025       0.000006
  11       0.000053       0.000036      -0.000030
  12       0.000008      -0.000006       0.000016
  13       0.000021       0.000002       0.000001
---------------------------------------------------
 Number of fixed atoms: 0
 Gradient time:  CPU 291.50 s  wall 21.55 s
 ----------------------------------------------------------------
             Standard Nuclear Orientation (Angstroms)
    I     Atom           X                Y                Z
 ----------------------------------------------------------------
    1      C       0.2032994775     0.5101934175     0.3966634910
    2      C      -0.2299114598     1.4301480855    -0.6337608820
    3      O      -0.3567941017     1.0310301277    -1.8528103476
    4      O      -0.5461671548     2.6384526641    -0.3023482803
    5      C       0.8948717709    -0.7509513113     0.0563660911
    6      H       0.5065190865     0.9761323874     1.3382118739
    7      H       0.4034067235    -1.2523291118    -0.7870046249
    8      H       0.9021399098    -1.4449341428     0.9095504837
    9      O       2.3126189565    -0.5573233096    -0.3289476976
   10      H      -1.4734507982    -0.1282009675     0.7645010065
   11      O      -2.4023722771    -0.5044790746     0.9752959990
   12      H      -2.8695758997    -0.4953931244     0.1323745293
   13      H       2.6807680362    -1.4279435929    -0.5259731962
 ----------------------------------------------------------------
 Nuclear Repulsion Energy =   295.7617105559 hartrees
 There are       29 alpha and       29 beta electrons
 Discretize the solute cavity surface with Lebedev spheres
	Using 110 Lebedev grid points for each H atom
	Using 110 Lebedev grid points for other atoms
	Atomic van der Waals radii will be scaled by 1.20
 Remove points where switching function is < 1.0e-08
 Keep 849 surface tesserae and discard 581 interior tesserae
 Molecular Surface Area = 157.907 Angst**2

                       Distance Matrix (Angstroms)
             C (  1)   C (  2)   O (  3)   O (  4)   C (  5)   H (  6)
   C (  2)  1.447675
   O (  3)  2.375944  1.288983
   O (  4)  2.362161  1.292228  2.241339
   C (  5)  1.478026  2.549237  2.896046  3.700450
   H (  6)  1.093414  2.153401  3.306198  2.561815  2.185581
   H (  7)  2.132510  2.760482  2.632029  4.034199  1.097357  3.081107
   H (  8)  2.138681  3.453903  3.917391  4.498927  1.099813  2.490347
   O (  9)  2.472920  3.241514  3.459883  4.287931  1.481879  2.897051
   H ( 10)  1.831487  2.435155  3.072630  3.106830  2.549162  2.338584
   O ( 11)  2.855504  3.324369  3.813183  3.867285  3.431763  3.284139
   H ( 12)  3.244012  3.355965  3.547534  3.925328  3.773878  3.875235
   H ( 13)  3.278031  4.080730  4.127206  5.196027  1.996713  3.739268
             H (  7)   H (  8)   O (  9)   H ( 10)   O ( 11)   H ( 12)
   H (  8)  1.778800
   O (  9)  2.082772  2.076339
   H ( 10)  2.682057  2.719974  3.964101
   O ( 11)  3.396672  3.436361  4.892340  1.024165
   H ( 12)  3.482905  3.966292  5.203057  1.575938  0.963783
   H ( 13)  2.298989  2.285724  0.965574  4.540065  5.380048  5.666515

 
 Requested basis set is def2-TZVPD
 There are 125 shells and 325 basis functions
 A cutoff of  1.0D-14 yielded   7428 shell pairs
 There are     50728 function pairs (     64543 Cartesian)
 Smallest overlap matrix eigenvalue = 5.50E-06
 Guess MOs from SCF MO coefficient file
 Reading MOs from coefficient file
 Reading MOs from coefficient file
 Long-range K will be added via erf
 Coulomb attenuation parameter = 0.3 bohr**(-1)
 A restricted hybrid HF-DFT SCF calculation will be
 performed using Pulay DIIS extrapolation
 Polarizable Continuum solvation model will be applied
 Exchange:     0.1670 Hartree-Fock + 1.0000 wB97X-V + LR-HF
 Correlation:  1.0000 wB97X-V
 Using SG-2 standard quadrature grid
 Nonlocal Correlation:  VV10 with C = 0.0100 and b = 6.00
 Grid used for NLC:  SG-1 standard quadrature
 SCF converges when DIIS error is below 1.0E-08
Using Q-Chem read-in guess as SCF_GUESS READ specified.

 using 16 threads for integral computing
 -------------------------------------------------------
 OpenMP Integral computing Module                
 Release: version 1.0, May 2013, Q-Chem Inc. Pittsburgh 
 -------------------------------------------------------
 using 16 threads for integral computing
 -------------------------------------------------------
 OpenMP Integral computing Module                
 Release: version 1.0, May 2013, Q-Chem Inc. Pittsburgh 
 -------------------------------------------------------
 -------------------------------------------------------
 OpenMP BLAS3 based DFT computing Module                
 Release: version 1.0, May 2013, Q-Chem Inc. Pittsburgh 
 -------------------------------------------------------
 -------------------------------------------------------
 OpenMP BLAS3 based DFT computing Module                
 Release: version 1.0, May 2013, Q-Chem Inc. Pittsburgh 
 -------------------------------------------------------
 -------------------------------------------------------
 OpenMP BLAS3 based DFT computing Module                
 Release: version 1.0, May 2013, Q-Chem Inc. Pittsburgh 
 -------------------------------------------------------
 ---------------------------------------
  Cycle       Energy         DIIS Error
 ---------------------------------------
    1    -418.7426841860      6.55E-04
    2    -419.0876229915      7.44E-04
    3    -419.0985882177      3.24E-04
    4    -419.1004004794      2.36E-04
    5    -419.1014424705      1.77E-04
    6    -419.1020071592      1.36E-04
    7    -419.1024302955      9.44E-05
    8    -419.1026137684      6.93E-05
    9    -419.1027406179      4.43E-05
   10    -419.1028145803      1.73E-05
   11    -419.1028257533      6.56E-06
   12    -419.1028275127      1.52E-06
   13    -419.1028275998      4.73E-07
   14    -419.1028276088      8.05E-08
   15    -419.1028276091      2.32E-08
   16    -419.1028276091      5.01E-09 Convergence criterion met
 ---------------------------------------

************** Final PCM Free Energy Summary **************
 G_electrostatic  =      -0.36031869 hartree =    -226.10339322 kcal/mol
 G_cavitation     =       0.00000000 hartree =       0.00000000 kcal/mol
 G_dispersion     =       0.00000000 hartree =       0.00000000 kcal/mol
 G_repulsion      =       0.00000000 hartree =       0.00000000 kcal/mol
 --------------------------------------------------
 Non-electrostatic Free Energy =       0.00000000 hartree =       0.00000000 kcal/mol
 Total                         =      -0.36031869 hartree =    -226.10339322 kcal/mol
 --------------------------------------------------
 SCF Energy (H0 + V/2)                       =    -419.10282761 
 Solute Internal Energy (H0)                 =    -418.74250891 
 Total Free Energy (H0 + V/2 + non-elec)     =    -419.10282761 hartree
                                             = -262990.99364760 kcal/mol
***********************************************************

 SCF time:  CPU 1343.47 s  wall 96.54 s
 SCF   energy in the final basis set = -419.10282761
 Total energy in the final basis set = -419.10282761
 
 --------------------------------------------------------------
 
                    Orbital Energies (a.u.)
 --------------------------------------------------------------
 
 Alpha MOs
 -- Occupied --
-19.183 -19.174 -19.107 -19.106 -10.305 -10.278 -10.174  -1.109
 -1.098  -1.090  -1.001  -0.831  -0.705  -0.600  -0.583  -0.567
 -0.535  -0.497  -0.484  -0.471  -0.455  -0.446  -0.409  -0.395
 -0.360  -0.319  -0.317  -0.296  -0.239
 -- Virtual --
  0.061   0.079   0.084   0.089   0.111   0.115   0.123   0.127
  0.130   0.146   0.154   0.164   0.170   0.174   0.185   0.195
  0.199   0.203   0.224   0.236   0.247   0.260   0.264   0.276
  0.288   0.292   0.294   0.313   0.318   0.326   0.329   0.342
  0.344   0.347   0.364   0.371   0.374   0.380   0.392   0.394
  0.400   0.412   0.417   0.426   0.429   0.433   0.440   0.451
  0.465   0.476   0.479   0.485   0.490   0.497   0.504   0.515
  0.522   0.531   0.536   0.550   0.571   0.571   0.578   0.583
  0.592   0.595   0.614   0.620   0.628   0.637   0.639   0.651
  0.659   0.663   0.686   0.695   0.705   0.707   0.718   0.727
  0.747   0.752   0.753   0.765   0.782   0.791   0.803   0.810
  0.828   0.834   0.842   0.850   0.860   0.867   0.875   0.885
  0.908   0.914   0.937   0.953   0.981   0.998   1.016   1.025
  1.059   1.061   1.081   1.091   1.093   1.124   1.132   1.155
  1.183   1.191   1.216   1.228   1.250   1.274   1.290   1.307
  1.315   1.350   1.365   1.381   1.400   1.443   1.475   1.514
  1.543   1.577   1.586   1.638   1.714   1.729   1.761   1.784
  1.818   1.836   1.855   1.901   1.913   1.926   1.935   1.958
  1.971   1.982   1.997   2.014   2.040   2.059   2.087   2.113
  2.145   2.178   2.197   2.241   2.247   2.257   2.288   2.294
  2.325   2.347   2.371   2.381   2.422   2.442   2.451   2.482
  2.488   2.519   2.567   2.591   2.659   2.702   2.713   2.729
  2.736   2.772   2.784   2.812   2.893   2.931   2.944   2.966
  2.971   2.986   2.992   3.016   3.046   3.065   3.115   3.144
  3.160   3.194   3.232   3.256   3.261   3.300   3.356   3.378
  3.417   3.420   3.447   3.468   3.477   3.505   3.523   3.550
  3.559   3.588   3.604   3.624   3.637   3.651   3.694   3.711
  3.736   3.766   3.777   3.835   3.867   3.888   4.012   4.022
  4.075   4.104   4.174   4.221   4.317   4.359   4.406   4.448
  4.521   4.645   4.766   4.851   4.863   4.927   4.972   5.098
  5.166   5.253   5.352   5.385   5.389   5.401   5.416   5.418
  5.492   5.527   5.559   5.607   5.612   5.639   5.712   5.751
  5.787   5.842   5.902   5.992   6.046   6.179   6.209   6.281
  6.394   6.471   6.482   6.551   6.618   6.652   6.684   6.696
  6.711   6.743   6.772   6.804   6.874   6.880   6.958   7.000
  7.046   7.106   7.261   7.290   7.302   7.349   7.389   7.404
  7.415  22.708  22.957  23.620  44.073  44.282  44.336  44.436
 --------------------------------------------------------------
 
          Ground-State Mulliken Net Atomic Charges

     Atom                 Charge (a.u.)
  ----------------------------------------
      1 C                    -0.561364
      2 C                     0.249769
      3 O                    -0.786471
      4 O                    -0.817048
      5 C                    -0.091300
      6 H                     0.209973
      7 H                     0.129302
      8 H                     0.186757
      9 O                    -0.531900
     10 H                     0.148032
     11 O                    -0.795534
     12 H                     0.341602
     13 H                     0.318183
  ----------------------------------------
  Sum of atomic charges =    -2.000000

 -----------------------------------------------------------------
                    Cartesian Multipole Moments
 -----------------------------------------------------------------
    Charge (ESU x 10^10)
                -9.6064
    Dipole Moment (Debye)
         X       3.6708      Y     -13.6865      Z       3.9943
       Tot      14.7224
    Quadrupole Moments (Debye-Ang)
        XX     -62.7196     XY       1.4165     YY     -78.1230
        XZ       5.0064     YZ      11.7073     ZZ     -67.5324
    Octopole Moments (Debye-Ang^2)
       XXX       7.4657    XXY     -35.8049    XYY      32.3105
       YYY    -160.2489    XXZ     -10.9525    XYZ      -7.1897
       YYZ      22.0065    XZZ      18.0798    YZZ     -40.6396
       ZZZ      56.5560
    Hexadecapole Moments (Debye-Ang^3)
      XXXX    -629.5032   XXXY      28.3272   XXYY    -186.6242
      XYYY      90.4879   YYYY    -776.2665   XXXZ      88.9885
      XXYZ      45.1804   XYYZ       2.4208   YYYZ     111.2545
      XXZZ    -178.2126   XYZZ      22.1746   YYZZ    -164.8513
      XZZZ      41.0412   YZZZ     108.9188   ZZZZ    -357.0860
 -----------------------------------------------------------------
 Calculating analytic gradient of the SCF energy
 Gradient of SCF Energy
            1           2           3           4           5           6
    1   0.0013132   0.0006909   0.0134542   0.0147351  -0.0393578  -0.0658121
    2   0.0731953   0.0314362   0.0146133  -0.0506374  -0.0807685  -0.0547786
    3   0.1319085  -0.0759249   0.0503605  -0.0050847  -0.0055441  -0.0761427
            7           8           9          10          11          12
    1   0.0573858   0.0286891   0.0290963  -0.0569270   0.0142710   0.0336761
    2   0.0253969   0.0431988  -0.0323860  -0.0252161   0.0217447  -0.0047754
    3   0.0420472  -0.0596767  -0.0172581   0.0023251  -0.0628958   0.0615501
           13
    1  -0.0312148
    2   0.0389768
    3   0.0143356
 Max gradient component =       1.319E-01
 RMS gradient           =       4.717E-02
 Computing fast CPCM-ISWIG gradient
 Updating gradient with PCM contributions...
 -- total gradient after adding PCM contribution --
---------------------------------------------------
  Atom         X              Y              Z     
---------------------------------------------------
   1      -0.000298       0.000945       0.000172
   2       0.000067      -0.000183       0.000031
   3       0.000003       0.000022       0.000050
   4       0.000047      -0.000169       0.000042
   5       0.000154      -0.000375      -0.000079
   6      -0.000035      -0.000177      -0.000187
   7       0.000013      -0.000024      -0.000012
   8       0.000018      -0.000032      -0.000010
   9       0.000026       0.000003      -0.000011
  10       0.000073      -0.000006      -0.000014
  11      -0.000078      -0.000005      -0.000006
  12       0.000003      -0.000008       0.000019
  13       0.000006       0.000009       0.000007
---------------------------------------------------
 Number of fixed atoms: 0
 Gradient time:  CPU 291.25 s  wall 21.55 s
 ----------------------------------------------------------------
             Standard Nuclear Orientation (Angstroms)
    I     Atom           X                Y                Z
 ----------------------------------------------------------------
    1      C       0.2032994775     0.5081934175     0.3966634910
    2      C      -0.2299114598     1.4301480855    -0.6337608820
    3      O      -0.3567941017     1.0310301277    -1.8528103476
    4      O      -0.5461671548     2.6384526641    -0.3023482803
    5      C       0.8948717709    -0.7509513113     0.0563660911
    6      H       0.5065190865     0.9761323874     1.3382118739
    7      H       0.4034067235    -1.2523291118    -0.7870046249
    8      H       0.9021399098    -1.4449341428     0.9095504837
    9      O       2.3126189565    -0.5573233096    -0.3289476976
   10      H      -1.4734507982    -0.1282009675     0.7645010065
   11      O      -2.4023722771    -0.5044790746     0.9752959990
   12      H      -2.8695758997    -0.4953931244     0.1323745293
   13      H       2.6807680362    -1.4279435929    -0.5259731962
 ----------------------------------------------------------------
 Nuclear Repulsion Energy =   295.7620347335 hartrees
 There are       29 alpha and       29 beta electrons
 Discretize the solute cavity surface with Lebedev spheres
	Using 110 Lebedev grid points for each H atom
	Using 110 Lebedev grid points for other atoms
	Atomic van der Waals radii will be scaled by 1.20
 Remove points where switching function is < 1.0e-08
 Keep 849 surface tesserae and discard 581 interior tesserae
 Molecular Surface Area = 157.895 Angst**2

                       Distance Matrix (Angstroms)
             C (  1)   C (  2)   O (  3)   O (  4)   C (  5)   H (  6)
   C (  2)  1.448947
   O (  3)  2.376383  1.288983
   O (  4)  2.363963  1.292228  2.241339
   C (  5)  1.476320  2.549237  2.896046  3.700450
   H (  6)  1.094268  2.153401  3.306198  2.561815  2.185581
   H (  7)  2.130857  2.760482  2.632029  4.034199  1.097357  3.081107
   H (  8)  2.136852  3.453903  3.917391  4.498927  1.099813  2.490347
   O (  9)  2.472057  3.241514  3.459883  4.287931  1.481879  2.897051
   H ( 10)  1.830790  2.435155  3.072630  3.106830  2.549162  2.338584
   O ( 11)  2.854794  3.324369  3.813183  3.867285  3.431763  3.284139
   H ( 12)  3.243393  3.355965  3.547534  3.925328  3.773878  3.875235
   H ( 13)  3.276848  4.080730  4.127206  5.196027  1.996713  3.739268
             H (  7)   H (  8)   O (  9)   H ( 10)   O ( 11)   H ( 12)
   H (  8)  1.778800
   O (  9)  2.082772  2.076339
   H ( 10)  2.682057  2.719974  3.964101
   O ( 11)  3.396672  3.436361  4.892340  1.024165
   H ( 12)  3.482905  3.966292  5.203057  1.575938  0.963783
   H ( 13)  2.298989  2.285724  0.965574  4.540065  5.380048  5.666515

 
 Requested basis set is def2-TZVPD
 There are 125 shells and 325 basis functions
 A cutoff of  1.0D-14 yielded   7428 shell pairs
 There are     50728 function pairs (     64543 Cartesian)
 Smallest overlap matrix eigenvalue = 5.52E-06
 Guess MOs from SCF MO coefficient file
 Reading MOs from coefficient file
 Reading MOs from coefficient file
 Long-range K will be added via erf
 Coulomb attenuation parameter = 0.3 bohr**(-1)
 A restricted hybrid HF-DFT SCF calculation will be
 performed using Pulay DIIS extrapolation
 Polarizable Continuum solvation model will be applied
 Exchange:     0.1670 Hartree-Fock + 1.0000 wB97X-V + LR-HF
 Correlation:  1.0000 wB97X-V
 Using SG-2 standard quadrature grid
 Nonlocal Correlation:  VV10 with C = 0.0100 and b = 6.00
 Grid used for NLC:  SG-1 standard quadrature
 SCF converges when DIIS error is below 1.0E-08
Using Q-Chem read-in guess as SCF_GUESS READ specified.

 using 16 threads for integral computing
 -------------------------------------------------------
 OpenMP Integral computing Module                
 Release: version 1.0, May 2013, Q-Chem Inc. Pittsburgh 
 -------------------------------------------------------
 using 16 threads for integral computing
 -------------------------------------------------------
 OpenMP Integral computing Module                
 Release: version 1.0, May 2013, Q-Chem Inc. Pittsburgh 
 -------------------------------------------------------
 -------------------------------------------------------
 OpenMP BLAS3 based DFT computing Module                
 Release: version 1.0, May 2013, Q-Chem Inc. Pittsburgh 
 -------------------------------------------------------
 -------------------------------------------------------
 OpenMP BLAS3 based DFT computing Module                
 Release: version 1.0, May 2013, Q-Chem Inc. Pittsburgh 
 -------------------------------------------------------
 -------------------------------------------------------
 OpenMP BLAS3 based DFT computing Module                
 Release: version 1.0, May 2013, Q-Chem Inc. Pittsburgh 
 -------------------------------------------------------
 ---------------------------------------
  Cycle       Energy         DIIS Error
 ---------------------------------------
    1    -418.7426714731      6.57E-04
    2    -419.0876385448      7.45E-04
    3    -419.0986028919      3.24E-04
    4    -419.1004151980      2.36E-04
    5    -419.1014697127      1.76E-04
    6    -419.1020627843      1.31E-04
    7    -419.1025097697      8.44E-05
    8    -419.1026912433      5.53E-05
    9    -419.1027909164      2.88E-05
   10    -419.1028253328      7.20E-06
   11    -419.1028273975      2.03E-06
   12    -419.1028275673      3.83E-07
   13    -419.1028275725      9.70E-08
   14    -419.1028275729      1.20E-08
   15    -419.1028275729      6.67E-09 Convergence criterion met
 ---------------------------------------

************** Final PCM Free Energy Summary **************
 G_electrostatic  =      -0.36023086 hartree =    -226.04827455 kcal/mol
 G_cavitation     =       0.00000000 hartree =       0.00000000 kcal/mol
 G_dispersion     =       0.00000000 hartree =       0.00000000 kcal/mol
 G_repulsion      =       0.00000000 hartree =       0.00000000 kcal/mol
 --------------------------------------------------
 Non-electrostatic Free Energy =       0.00000000 hartree =       0.00000000 kcal/mol
 Total                         =      -0.36023086 hartree =    -226.04827455 kcal/mol
 --------------------------------------------------
 SCF Energy (H0 + V/2)                       =    -419.10282757 
 Solute Internal Energy (H0)                 =    -418.74259672 
 Total Free Energy (H0 + V/2 + non-elec)     =    -419.10282757 hartree
                                             = -262990.99362488 kcal/mol
***********************************************************

 SCF time:  CPU 1258.69 s  wall 90.34 s
 SCF   energy in the final basis set = -419.10282757
 Total energy in the final basis set = -419.10282757
 
 --------------------------------------------------------------
 
                    Orbital Energies (a.u.)
 --------------------------------------------------------------
 
 Alpha MOs
 -- Occupied --
-19.183 -19.174 -19.107 -19.106 -10.305 -10.278 -10.174  -1.109
 -1.098  -1.090  -1.002  -0.832  -0.705  -0.600  -0.583  -0.567
 -0.535  -0.498  -0.484  -0.471  -0.455  -0.446  -0.409  -0.395
 -0.360  -0.319  -0.317  -0.296  -0.239
 -- Virtual --
  0.061   0.079   0.084   0.089   0.111   0.115   0.123   0.127
  0.130   0.146   0.154   0.164   0.170   0.174   0.185   0.195
  0.199   0.202   0.224   0.236   0.247   0.260   0.264   0.276
  0.288   0.292   0.294   0.313   0.318   0.326   0.329   0.342
  0.344   0.347   0.364   0.371   0.374   0.380   0.392   0.394
  0.400   0.412   0.417   0.426   0.429   0.433   0.440   0.451
  0.465   0.476   0.479   0.485   0.490   0.497   0.503   0.515
  0.522   0.531   0.536   0.550   0.571   0.571   0.578   0.583
  0.592   0.595   0.614   0.620   0.628   0.636   0.639   0.651
  0.659   0.663   0.686   0.695   0.705   0.707   0.718   0.727
  0.747   0.752   0.753   0.765   0.782   0.791   0.803   0.810
  0.828   0.834   0.842   0.851   0.860   0.867   0.875   0.885
  0.908   0.914   0.937   0.953   0.981   0.998   1.017   1.025
  1.059   1.061   1.081   1.091   1.093   1.124   1.132   1.155
  1.183   1.191   1.217   1.228   1.250   1.274   1.290   1.307
  1.315   1.350   1.365   1.381   1.400   1.443   1.475   1.514
  1.543   1.577   1.586   1.638   1.714   1.728   1.761   1.784
  1.818   1.836   1.855   1.901   1.913   1.926   1.935   1.958
  1.971   1.982   1.997   2.014   2.040   2.060   2.087   2.113
  2.145   2.178   2.197   2.241   2.247   2.257   2.288   2.294
  2.325   2.347   2.371   2.382   2.422   2.442   2.451   2.482
  2.488   2.519   2.568   2.591   2.659   2.703   2.713   2.730
  2.736   2.772   2.784   2.813   2.893   2.931   2.945   2.965
  2.971   2.986   2.992   3.016   3.046   3.065   3.115   3.144
  3.160   3.194   3.232   3.256   3.261   3.300   3.356   3.378
  3.417   3.420   3.447   3.468   3.477   3.506   3.523   3.550
  3.559   3.588   3.604   3.624   3.637   3.651   3.694   3.711
  3.736   3.766   3.777   3.835   3.867   3.888   4.013   4.023
  4.075   4.104   4.175   4.222   4.315   4.360   4.407   4.448
  4.520   4.645   4.766   4.851   4.863   4.928   4.972   5.099
  5.166   5.253   5.352   5.385   5.389   5.401   5.416   5.418
  5.492   5.527   5.559   5.607   5.612   5.639   5.712   5.751
  5.787   5.842   5.903   5.991   6.046   6.178   6.209   6.281
  6.393   6.471   6.482   6.550   6.618   6.652   6.684   6.696
  6.711   6.743   6.772   6.804   6.874   6.880   6.958   7.000
  7.046   7.106   7.261   7.290   7.302   7.349   7.389   7.404
  7.415  22.710  22.956  23.618  44.073  44.282  44.335  44.436
 --------------------------------------------------------------
 
          Ground-State Mulliken Net Atomic Charges

     Atom                 Charge (a.u.)
  ----------------------------------------
      1 C                    -0.560944
      2 C                     0.250065
      3 O                    -0.786147
      4 O                    -0.816723
      5 C                    -0.090860
      6 H                     0.208459
      7 H                     0.129074
      8 H                     0.186509
      9 O                    -0.531857
     10 H                     0.148229
     11 O                    -0.795610
     12 H                     0.341580
     13 H                     0.318226
  ----------------------------------------
  Sum of atomic charges =    -2.000000

 -----------------------------------------------------------------
                    Cartesian Multipole Moments
 -----------------------------------------------------------------
    Charge (ESU x 10^10)
                -9.6064
    Dipole Moment (Debye)
         X       3.6685      Y     -13.6739      Z       3.9867
       Tot      14.7081
    Quadrupole Moments (Debye-Ang)
        XX     -62.7320     XY       1.4116     YY     -78.1000
        XZ       5.0106     YZ      11.7009     ZZ     -67.5343
    Octopole Moments (Debye-Ang^2)
       XXX       7.4606    XXY     -35.7709    XYY      32.2900
       YYY    -160.1209    XXZ     -10.9653    XYZ      -7.1896
       YYZ      21.9879    XZZ      18.0745    YZZ     -40.6177
       ZZZ      56.5223
    Hexadecapole Moments (Debye-Ang^3)
      XXXX    -629.6642   XXXY      28.3163   XXYY    -186.5985
      XYYY      90.4449   YYYY    -775.9205   XXXZ      89.0269
      XXYZ      45.1775   XYYZ       2.4329   YYYZ     111.2146
      XXZZ    -178.2304   XYZZ      22.1668   YYZZ    -164.8182
      XZZZ      41.0514   YZZZ     108.9021   ZZZZ    -357.0902
 -----------------------------------------------------------------
 Calculating analytic gradient of the SCF energy
 Gradient of SCF Energy
            1           2           3           4           5           6
    1   0.0016914   0.0002764   0.0134382   0.0147126  -0.0394645  -0.0656847
    2   0.0716933   0.0319174   0.0145414  -0.0505853  -0.0798651  -0.0546486
    3   0.1318689  -0.0762639   0.0503458  -0.0051247  -0.0056736  -0.0755298
            7           8           9          10          11          12
    1   0.0574525   0.0287432   0.0290337  -0.0569194   0.0142707   0.0336734
    2   0.0254045   0.0431956  -0.0324237  -0.0251998   0.0217529  -0.0047664
    3   0.0420166  -0.0596765  -0.0172584   0.0022949  -0.0628950   0.0615428
           13
    1  -0.0312235
    2   0.0389840
    3   0.0143529
 Max gradient component =       1.319E-01
 RMS gradient           =       4.706E-02
 Computing fast CPCM-ISWIG gradient
 Updating gradient with PCM contributions...
 -- total gradient after adding PCM contribution --
---------------------------------------------------
  Atom         X              Y              Z     
---------------------------------------------------
   1       0.000257      -0.000965      -0.000105
   2      -0.000021       0.000274      -0.000115
   3      -0.000008      -0.000042      -0.000005
   4      -0.000075       0.000121      -0.000040
   5      -0.000096       0.000377       0.000045
   6       0.000042       0.000173       0.000174
   7      -0.000016       0.000017       0.000014
   8      -0.000026       0.000030       0.000013
   9      -0.000066      -0.000010       0.000017
  10      -0.000019       0.000017      -0.000002
  11       0.000016       0.000005      -0.000020
  12       0.000008      -0.000007       0.000017
  13       0.000002       0.000010       0.000008
---------------------------------------------------
 Number of fixed atoms: 0
 Gradient time:  CPU 294.19 s  wall 21.63 s
 ----------------------------------------------------------------
             Standard Nuclear Orientation (Angstroms)
    I     Atom           X                Y                Z
 ----------------------------------------------------------------
    1      C       0.2032994775     0.5091934175     0.3976634910
    2      C      -0.2299114598     1.4301480855    -0.6337608820
    3      O      -0.3567941017     1.0310301277    -1.8528103476
    4      O      -0.5461671548     2.6384526641    -0.3023482803
    5      C       0.8948717709    -0.7509513113     0.0563660911
    6      H       0.5065190865     0.9761323874     1.3382118739
    7      H       0.4034067235    -1.2523291118    -0.7870046249
    8      H       0.9021399098    -1.4449341428     0.9095504837
    9      O       2.3126189565    -0.5573233096    -0.3289476976
   10      H      -1.4734507982    -0.1282009675     0.7645010065
   11      O      -2.4023722771    -0.5044790746     0.9752959990
   12      H      -2.8695758997    -0.4953931244     0.1323745293
   13      H       2.6807680362    -1.4279435929    -0.5259731962
 ----------------------------------------------------------------
 Nuclear Repulsion Energy =   295.7493490965 hartrees
 There are       29 alpha and       29 beta electrons
 Discretize the solute cavity surface with Lebedev spheres
	Using 110 Lebedev grid points for each H atom
	Using 110 Lebedev grid points for other atoms
	Atomic van der Waals radii will be scaled by 1.20
 Remove points where switching function is < 1.0e-08
 Keep 849 surface tesserae and discard 581 interior tesserae
 Molecular Surface Area = 157.902 Angst**2

                       Distance Matrix (Angstroms)
             C (  1)   C (  2)   O (  3)   O (  4)   C (  5)   H (  6)
   C (  2)  1.449022
   O (  3)  2.377110  1.288983
   O (  4)  2.363358  1.292228  2.241339
   C (  5)  1.477403  2.549237  2.896046  3.700450
   H (  6)  1.092980  2.153401  3.306198  2.561815  2.185581
   H (  7)  2.132239  2.760482  2.632029  4.034199  1.097357  3.081107
   H (  8)  2.137527  3.453903  3.917391  4.498927  1.099813  2.490347
   O (  9)  2.472782  3.241514  3.459883  4.287931  1.481879  2.897051
   H ( 10)  1.830938  2.435155  3.072630  3.106830  2.549162  2.338584
   O ( 11)  2.854946  3.324369  3.813183  3.867285  3.431763  3.284139
   H ( 12)  3.243784  3.355965  3.547534  3.925328  3.773878  3.875235
   H ( 13)  3.277721  4.080730  4.127206  5.196027  1.996713  3.739268
             H (  7)   H (  8)   O (  9)   H ( 10)   O ( 11)   H ( 12)
   H (  8)  1.778800
   O (  9)  2.082772  2.076339
   H ( 10)  2.682057  2.719974  3.964101
   O ( 11)  3.396672  3.436361  4.892340  1.024165
   H ( 12)  3.482905  3.966292  5.203057  1.575938  0.963783
   H ( 13)  2.298989  2.285724  0.965574  4.540065  5.380048  5.666515

 
 Requested basis set is def2-TZVPD
 There are 125 shells and 325 basis functions
 A cutoff of  1.0D-14 yielded   7428 shell pairs
 There are     50728 function pairs (     64543 Cartesian)
 Smallest overlap matrix eigenvalue = 5.53E-06
 Guess MOs from SCF MO coefficient file
 Reading MOs from coefficient file
 Reading MOs from coefficient file
 Long-range K will be added via erf
 Coulomb attenuation parameter = 0.3 bohr**(-1)
 A restricted hybrid HF-DFT SCF calculation will be
 performed using Pulay DIIS extrapolation
 Polarizable Continuum solvation model will be applied
 Exchange:     0.1670 Hartree-Fock + 1.0000 wB97X-V + LR-HF
 Correlation:  1.0000 wB97X-V
 Using SG-2 standard quadrature grid
 Nonlocal Correlation:  VV10 with C = 0.0100 and b = 6.00
 Grid used for NLC:  SG-1 standard quadrature
 SCF converges when DIIS error is below 1.0E-08
Using Q-Chem read-in guess as SCF_GUESS READ specified.

 using 16 threads for integral computing
[...]
 H          0.206 -0.057 -0.079    0.115  0.057 -0.325    0.174 -0.044 -0.129
 H          0.242 -0.090 -0.091   -0.191 -0.167 -0.262    0.172 -0.117 -0.135
 O          0.148  0.096 -0.068    0.013  0.045  0.126    0.008  0.348  0.002
 H         -0.060  0.100 -0.023   -0.083 -0.071  0.064   -0.176 -0.110  0.032
 O         -0.163  0.350 -0.045   -0.050 -0.031  0.320   -0.225 -0.042  0.039
 H         -0.185  0.605 -0.030   -0.244 -0.124  0.426   -0.175 -0.156  0.010
 H          0.223  0.140 -0.121    0.077  0.084  0.077    0.231  0.464 -0.096
 TransDip   0.057  0.070 -0.031   -0.050 -0.033 -0.009    0.078  0.045 -0.085

 Mode:                 4                      5                      6
 Frequency:       123.08                 127.83                 201.37
 Force Cnst:      0.0384                 0.0112                 0.1353
 Red. Mass:       4.3068                 1.1629                 5.6641
 IR Active:          YES                    YES                    YES
 IR Intens:        3.238                169.628                117.829
 Raman Active:       YES                    YES                    YES
               X      Y      Z        X      Y      Z        X      Y      Z
 C         -0.051  0.017  0.116   -0.012  0.008  0.015   -0.219 -0.134  0.051
 C          0.059 -0.013  0.041    0.008  0.001 -0.001   -0.038 -0.064  0.015
 O          0.280 -0.043  0.029    0.030 -0.010  0.001    0.048 -0.046  0.010
 O         -0.033 -0.018 -0.036    0.008  0.006 -0.019    0.011 -0.067  0.025
 C         -0.019  0.025  0.145   -0.007  0.008  0.025   -0.133 -0.070 -0.030
 H         -0.063  0.055  0.101   -0.010  0.018  0.009   -0.114 -0.133  0.019
 H         -0.171 -0.178  0.352   -0.024 -0.020  0.051   -0.078 -0.025 -0.089
 H          0.241  0.181  0.269    0.023  0.030  0.042   -0.126 -0.148 -0.091
 O         -0.139  0.078 -0.265   -0.022  0.015 -0.022   -0.177  0.143  0.057
 H         -0.086 -0.013  0.065   -0.004 -0.026  0.006    0.489  0.175 -0.078
 O         -0.091 -0.020  0.023    0.015 -0.081 -0.006    0.378  0.153 -0.087
 H          0.097 -0.451 -0.086   -0.339  0.908  0.201    0.410  0.167 -0.104
 H         -0.162  0.092 -0.369   -0.022  0.017 -0.032   -0.076  0.237 -0.167
 TransDip  -0.007 -0.057 -0.003   -0.145  0.381  0.087    0.275  0.143 -0.158

 Mode:                 7                      8                      9
 Frequency:       244.38                 304.65                 458.71
 Force Cnst:      0.0406                 0.1391                 0.4135
 Red. Mass:       1.1532                 2.5433                 3.3356
 IR Active:          YES                    YES                    YES
 IR Intens:      178.896                  3.511                 13.355
 Raman Active:       YES                    YES                    YES
               X      Y      Z        X      Y      Z        X      Y      Z
 C         -0.022 -0.021 -0.016   -0.059 -0.056 -0.088    0.223  0.095 -0.032
 C         -0.006 -0.004 -0.009   -0.028 -0.011 -0.079    0.094 -0.074 -0.069
 O         -0.004  0.031 -0.020   -0.079  0.143 -0.124   -0.017  0.017 -0.107
 O          0.010 -0.010  0.025    0.039 -0.035  0.071    0.016 -0.146  0.109
 C          0.006 -0.018  0.025    0.077 -0.060  0.196   -0.075 -0.015  0.012
 H          0.001 -0.001 -0.032   -0.190  0.023 -0.083    0.664  0.300 -0.279
 H         -0.022 -0.118  0.096    0.092 -0.428  0.395   -0.168  0.088  0.002
 H          0.084  0.059  0.084    0.215  0.235  0.433   -0.123 -0.065 -0.022
 O         -0.026  0.014 -0.069    0.024 -0.015  0.017   -0.168  0.110  0.068
 H          0.020  0.002 -0.012    0.030 -0.015 -0.077   -0.057  0.047  0.243
 O          0.013  0.006 -0.003    0.023  0.013 -0.003   -0.044 -0.026  0.010
 H          0.007  0.005  0.001   -0.036 -0.015  0.030    0.186  0.083 -0.118
 H          0.273 -0.086  0.930   -0.086  0.038 -0.425   -0.005  0.196 -0.015
 TransDip   0.168 -0.039  0.392    0.019 -0.015 -0.055    0.104 -0.051 -0.013

 Mode:                10                     11                     12
 Frequency:       508.07                 568.24                 624.76
 Force Cnst:      0.1984                 0.7975                 0.3137
 Red. Mass:       1.3043                 4.1919                 1.3641
 IR Active:          YES                    YES                    YES
 IR Intens:      255.709                 89.902                161.791
 Raman Active:       YES                    YES                    YES
               X      Y      Z        X      Y      Z        X      Y      Z
 C         -0.078 -0.041  0.059   -0.153  0.115  0.075   -0.074 -0.033  0.119
 C         -0.040  0.007 -0.005   -0.068 -0.099 -0.073   -0.012 -0.012 -0.002
 O          0.006  0.050 -0.011    0.017 -0.063 -0.113   -0.003  0.059 -0.006
 O         -0.009  0.016 -0.044    0.115 -0.157  0.162   -0.011 -0.022 -0.040
 C          0.025 -0.010 -0.001   -0.043  0.300  0.013    0.027 -0.003  0.012
 H          0.309  0.117 -0.135   -0.380  0.313  0.042    0.657  0.281 -0.260
 H          0.017  0.010 -0.008   -0.073  0.538 -0.104   -0.034  0.103 -0.014
 H          0.051 -0.046 -0.031   -0.089  0.118 -0.140    0.053 -0.111 -0.075
 O          0.042 -0.029 -0.006    0.106 -0.067 -0.053    0.023 -0.021 -0.003
 H          0.127 -0.058  0.528    0.018  0.017  0.029   -0.038  0.110 -0.281
 O         -0.038 -0.019  0.020    0.007  0.002  0.000    0.022  0.009 -0.021
 H          0.594  0.282 -0.332    0.047  0.023 -0.022   -0.418 -0.200  0.225
 H          0.004 -0.042 -0.013   -0.278 -0.258  0.081   -0.013 -0.032 -0.012
 TransDip   0.423  0.239 -0.162   -0.222  0.207  0.017    0.176  0.156 -0.333

 Mode:                13                     14                     15
 Frequency:       677.27                 826.69                 856.76
 Force Cnst:      0.7765                 4.3945                 2.6101
 Red. Mass:       2.8733                10.9138                 6.0352
 IR Active:          YES                    YES                    YES
 IR Intens:      109.139                 94.332                314.768
 Raman Active:       YES                    YES                    YES
               X      Y      Z        X      Y      Z        X      Y      Z
 C          0.110 -0.016  0.177   -0.255 -0.087  0.069   -0.042 -0.055 -0.043
 C          0.060 -0.102  0.046    0.763  0.270 -0.193    0.027 -0.040  0.052
 O         -0.078  0.183 -0.045   -0.194 -0.070  0.037   -0.008  0.031  0.048
 O          0.004 -0.095 -0.159   -0.183 -0.091  0.050    0.009 -0.037 -0.039
 C          0.002 -0.009  0.067   -0.031  0.067  0.015    0.464  0.201 -0.154
 H         -0.561 -0.182  0.461   -0.023 -0.213  0.082   -0.064 -0.010 -0.047
 H         -0.072  0.363 -0.113    0.082  0.019 -0.024    0.241  0.037  0.035
 H         -0.039 -0.319 -0.188   -0.065  0.097  0.034    0.162  0.314 -0.016
 O         -0.020  0.016 -0.026    0.040 -0.008 -0.026   -0.318 -0.077  0.091
 H          0.005 -0.082  0.003    0.042  0.112  0.067    0.107 -0.197 -0.040
 O          0.004  0.004  0.002   -0.021 -0.016  0.012   -0.015  0.004  0.005
 H          0.030  0.014 -0.013    0.101  0.044 -0.056    0.016  0.014 -0.012
 H          0.024  0.018  0.040   -0.117 -0.088  0.042   -0.543 -0.170  0.136
 TransDip  -0.142 -0.138  0.270    0.211  0.205 -0.102    0.554 -0.080 -0.099

 Mode:                16                     17                     18
 Frequency:       890.43                 975.28                1044.72
 Force Cnst:      1.4305                 0.5965                 1.3631
 Red. Mass:       3.0623                 1.0643                 2.1198
 IR Active:          YES                    YES                    YES
 IR Intens:       80.594                 29.426                 33.755
 Raman Active:       YES                    YES                    YES
               X      Y      Z        X      Y      Z        X      Y      Z
 C          0.001 -0.012 -0.105   -0.017  0.021 -0.006    0.045 -0.007  0.196
 C          0.030 -0.086  0.102   -0.000 -0.019  0.016   -0.026  0.020 -0.001
 O         -0.002  0.111  0.145   -0.001  0.008  0.007   -0.014 -0.040 -0.156
 O          0.027 -0.151 -0.111    0.005 -0.014 -0.006   -0.004  0.047  0.031
 C         -0.167  0.134 -0.097    0.030 -0.019 -0.022   -0.029  0.031 -0.129
 H          0.233 -0.189 -0.103   -0.101  0.007  0.026    0.243 -0.547  0.402
 H         -0.024 -0.411  0.153    0.037 -0.059 -0.003   -0.022 -0.409  0.129
 H         -0.018  0.642  0.307    0.016  0.002 -0.003    0.189  0.367  0.149
 O          0.073  0.017  0.019   -0.003 -0.005  0.001    0.005 -0.002  0.032
 H         -0.006 -0.046 -0.006   -0.331  0.912  0.192   -0.010  0.038  0.017
 O          0.002  0.002 -0.001    0.011 -0.030 -0.006    0.003  0.001 -0.004
 H          0.009  0.005 -0.004    0.014 -0.007 -0.008   -0.036 -0.017  0.019
 H         -0.170 -0.089  0.020    0.015  0.004 -0.004   -0.091 -0.040  0.019
 TransDip  -0.260  0.039  0.116    0.013  0.104  0.138   -0.065  0.128  0.119

 Mode:                19                     20                     21
 Frequency:      1117.09                1216.26                1258.44
 Force Cnst:      1.2480                 1.0871                 1.4883
 Red. Mass:       1.6974                 1.2473                 1.5951
 IR Active:          YES                    YES                    YES
 IR Intens:      165.719                118.194                119.369
 Raman Active:       YES                    YES                    YES
               X      Y      Z        X      Y      Z        X      Y      Z
 C         -0.066  0.155  0.070    0.000 -0.071 -0.027   -0.033  0.128  0.015
 C          0.017  0.003  0.001   -0.021  0.018 -0.001   -0.057  0.095 -0.034
 O         -0.005  0.012  0.020    0.003 -0.004 -0.008    0.007  0.005  0.027
 O          0.013 -0.055 -0.004    0.004 -0.003 -0.003    0.030 -0.097 -0.012
 C          0.034 -0.069 -0.117    0.023  0.086  0.055    0.024 -0.047  0.048
 H         -0.247  0.392  0.009    0.206 -0.369  0.062    0.206 -0.322  0.171
 H         -0.130 -0.281  0.103   -0.100  0.324 -0.006    0.708 -0.203 -0.256
 H          0.016  0.136  0.052   -0.390  0.189  0.136   -0.368 -0.129  0.002
 O         -0.018 -0.052  0.019   -0.027 -0.046 -0.013   -0.015  0.006 -0.033
 H          0.073 -0.159 -0.036   -0.019  0.077  0.017    0.041 -0.043 -0.009
 O         -0.004  0.004  0.002   -0.000 -0.002 -0.001   -0.003  0.001  0.000
 H         -0.000  0.003 -0.000   -0.004 -0.003  0.002   -0.008 -0.002  0.003
 H          0.675  0.289 -0.161    0.615  0.263 -0.145   -0.099 -0.045  0.029
 TransDip   0.401 -0.050 -0.083    0.142  0.310 -0.072   -0.030  0.343 -0.062

 Mode:                22                     23                     24
 Frequency:      1298.31                1394.82                1408.97
 Force Cnst:      1.7016                 3.5249                 2.1125
 Red. Mass:       1.7133                 3.0751                 1.8061
 IR Active:          YES                    YES                    YES
 IR Intens:      553.378                612.926                388.478
 Raman Active:       YES                    YES                    YES
               X      Y      Z        X      Y      Z        X      Y      Z
 C          0.005  0.016 -0.028   -0.083  0.094 -0.085   -0.057  0.072 -0.078
 C         -0.074  0.149 -0.106    0.019  0.127  0.290    0.059 -0.066  0.160
 O          0.013  0.006  0.069   -0.015 -0.042 -0.133   -0.012 -0.012 -0.072
 O          0.030 -0.101 -0.012    0.018 -0.080 -0.034   -0.012  0.028 -0.006
 C         -0.001  0.012  0.004    0.090 -0.111 -0.002   -0.061  0.068  0.055
 H          0.075 -0.339  0.136    0.123 -0.164 -0.011    0.164 -0.194 -0.033
 H         -0.441  0.125  0.178   -0.663  0.251  0.216    0.406 -0.030 -0.149
 H          0.680 -0.231 -0.202   -0.346 -0.023  0.076    0.675 -0.250 -0.223
 O         -0.010 -0.011  0.033    0.050  0.044 -0.006   -0.032 -0.049  0.007
 H          0.025  0.048  0.010   -0.006 -0.060 -0.057   -0.066 -0.053 -0.038
 O         -0.004 -0.003  0.000   -0.001  0.001  0.004    0.006  0.003  0.002
 H         -0.009 -0.004  0.003    0.038  0.019 -0.019    0.036  0.017 -0.016
 H          0.040  0.020 -0.013   -0.283 -0.118  0.063    0.285  0.113 -0.073
 TransDip  -0.187  0.629 -0.370    0.142  0.155  0.765    0.006 -0.235  0.586

 Mode:                25                     26                     27
 Frequency:      1434.82                1479.31                1640.33
 Force Cnst:      3.2866                 1.5281                 1.6978
 Red. Mass:       2.7096                 1.1852                 1.0709
 IR Active:          YES                    YES                    YES
 IR Intens:      909.158                 16.977                 73.521
 Raman Active:       YES                    YES                    YES
               X      Y      Z        X      Y      Z        X      Y      Z
 C          0.102 -0.177  0.045   -0.021  0.041  0.002   -0.006  0.009 -0.018
 C         -0.050  0.254  0.116    0.002 -0.025 -0.022    0.008 -0.006  0.009
 O         -0.002 -0.038 -0.067    0.001  0.006  0.012   -0.001 -0.001 -0.004
 O          0.023 -0.092 -0.030   -0.001  0.005  0.004   -0.001  0.002  0.000
 C         -0.072  0.043 -0.007   -0.005 -0.111 -0.010    0.001 -0.001  0.001
 H         -0.303  0.605 -0.198    0.030 -0.053  0.035   -0.038 -0.028  0.010
 H          0.412  0.015 -0.250    0.064  0.552 -0.416   -0.006  0.005  0.001
 H          0.196  0.215  0.120    0.331  0.456  0.418    0.004 -0.009 -0.006
 O         -0.030 -0.017  0.003   -0.006  0.003  0.002    0.000  0.000  0.000
 H          0.006  0.068  0.050    0.011 -0.011 -0.007    0.212 -0.096  0.807
 O         -0.000 -0.002 -0.003   -0.001  0.000  0.000    0.016  0.018 -0.056
 H         -0.032 -0.016  0.016    0.002  0.001 -0.001   -0.437 -0.206  0.233
 H          0.107  0.048 -0.022   -0.066 -0.026  0.016   -0.001 -0.000  0.001
 TransDip  -0.252  0.886  0.288    0.028 -0.102 -0.078   -0.109 -0.099  0.232

 Mode:                28                     29                     30
 Frequency:      2600.11                3000.19                3053.75
 Force Cnst:      4.3338                 5.6417                 6.0283
 Red. Mass:       1.0880                 1.0638                 1.0972
 IR Active:          YES                    YES                    YES
 IR Intens:     3845.758                179.110                 65.820
 Raman Active:       YES                    YES                    YES
               X      Y      Z        X      Y      Z        X      Y      Z
 C          0.013  0.009 -0.008    0.002  0.002  0.004    0.003  0.005  0.010
 C          0.003 -0.013  0.014    0.001 -0.001  0.002    0.000  0.001 -0.002
 O         -0.001 -0.000 -0.006   -0.000 -0.000 -0.000   -0.000  0.001  0.000
 O         -0.002  0.006 -0.000   -0.000  0.001 -0.000    0.000 -0.000  0.000
 C         -0.007  0.002  0.003    0.009  0.061 -0.035   -0.032 -0.017 -0.082
 H         -0.019 -0.018 -0.011   -0.020 -0.029 -0.061   -0.041 -0.064 -0.126
 H          0.016  0.003  0.011   -0.166 -0.152 -0.299    0.404  0.416  0.719
 H          0.012  0.006 -0.023    0.019 -0.569  0.725    0.004 -0.222  0.261
 O          0.002 -0.001 -0.001    0.002 -0.000 -0.001   -0.001  0.000  0.000
 H          0.909  0.365 -0.178    0.021  0.010 -0.004   -0.008 -0.004  0.002
 O         -0.062 -0.025  0.014   -0.001 -0.001  0.000    0.001  0.000 -0.000
 H         -0.041 -0.010 -0.019   -0.001 -0.000 -0.000    0.000 -0.000  0.000
 H          0.003  0.004 -0.000    0.007  0.003 -0.001   -0.002 -0.002  0.002
 TransDip   1.783  0.739 -0.469    0.091  0.389 -0.157   -0.132 -0.090 -0.205

 Mode:                31                     32                     33
 Frequency:      3088.98                3809.59                3859.83
 Force Cnst:      6.1058                 9.1159                 9.3493
 Red. Mass:       1.0861                 1.0661                 1.0651
 IR Active:          YES                    YES                    YES
 IR Intens:      143.029                 10.416                 51.967
 Raman Active:       YES                    YES                    YES
               X      Y      Z        X      Y      Z        X      Y      Z
 C         -0.021 -0.033 -0.073    0.001 -0.000 -0.000    0.000  0.000  0.000
 C          0.001 -0.005  0.001   -0.000  0.000 -0.000   -0.000 -0.000  0.000
 O         -0.000  0.001 -0.000   -0.000  0.000  0.000    0.000  0.000 -0.000
 O         -0.000  0.001  0.000    0.000 -0.000  0.000    0.000  0.000 -0.000
 C         -0.007  0.003 -0.014   -0.001 -0.001  0.000   -0.000  0.000  0.000
 H          0.263  0.419  0.850   -0.001  0.000  0.001    0.000  0.000 -0.000
 H          0.049  0.048  0.085   -0.002 -0.000  0.002    0.000 -0.000 -0.000
 H          0.006 -0.076  0.088   -0.003 -0.000  0.000    0.000 -0.000 -0.000
 O          0.000  0.000 -0.000    0.025 -0.056 -0.013   -0.000  0.000  0.000
 H          0.018  0.007 -0.004   -0.004 -0.002  0.001    0.009  0.009 -0.027
 O         -0.001 -0.000  0.000    0.000  0.000 -0.000   -0.032 -0.001 -0.053
 H         -0.001 -0.000 -0.000    0.002  0.000  0.003    0.501 -0.001  0.863
 H          0.001 -0.000 -0.000   -0.387  0.897  0.205    0.001 -0.003 -0.001
 TransDip  -0.072 -0.131 -0.353   -0.027  0.093  0.037    0.169  0.024  0.156

 STANDARD THERMODYNAMIC QUANTITIES AT   298.15 K  AND     1.00 ATM

   This Molecule has  0 Imaginary Frequencies
   Zero point vibrational energy:       57.657 kcal/mol

   Atom    1 Element C  Has Mass   12.00000
   Atom    2 Element C  Has Mass   12.00000
   Atom    3 Element O  Has Mass   15.99491
   Atom    4 Element O  Has Mass   15.99491
   Atom    5 Element C  Has Mass   12.00000
   Atom    6 Element H  Has Mass    1.00783
   Atom    7 Element H  Has Mass    1.00783
   Atom    8 Element H  Has Mass    1.00783
   Atom    9 Element O  Has Mass   15.99491
   Atom   10 Element H  Has Mass    1.00783
   Atom   11 Element O  Has Mass   15.99491
   Atom   12 Element H  Has Mass    1.00783
   Atom   13 Element H  Has Mass    1.00783
   Molecular Mass:   106.026620 amu
   Principal axes and moments of inertia in amu*Bohr^2:
                             1           2           3
    Eigenvalues --      746.99518   999.60221  1437.28015
          X               0.90888     0.30127     0.28839
          Y              -0.40597     0.79745     0.44639
          Z              -0.09550    -0.52280     0.84709
   Rotational Symmetry Number is   1
   The Molecule is an Asymmetric Top
   Translational Enthalpy:        0.889 kcal/mol
   Rotational Enthalpy:           0.889 kcal/mol
   Vibrational Enthalpy:         61.701 kcal/mol
   gas constant (RT):             0.592 kcal/mol
   Translational Entropy:        39.892  cal/mol.K
   Rotational Entropy:           28.464  cal/mol.K
   Vibrational Entropy:          26.774  cal/mol.K

   Total Enthalpy:               64.071 kcal/mol
   Total Entropy:                95.130  cal/mol.K
Archival summary:
1\1\c4-88\FREQ\ProcedureUnspecified\BasisUnspecified\436(2-,1)\leeping\SatMar2105:06:172020SatMar2105:06:172020\0\\#,FREQ,ProcedureUnspecified,BasisUnspecified,\\-2,1\C\O,1,1.28898\O,1,1.29223,2,120.53\C,1,1.44831,2,120.359,3,176.77,0\H,4,1.09384,1,115.08,2,166.304,0\C,4,1.47717,1,121.238,2,18.8906,0\H,6,1.09736,4,110.925,1,-43.9018,0\H,6,1.09981,4,111.265,1,-164.295,0\O,6,1.48188,4,113.35,1,76.1846,0\H,9,0.965574,6,107.459,4,179.608,0\H,4,1.83114,1,95.1846,2,-86.4234,0\O,11,1.02417,4,178.754,1,148.26,0\H,12,0.963783,11,104.845,4,-114.676,0\\\@

 Total job time:  9613.33s(wall), 133322.31s(cpu) 
 Sat Mar 21 05:06:17 2020

        *************************************************************
        *                                                           *
        *  Thank you very much for using Q-Chem.  Have a nice day.  *
        *                                                           *
        *************************************************************


