13   
From 2-transition-freq.out: Frame 1 / 79, Energy=    -419.1015126450
C        0.0829277092    0.4378858722    0.4002889604
C       -0.2160301985    1.4326830295   -0.6439183386
O       -0.3268168024    1.0597691983   -1.8633955258
O       -0.4371148648    2.6454747155   -0.2887116945
C        0.8358139804   -0.7879423033    0.0182006545
H        0.4607569526    0.9002511509    1.3202374708
H        0.3846405156   -1.2559499255   -0.8656689306
H        0.8215186307   -1.5230020633    0.8362076104
O        2.2438411301   -0.5161534275   -0.2912169349
H       -1.3117308972   -0.0728361648    0.7359758654
O       -2.3537812459   -0.4796373497    1.0038616272
H       -2.8418211570   -0.4873224274    0.1725948844
H        2.6577962474   -1.3532203050   -0.5344556489
