
Running Job 1 of 1 qc-3-tshess.in
qchem qc-3-tshess.in_53619.0 ./qc-3-tshess.d/ 1
/home/leeping/opt/qchem/5.0.2-openmp/exe/qcprog.exe_s qc-3-tshess.in_53619.0 ./qc-3-tshess.d/
Check license passed

                  Welcome to Q-Chem
     A Quantum Leap Into The Future Of Chemistry


 Q-Chem 5.0, Q-Chem, Inc., Pleasanton, CA (2017)

 Yihan Shao,  Zhengting Gan,  E. Epifanovsky,  A. T. B. Gilbert,  M. Wormit,  
 J. Kussmann,  A. W. Lange,  A. Behn,  Jia Deng,  Xintian Feng,  D. Ghosh,  
 M. Goldey,  P. R. Horn,  L. D. Jacobson,  I. Kaliman,  T. Kus,  A. Landau,  
 Jie Liu,  E. I. Proynov,  R. M. Richard,  R. P. Steele,  E. J. Sundstrom,  
 H. L. Woodcock III,  P. M. Zimmerman,  D. Zuev,  B. Albrecht,  E. Alguire,  
 S. A. Baeppler,  D. Barton,  Z. Benda,  Y. A. Bernard,  E. J. Berquist,  
 K. B. Bravaya,  H. Burton,  D. Casanova,  Chun-Min Chang,  Yunqing Chen,  
 A. Chien,  K. D. Closser,  M. P. Coons,  S. Dasgupta,  A. L. Dempwolff,  
 M. Diedenhofen,  Hainam Do,  R. G. Edgar,  Po-Tung Fang,  S. Fatehi,  
 Qingguo Feng,  J. Fosso-Tande,  Qinghui Ge,  A. Ghysels,  G. Gidofalvi,  
 J. Gomes,  J. Gonthier,  A. Gunina,  M. W. D. Hanson-Heine,  
 P. H. P. Harbach,  A. W. Hauser,  J. E. Herr,  E. G. Hohenstein,  
 Z. C. Holden,  Kerwin Hui,  T.-C. Jagau,  Hyunjun Ji,  B. Kaduk,  
 K. Khistyaev,  Jaehoon Kim,  P. Klunzinger,  K. Koh,  D. Kosenkov,  
 L. Koulias,  T. Kowalczyk,  C. M. Krauter,  A. Kunitsa,  Ka Un Lao,  
 A. Laurent,  K. V. Lawler,  Joonho Lee,  D. Lefrancois,  S. Lehtola,  
 D. S. Levine,  Yi-Pei Li,  You-Sheng Lin,  Fenglai Liu,  E. Livshits,  
 A. Luenser,  P. Manohar,  E. Mansoor,  S. F. Manzer,  Shan-Ping Mao,  
 Yuezhi Mao,  N. Mardirossian,  A. V. Marenich,  T. Markovich,  
 L. A. Martinez-Martinez,  S. A. Maurer,  N. J. Mayhall,  S. C. McKenzie,  
 J.-M. Mewes,  A. F. Morrison,  J. W. Mullinax,  K. Nanda,  
 T. S. Nguyen-Beck,  R. Olivares-Amaya,  J. A. Parkhill,  T. M. Perrine,  
 F. Plasser,  S. Prager,  A. Prociuk,  E. Ramos,  D. R. Rehn,  F. Rob,  
 M. Schneider,  N. Sergueev,  S. M. Sharada,  S. Sharma,  D. W. Small,  
 T. Stauch,  T. Stein,  Yu-Chuan Su,  A. J. W. Thom,  A. Tkatchenko,  
 T. Tsuchimochi,  L. Vogt,  O. Vydrov,  M. A. Watson,  J. Wenzel,  
 M. de Wergifosse,  T. A. Wesolowski,  A. White,  J. Witte,  A. Yamada,  
 Jun Yang,  K. Yao,  S. Yeganeh,  S. R. Yost,  Zhi-Qiang You,  A. Zech,  
 Igor Ying Zhang,  Xing Zhang,  Yan Zhao,  Ying Zhu,  B. R. Brooks,  
 G. K. L. Chan,  C. J. Cramer,  M. S. Gordon,  W. J. Hehre,  A. Klamt,  
 M. W. Schmidt,  C. D. Sherrill,  D. G. Truhlar,  A. Aspuru-Guzik,  R. Baer,  
 A. T. Bell,  N. A. Besley,  Jeng-Da Chai,  R. A. DiStasio Jr.,  A. Dreuw,  
 B. D. Dunietz,  T. R. Furlani,  Chao-Ping Hsu,  Yousung Jung,  Jing Kong,  
 D. S. Lambrecht,  WanZhen Liang,  C. Ochsenfeld,  V. A. Rassolov,  
 L. V. Slipchenko,  J. E. Subotnik,  T. Van Voorhis,  J. M. Herbert,  
 A. I. Krylov,  P. M. W. Gill,  M. Head-Gordon

 Contributors to earlier versions of Q-Chem not listed above: 
 R. D. Adamson,  B. Austin,  J. Baker,  G. J. O. Beran,  K. Brandhorst,  
 S. T. Brown,  E. F. C. Byrd,  A. K. Chakraborty,  C.-L. Cheng,  
 Siu Hung Chien,  D. M. Chipman,  D. L. Crittenden,  H. Dachsel,  
 R. J. Doerksen,  A. D. Dutoi,  L. Fusti-Molnar,  W. A. Goddard III,  
 A. Golubeva-Zadorozhnaya,  S. R. Gwaltney,  G. Hawkins,  A. Heyden,  
 S. Hirata,  G. Kedziora,  F. J. Keil,  C. Kelley,  Jihan Kim,  R. A. King,  
 R. Z. Khaliullin,  P. P. Korambath,  W. Kurlancheek,  A. M. Lee,  M. S. Lee,  
 S. V. Levchenko,  Ching Yeh Lin,  D. Liotard,  R. C. Lochan,  I. Lotan,  
 P. E. Maslen,  N. Nair,  D. P. O'Neill,  D. Neuhauser,  E. Neuscamman,  
 C. M. Oana,  R. Olson,  B. Peters,  R. Peverati,  P. A. Pieniazek,  
 Y. M. Rhee,  J. Ritchie,  M. A. Rohrdanz,  E. Rosta,  N. J. Russ,  
 H. F. Schaefer III,  N. E. Schultz,  N. Shenvi,  A. C. Simmonett,  A. Sodt,  
 D. Stuck,  K. S. Thanthiriwatte,  V. Vanovschi,  Tao Wang,  A. Warshel,  
 C. F. Williams,  Q. Wu,  X. Xu,  W. Zhang

 Please cite Q-Chem as follows:
 Y. Shao et al., Mol. Phys. 113, 184-215 (2015)
 DOI: 10.1080/00268976.2014.952696

 Q-Chem 5.0.2 for Intel X86 EM64T Linux

 Parts of Q-Chem use Armadillo 5.200.1 (Boston Tea Smuggler).
 http://arma.sourceforge.net/

 Q-Chem begins on Sat May 19 14:57:51 2018  

Host: 
0

     Scratch files written to ./qc-3-tshess.d//
 Dec517 15110_ 26548  26544 5633   
Processing $rem in /home/leeping/opt/qchem/5.0.2-openmp/config/preferences.
 MEM_STATIC 2000
 MEM_TOTAL  8000
 SYMMETRY   OFF
 SYM_IGNORE TRUE 
Symmetry turned off for PCM/SM12/SMD calculation

Checking the input file for inconsistencies... 	...done.

--------------------------------------------------------------
User input:
--------------------------------------------------------------
$molecule
-2 1
C        2.4573677186    1.1046812088    0.2166409658
O        3.3157164051    1.7995872484   -0.4244731683
O        2.3524880017    1.1524361411    1.4983752295
C        1.5794988456    0.2121296583   -0.5149313954
H        0.7040850598    1.4325882472    1.5107213886
H        1.7709927048    0.1382529227   -1.5853530245
C        0.5829158938   -0.6406941461    0.0502520769
H        0.5226165326   -1.6162606539   -0.4417612945
H        0.6356009274   -0.7447145632    1.1359931836
C       -1.0425672267   -0.1202292647   -0.2069079439
O       -1.0917647054    0.3575946902   -1.5634352866
H       -0.2749827213    0.8615086387   -1.6946561305
O       -1.4701473378    0.7573953437    0.6509046299
O       -0.1798180210    1.8667891858    1.5101424193
C       -1.8595757810   -1.4108700447   -0.1131877216
H       -2.9207041430   -1.1985129694   -0.2737971343
H       -1.5203482395   -2.1249016170   -0.8685328977
H       -1.7327667639   -1.8498804258    0.8792544236
$end

$rem
jobtype               freq
method                wb97x-v
basis                 def2-tzvpd
symmetry              off
sym_ignore            true
incdft                false
incfock               0
!scf_algorithm        diis_gdm
scf_convergence       8
thresh                14
!purecart             112
max_scf_cycles        1000
geom_opt_max_cycles   500
geom_opt_dmax         100
geom_opt_tol_gradient 10
solvent_method        pcm
ideriv                1
rpath_tol_displacement 1000
rpath_max_cycles      100
rpath_direction       1
!scf_guess            read
scf_guess             read
$end

$pcm
theory              cosmo
method              iswig
Radii               bondi
vdwScale            1.20
hpoints             110
heavypoints         110
$end

$solvent
dielectric 78.400000
$end

--------------------------------------------------------------
 ----------------------------------------------------------------
             Standard Nuclear Orientation (Angstroms)
    I     Atom           X                Y                Z
 ----------------------------------------------------------------
    1      C       2.4573677186     1.1046812088     0.2166409658
    2      O       3.3157164051     1.7995872484    -0.4244731683
    3      O       2.3524880017     1.1524361411     1.4983752295
    4      C       1.5794988456     0.2121296583    -0.5149313954
    5      H       0.7040850598     1.4325882472     1.5107213886
    6      H       1.7709927048     0.1382529227    -1.5853530245
    7      C       0.5829158938    -0.6406941461     0.0502520769
    8      H       0.5226165326    -1.6162606539    -0.4417612945
    9      H       0.6356009274    -0.7447145632     1.1359931836
   10      C      -1.0425672267    -0.1202292647    -0.2069079439
   11      O      -1.0917647054     0.3575946902    -1.5634352866
   12      H      -0.2749827213     0.8615086387    -1.6946561305
   13      O      -1.4701473378     0.7573953437     0.6509046299
   14      O      -0.1798180210     1.8667891858     1.5101424193
   15      C      -1.8595757810    -1.4108700447    -0.1131877216
   16      H      -2.9207041430    -1.1985129694    -0.2737971343
   17      H      -1.5203482395    -2.1249016170    -0.8685328977
   18      H      -1.7327667639    -1.8498804258     0.8792544236
 ----------------------------------------------------------------
 Nuclear Repulsion Energy =   557.1250553966 hartrees
 There are       40 alpha and       40 beta electrons
 Requested basis set is def2-TZVPD
 There are 175 shells and 457 basis functions

 Total QAlloc Memory Limit   8000 MB
 Mega-Array Size      1956 MB
 MEM_STATIC part      2000 MB
 Discretize the solute cavity surface with Lebedev spheres
	Using 110 Lebedev grid points for each H atom
	Using 110 Lebedev grid points for other atoms
	Atomic van der Waals radii will be scaled by 1.20
 Remove points where switching function is < 1.0e-08
 Keep 1012 surface tesserae and discard 968 interior tesserae
 Molecular Surface Area = 181.634 Angst**2
 A cutoff of  1.0D-14 yielded  14295 shell pairs
 There are     98245 function pairs (    125288 Cartesian)
 
 -------------------------------------------------------
 OpenMP Integral Computing Module                       
 Release: version 1.0, May 2013, Q-Chem Inc. Pittsburgh 
 -------------------------------------------------------
 Integral Job Info:
 Integral job number is                      11
 Integral operator is                         1
 short-range coefficients              16700000
 long-range coefficients              100000000
 Omega coefficients                         300
 if combine SR and LR in K                    1
 Integral screening is                        0
 Integral computing path is                   2
 max size of driver memory is            800000
 size of driver memory is                776718
 size of scratch memory is              4473992
 max col of scratch BK array              10000
 max len of scratch array in speh3          662
 max len of scratch index in speh4           32
 max int batch size is                      520
 min int batch size is                       52
 fixed nKL is                                52
 max L of basis functions is                  3
 order of int derivative is                   0
 number of shells is                        175
 number of basis is                         517
 number of cartesian basis is               517
 number of contracted shell pairs         14295
 number of primitive shell pairs          29070
 maxK2 (contraction) of shell pair           36
 max number of K2 of shell pair               1
 max number of CS2 of shell pair           2327
 max number of PS2 of shell pair           3330
 mem total for path MDJ                  789588
 -------------------------------------------------------
 Smallest overlap matrix eigenvalue = 2.35E-06
 Guess MOs from SCF MO coefficient file
 Reading MOs from coefficient file
 Reading MOs from coefficient file
 Long-range K will be added via erf
 Coulomb attenuation parameter = 0.3 bohr**(-1)
 A restricted hybrid HF-DFT SCF calculation will be
 performed using Pulay DIIS extrapolation
 Polarizable Continuum solvation model will be applied
 Exchange:     0.1670 Hartree-Fock + 1.0000 wB97X-V + LR-HF
 Correlation:  1.0000 wB97X-V
 Using SG-2 standard quadrature grid
 Nonlocal Correlation:  VV10 with C = 0.0100 and b = 6.00
 Grid used for NLC:  SG-1 standard quadrature
 SCF converges when DIIS error is below 1.0E-08
Using Q-Chem read-in guess as SCF_GUESS READ specified.

 using 16 threads for integral computing
 -------------------------------------------------------
 OpenMP Integral computing Module                
 Release: version 1.0, May 2013, Q-Chem Inc. Pittsburgh 
 -------------------------------------------------------
 using 16 threads for integral computing
 -------------------------------------------------------
 OpenMP Integral computing Module                
 Release: version 1.0, May 2013, Q-Chem Inc. Pittsburgh 
 -------------------------------------------------------
 -------------------------------------------------------
 OpenMP BLAS3 based DFT computing Module                
 Release: version 1.0, May 2013, Q-Chem Inc. Pittsburgh 
 -------------------------------------------------------
 -------------------------------------------------------
 OpenMP BLAS3 based DFT computing Module                
 Release: version 1.0, May 2013, Q-Chem Inc. Pittsburgh 
 -------------------------------------------------------
 -------------------------------------------------------
 OpenMP BLAS3 based DFT computing Module                
 Release: version 1.0, May 2013, Q-Chem Inc. Pittsburgh 
 -------------------------------------------------------
 ---------------------------------------
  Cycle       Energy         DIIS Error
 ---------------------------------------
    1    -571.2966281472      4.85E-04
    2    -571.6108105970      6.72E-04
    3    -571.6257289172      2.97E-04
    4    -571.6281805578      1.88E-04
    5    -571.6294923170      1.41E-04
    6    -571.6302697318      1.08E-04
    7    -571.6307014811      8.52E-05
    8    -571.6309808126      6.71E-05
    9    -571.6311381627      5.49E-05
   10    -571.6312463276      4.48E-05
   11    -571.6313204587      3.63E-05
   12    -571.6313759332      2.84E-05
   13    -571.6314176316      2.05E-05
   14    -571.6314391891      1.48E-05
   15    -571.6314488688      1.14E-05
   16    -571.6314543257      8.92E-06
   17    -571.6314628540      8.54E-08
   18    -571.6314628545      2.91E-08
   19    -571.6314628546      1.32E-08
   20    -571.6314628546      6.39E-09 Convergence criterion met
 ---------------------------------------

************** Final PCM Free Energy Summary **************
 G_electrostatic  =      -0.33483467 hartree =    -210.11192765 kcal/mol
 G_cavitation     =       0.00000000 hartree =       0.00000000 kcal/mol
 G_dispersion     =       0.00000000 hartree =       0.00000000 kcal/mol
 G_repulsion      =       0.00000000 hartree =       0.00000000 kcal/mol
 --------------------------------------------------
 Non-electrostatic Free Energy =       0.00000000 hartree =       0.00000000 kcal/mol
 Total                         =      -0.33483467 hartree =    -210.11192765 kcal/mol
 --------------------------------------------------
 SCF Energy (H0 + V/2)                       =    -571.63146285 
 Solute Internal Energy (H0)                 =    -571.29662818 
 Total Free Energy (H0 + V/2 + non-elec)     =    -571.63146285 hartree
                                             = -358704.15686285 kcal/mol
***********************************************************

 SCF time:  CPU 5273.34 s  wall 383.61 s
 SCF   energy in the final basis set = -571.63146285
 Total energy in the final basis set = -571.63146285
 
 --------------------------------------------------------------
 
                    Orbital Energies (a.u.)
 --------------------------------------------------------------
 
 Alpha MOs
 -- Occupied --
-19.204 -19.194 -19.158 -19.135 -19.123 -10.348 -10.326 -10.257
-10.251 -10.224  -1.169  -1.127  -1.092  -1.034  -1.003  -0.882
 -0.843  -0.736  -0.674  -0.602  -0.593  -0.575  -0.550  -0.537
 -0.513  -0.508  -0.492  -0.486  -0.476  -0.459  -0.448  -0.437
 -0.396  -0.381  -0.354  -0.342  -0.335  -0.333  -0.318  -0.238
 -- Virtual --
 -0.018   0.061   0.077   0.083   0.087   0.101   0.109   0.111
  0.118   0.124   0.133   0.141   0.148   0.157   0.158   0.170
  0.178   0.180   0.189   0.194   0.202   0.210   0.215   0.221
  0.231   0.237   0.241   0.250   0.263   0.264   0.277   0.284
  0.287   0.289   0.298   0.303   0.314   0.316   0.326   0.327
  0.333   0.336   0.340   0.346   0.356   0.361   0.367   0.373
  0.376   0.383   0.389   0.391   0.401   0.408   0.410   0.416
  0.421   0.431   0.433   0.440   0.447   0.450   0.459   0.462
  0.467   0.471   0.475   0.478   0.487   0.496   0.496   0.503
  0.509   0.513   0.520   0.524   0.529   0.537   0.549   0.549
  0.555   0.562   0.569   0.571   0.575   0.591   0.598   0.605
  0.612   0.615   0.627   0.634   0.642   0.648   0.665   0.670
  0.675   0.680   0.690   0.698   0.699   0.705   0.706   0.722
  0.730   0.732   0.742   0.751   0.754   0.759   0.766   0.777
  0.777   0.783   0.790   0.798   0.801   0.805   0.816   0.821
  0.826   0.834   0.846   0.847   0.851   0.865   0.866   0.870
  0.882   0.885   0.897   0.907   0.920   0.923   0.935   0.949
  0.952   0.960   0.972   0.977   0.988   1.005   1.020   1.034
  1.047   1.062   1.067   1.083   1.093   1.108   1.119   1.136
  1.145   1.156   1.168   1.176   1.195   1.215   1.219   1.230
  1.245   1.251   1.269   1.278   1.282   1.306   1.318   1.332
  1.345   1.347   1.382   1.385   1.395   1.403   1.428   1.452
  1.463   1.485   1.488   1.500   1.535   1.555   1.564   1.594
  1.604   1.613   1.640   1.663   1.731   1.768   1.788   1.808
  1.833   1.839   1.858   1.879   1.903   1.920   1.932   1.940
  1.964   1.971   1.979   1.990   1.995   2.019   2.023   2.034
  2.071   2.075   2.088   2.095   2.112   2.136   2.150   2.166
  2.174   2.204   2.211   2.235   2.242   2.250   2.308   2.327
  2.341   2.356   2.366   2.385   2.400   2.402   2.419   2.438
  2.446   2.451   2.476   2.510   2.522   2.532   2.540   2.577
  2.583   2.618   2.635   2.652   2.662   2.692   2.709   2.718
  2.748   2.775   2.788   2.825   2.829   2.844   2.864   2.906
  2.916   2.931   2.959   2.983   3.007   3.010   3.028   3.041
  3.055   3.090   3.097   3.119   3.130   3.143   3.169   3.189
  3.202   3.211   3.227   3.261   3.278   3.299   3.329   3.349
  3.361   3.390   3.396   3.411   3.429   3.432   3.455   3.477
  3.489   3.505   3.521   3.539   3.557   3.562   3.581   3.589
  3.594   3.618   3.654   3.669   3.683   3.694   3.707   3.716
  3.735   3.751   3.762   3.779   3.794   3.807   3.827   3.844
  3.853   3.900   3.912   3.946   3.963   3.992   4.044   4.066
  4.091   4.175   4.184   4.216   4.226   4.284   4.294   4.329
  4.366   4.423   4.482   4.542   4.591   4.625   4.649   4.694
  4.747   4.808   4.881   4.927   4.965   4.980   5.008   5.043
  5.075   5.155   5.248   5.278   5.324   5.337   5.343   5.370
  5.377   5.405   5.419   5.435   5.441   5.463   5.483   5.572
  5.609   5.628   5.646   5.661   5.696   5.722   5.737   5.803
  5.819   5.955   6.003   6.115   6.194   6.217   6.277   6.355
  6.381   6.411   6.434   6.501   6.571   6.602   6.677   6.690
  6.699   6.725   6.737   6.756   6.808   6.857   6.927   6.949
  6.952   6.987   7.042   7.050   7.059   7.230   7.293   7.309
  7.337   7.378   7.394   7.417   7.428   7.482   7.510  22.717
 22.922  22.998  23.227  23.685  44.155  44.398  44.443  44.475
 44.552
 --------------------------------------------------------------
 
          Ground-State Mulliken Net Atomic Charges

     Atom                 Charge (a.u.)
  ----------------------------------------
      1 C                     0.096784
      2 O                    -0.778077
      3 O                    -0.776033
      4 C                    -0.713315
      5 H                     0.238375
      6 H                     0.445249
      7 C                    -0.351435
      8 H                     0.337943
      9 H                     0.278608
     10 C                     0.842849
     11 O                    -0.546374
     12 H                     0.399960
     13 O                    -0.447345
     14 O                    -0.680801
     15 C                    -1.143097
     16 H                     0.272089
     17 H                     0.267955
     18 H                     0.256664
  ----------------------------------------
  Sum of atomic charges =    -2.000000

 -----------------------------------------------------------------
                    Cartesian Multipole Moments
 -----------------------------------------------------------------
    Charge (ESU x 10^10)
                -9.6064
    Dipole Moment (Debye)
         X     -12.0843      Y     -15.8344      Z      -5.7462
       Tot      20.7311
    Quadrupole Moments (Debye-Ang)
        XX    -124.3582     XY     -21.3242     YY     -92.3211
        XZ      -5.1028     YZ     -11.9273     ZZ     -84.6109
    Octopole Moments (Debye-Ang^2)
       XXX    -254.5233    XXY    -127.4232    XYY     -75.2715
       YYY    -148.5733    XXZ     -13.0334    XYZ       0.0533
       YYZ     -28.7624    XZZ     -39.3919    YZZ     -56.9011
       ZZZ     -42.8877
    Hexadecapole Moments (Debye-Ang^3)
      XXXX   -1954.3804   XXXY    -540.6771   XXYY    -509.8081
      XYYY    -339.5229   YYYY    -732.7780   XXXZ     -52.8080
      XXYZ     -27.5000   XYYZ     -10.2254   YYYZ    -119.6506
      XXZZ    -380.4789   XYZZ    -104.9549   YYZZ    -216.0795
      XZZZ     -89.4836   YZZZ    -127.9632   ZZZZ    -485.2334
 -----------------------------------------------------------------
 Calculating analytic gradient of the SCF energy
 Gradient of SCF Energy
            1           2           3           4           5           6
    1   0.0126238  -0.0402130   0.0062456  -0.0462659  -0.0692852   0.0250553
    2   0.0572769  -0.0316506   0.0000251   0.0331874   0.0106672  -0.0165761
    3  -0.0559873   0.0213470  -0.0278163  -0.0273614  -0.0014570   0.0615902
            7           8           9          10          11          12
    1   0.0368371   0.0091962  -0.0041888   0.0213410   0.0360252  -0.0616999
    2  -0.1275590   0.0525924  -0.0049972   0.1132421   0.0248010  -0.0437645
    3   0.0976838   0.0295104  -0.0750153  -0.0174032  -0.0129465   0.0119911
           13          14          15          16          17          18
    1  -0.0105278   0.0848940  -0.0337773   0.0715522  -0.0224095  -0.0154030
    2  -0.0352938   0.0101656  -0.0935145  -0.0210444   0.0453471   0.0270952
    3  -0.0226063   0.0095227   0.0197511   0.0110790   0.0494964  -0.0713785
 Max gradient component =       1.276E-01
 RMS gradient           =       4.684E-02
 Computing fast CPCM-ISWIG gradient
 Updating gradient with PCM contributions...
 -- total gradient after adding PCM contribution --
---------------------------------------------------
  Atom         X              Y              Z     
---------------------------------------------------
   1      -0.000003       0.000005      -0.000022
   2      -0.000002       0.000001      -0.000032
   3       0.000003       0.000024      -0.000019
   4       0.000000      -0.000001      -0.000007
   5      -0.000013       0.000027      -0.000021
   6      -0.000003      -0.000020      -0.000006
   7      -0.000004       0.000002       0.000005
   8       0.000002      -0.000006       0.000022
   9       0.000004       0.000017       0.000009
  10       0.000006      -0.000011       0.000003
  11      -0.000007      -0.000022      -0.000000
  12      -0.000002      -0.000025      -0.000012
  13       0.000001       0.000018      -0.000005
  14       0.000009       0.000009      -0.000024
  15       0.000001      -0.000004       0.000023
  16       0.000001      -0.000008       0.000023
  17       0.000001      -0.000014       0.000033
  18       0.000005       0.000009       0.000029
---------------------------------------------------
 Number of fixed atoms: 0
 Gradient time:  CPU 924.77 s  wall 66.31 s
 ######################################################
 ######################################################
 # Starting finite difference calculation for IDERIV  #
 Finite diff step size:  1.88973e-03 a.u.
 ----------------------------------------------------------------
             Standard Nuclear Orientation (Angstroms)
    I     Atom           X                Y                Z
 ----------------------------------------------------------------
    1      C       2.4583677186     1.1046812088     0.2166409658
    2      O       3.3157164051     1.7995872484    -0.4244731683
    3      O       2.3524880017     1.1524361411     1.4983752295
    4      C       1.5794988456     0.2121296583    -0.5149313954
    5      H       0.7040850598     1.4325882472     1.5107213886
    6      H       1.7709927048     0.1382529227    -1.5853530245
    7      C       0.5829158938    -0.6406941461     0.0502520769
    8      H       0.5226165326    -1.6162606539    -0.4417612945
    9      H       0.6356009274    -0.7447145632     1.1359931836
   10      C      -1.0425672267    -0.1202292647    -0.2069079439
   11      O      -1.0917647054     0.3575946902    -1.5634352866
   12      H      -0.2749827213     0.8615086387    -1.6946561305
   13      O      -1.4701473378     0.7573953437     0.6509046299
   14      O      -0.1798180210     1.8667891858     1.5101424193
   15      C      -1.8595757810    -1.4108700447    -0.1131877216
   16      H      -2.9207041430    -1.1985129694    -0.2737971343
   17      H      -1.5203482395    -2.1249016170    -0.8685328977
   18      H      -1.7327667639    -1.8498804258     0.8792544236
 ----------------------------------------------------------------
 Nuclear Repulsion Energy =   557.1177057046 hartrees
 There are       40 alpha and       40 beta electrons
 Discretize the solute cavity surface with Lebedev spheres
	Using 110 Lebedev grid points for each H atom
	Using 110 Lebedev grid points for other atoms
	Atomic van der Waals radii will be scaled by 1.20
 Remove points where switching function is < 1.0e-08
 Keep 1012 surface tesserae and discard 968 interior tesserae
 Molecular Surface Area = 181.634 Angst**2
 Requested basis set is def2-TZVPD
 There are 175 shells and 457 basis functions
 A cutoff of  1.0D-14 yielded  14295 shell pairs
 There are     98245 function pairs (    125288 Cartesian)
 Smallest overlap matrix eigenvalue = 2.35E-06
 Guess MOs from SCF MO coefficient file
 Reading MOs from coefficient file
 Reading MOs from coefficient file
 Long-range K will be added via erf
 Coulomb attenuation parameter = 0.3 bohr**(-1)
 A restricted hybrid HF-DFT SCF calculation will be
 performed using Pulay DIIS extrapolation
 Polarizable Continuum solvation model will be applied
 Exchange:     0.1670 Hartree-Fock + 1.0000 wB97X-V + LR-HF
 Correlation:  1.0000 wB97X-V
 Using SG-2 standard quadrature grid
 Nonlocal Correlation:  VV10 with C = 0.0100 and b = 6.00
 Grid used for NLC:  SG-1 standard quadrature
 SCF converges when DIIS error is below 1.0E-08
Using Q-Chem read-in guess as SCF_GUESS READ specified.

 using 16 threads for integral computing
 -------------------------------------------------------
 OpenMP Integral computing Module                
 Release: version 1.0, May 2013, Q-Chem Inc. Pittsburgh 
 -------------------------------------------------------
 using 16 threads for integral computing
 -------------------------------------------------------
 OpenMP Integral computing Module                
 Release: version 1.0, May 2013, Q-Chem Inc. Pittsburgh 
 -------------------------------------------------------
 -------------------------------------------------------
 OpenMP BLAS3 based DFT computing Module                
 Release: version 1.0, May 2013, Q-Chem Inc. Pittsburgh 
 -------------------------------------------------------
 -------------------------------------------------------
 OpenMP BLAS3 based DFT computing Module                
 Release: version 1.0, May 2013, Q-Chem Inc. Pittsburgh 
 -------------------------------------------------------
 -------------------------------------------------------
 OpenMP BLAS3 based DFT computing Module                
 Release: version 1.0, May 2013, Q-Chem Inc. Pittsburgh 
 -------------------------------------------------------
 ---------------------------------------
  Cycle       Energy         DIIS Error
 ---------------------------------------
    1    -571.2972126366      4.86E-04
    2    -571.6107786604      6.72E-04
    3    -571.6257266700      2.97E-04
    4    -571.6281822615      1.88E-04
    5    -571.6294986103      1.41E-04
    6    -571.6302806123      1.07E-04
    7    -571.6307239992      8.38E-05
    8    -571.6310276894      6.35E-05
    9    -571.6311991694      4.92E-05
   10    -571.6313313505      3.45E-05
   11    -571.6314157445      2.05E-05
   12    -571.6314510541      9.97E-06
   13    -571.6314609034      3.20E-06
   14    -571.6314620013      5.47E-07
   15    -571.6314620328      9.34E-08
   16    -571.6314620336      6.12E-08
   17    -571.6314620340      1.06E-08
   18    -571.6314620340      4.39E-09 Convergence criterion met
 ---------------------------------------

************** Final PCM Free Energy Summary **************
 G_electrostatic  =      -0.33480407 hartree =    -210.09272562 kcal/mol
 G_cavitation     =       0.00000000 hartree =       0.00000000 kcal/mol
 G_dispersion     =       0.00000000 hartree =       0.00000000 kcal/mol
 G_repulsion      =       0.00000000 hartree =       0.00000000 kcal/mol
 --------------------------------------------------
 Non-electrostatic Free Energy =       0.00000000 hartree =       0.00000000 kcal/mol
 Total                         =      -0.33480407 hartree =    -210.09272562 kcal/mol
 --------------------------------------------------
 SCF Energy (H0 + V/2)                       =    -571.63146203 
 Solute Internal Energy (H0)                 =    -571.29665796 
 Total Free Energy (H0 + V/2 + non-elec)     =    -571.63146203 hartree
                                             = -358704.15634790 kcal/mol
***********************************************************

 SCF time:  CPU 4736.60 s  wall 345.51 s
 SCF   energy in the final basis set = -571.63146203
 Total energy in the final basis set = -571.63146203
 
 --------------------------------------------------------------
 
                    Orbital Energies (a.u.)
 --------------------------------------------------------------
 
 Alpha MOs
 -- Occupied --
-19.204 -19.194 -19.158 -19.135 -19.123 -10.348 -10.326 -10.257
-10.251 -10.224  -1.169  -1.127  -1.092  -1.034  -1.003  -0.882
 -0.843  -0.736  -0.674  -0.602  -0.593  -0.575  -0.550  -0.537
 -0.513  -0.508  -0.492  -0.486  -0.476  -0.459  -0.448  -0.437
 -0.396  -0.381  -0.354  -0.342  -0.335  -0.333  -0.318  -0.238
 -- Virtual --
 -0.017   0.061   0.077   0.083   0.087   0.101   0.109   0.111
  0.118   0.124   0.133   0.141   0.148   0.157   0.158   0.170
  0.178   0.180   0.189   0.194   0.202   0.210   0.215   0.221
  0.231   0.237   0.241   0.250   0.263   0.264   0.277   0.284
  0.287   0.289   0.298   0.303   0.314   0.316   0.326   0.327
  0.333   0.336   0.340   0.346   0.356   0.361   0.367   0.373
  0.376   0.383   0.389   0.391   0.401   0.408   0.410   0.416
  0.421   0.431   0.433   0.440   0.447   0.450   0.459   0.462
  0.467   0.471   0.475   0.478   0.487   0.496   0.496   0.503
  0.509   0.513   0.520   0.524   0.529   0.537   0.549   0.549
  0.555   0.562   0.569   0.571   0.575   0.591   0.598   0.605
  0.612   0.615   0.627   0.634   0.642   0.648   0.665   0.670
  0.675   0.680   0.690   0.698   0.699   0.705   0.706   0.722
  0.730   0.732   0.742   0.751   0.754   0.759   0.766   0.777
  0.777   0.783   0.790   0.798   0.801   0.805   0.816   0.821
  0.826   0.834   0.846   0.847   0.851   0.865   0.866   0.870
  0.882   0.885   0.897   0.907   0.920   0.923   0.935   0.949
  0.952   0.960   0.972   0.977   0.988   1.005   1.020   1.034
  1.047   1.062   1.067   1.083   1.093   1.108   1.119   1.136
  1.145   1.156   1.168   1.176   1.195   1.215   1.219   1.230
  1.245   1.251   1.269   1.278   1.282   1.306   1.318   1.332
  1.345   1.347   1.382   1.385   1.395   1.403   1.428   1.452
  1.463   1.485   1.488   1.500   1.535   1.555   1.564   1.594
  1.604   1.613   1.640   1.663   1.731   1.768   1.788   1.808
  1.833   1.839   1.858   1.879   1.903   1.920   1.932   1.940
  1.964   1.971   1.979   1.990   1.995   2.019   2.023   2.034
  2.071   2.075   2.088   2.095   2.112   2.136   2.150   2.166
  2.174   2.204   2.212   2.235   2.242   2.250   2.308   2.327
  2.341   2.356   2.366   2.385   2.400   2.402   2.419   2.438
  2.446   2.451   2.476   2.510   2.522   2.533   2.540   2.577
  2.583   2.618   2.635   2.652   2.662   2.692   2.709   2.718
  2.748   2.775   2.788   2.825   2.829   2.844   2.864   2.906
  2.916   2.931   2.959   2.983   3.007   3.010   3.028   3.041
  3.055   3.090   3.097   3.119   3.131   3.143   3.169   3.189
  3.202   3.211   3.227   3.261   3.278   3.299   3.329   3.349
  3.361   3.390   3.396   3.411   3.429   3.432   3.455   3.477
  3.489   3.505   3.521   3.539   3.557   3.562   3.581   3.589
  3.594   3.618   3.654   3.669   3.684   3.694   3.707   3.716
  3.735   3.751   3.762   3.779   3.794   3.807   3.827   3.845
  3.853   3.900   3.912   3.946   3.963   3.992   4.043   4.066
  4.091   4.175   4.184   4.216   4.226   4.284   4.294   4.329
  4.366   4.423   4.482   4.541   4.591   4.625   4.649   4.694
  4.747   4.809   4.880   4.926   4.965   4.980   5.008   5.043
  5.075   5.155   5.248   5.278   5.325   5.337   5.343   5.370
  5.377   5.405   5.419   5.435   5.441   5.463   5.483   5.572
  5.609   5.628   5.646   5.661   5.696   5.722   5.737   5.803
  5.819   5.955   6.004   6.115   6.195   6.218   6.277   6.355
  6.381   6.411   6.434   6.501   6.572   6.602   6.677   6.690
  6.699   6.725   6.737   6.756   6.809   6.857   6.927   6.949
  6.952   6.988   7.042   7.050   7.059   7.230   7.293   7.309
  7.337   7.378   7.395   7.418   7.429   7.482   7.510  22.717
 22.922  22.997  23.227  23.686  44.155  44.398  44.443  44.475
 44.552
 --------------------------------------------------------------
 
          Ground-State Mulliken Net Atomic Charges

     Atom                 Charge (a.u.)
  ----------------------------------------
      1 C                     0.097072
      2 O                    -0.777376
      3 O                    -0.776176
      4 C                    -0.713895
      5 H                     0.238265
      6 H                     0.445185
      7 C                    -0.350892
      8 H                     0.337963
      9 H                     0.278584
     10 C                     0.842645
     11 O                    -0.546396
     12 H                     0.399954
     13 O                    -0.447410
     14 O                    -0.681078
     15 C                    -1.143104
     16 H                     0.272076
     17 H                     0.267936
     18 H                     0.256647
  ----------------------------------------
  Sum of atomic charges =    -2.000000

 -----------------------------------------------------------------
                    Cartesian Multipole Moments
 -----------------------------------------------------------------
    Charge (ESU x 10^10)
                -9.6064
    Dipole Moment (Debye)
         X     -12.0698      Y     -15.8305      Z      -5.7515
       Tot      20.7212
    Quadrupole Moments (Debye-Ang)
        XX    -124.3141     XY     -21.2984     YY     -92.3164
        XZ      -5.1111     YZ     -11.9391     ZZ     -84.6189
    Octopole Moments (Debye-Ang^2)
       XXX    -254.3337    XXY    -127.3326    XYY     -75.2178
       YYY    -148.5449    XXZ     -13.0664    XYZ       0.0370
       YYZ     -28.7880    XZZ     -39.3919    YZZ     -56.9074
       ZZZ     -42.9104
    Hexadecapole Moments (Debye-Ang^3)
      XXXX   -1953.7921   XXXY    -540.3530   XXYY    -509.6515
      XYYY    -339.3886   YYYY    -732.7200   XXXZ     -52.9152
      XXYZ     -27.5577   XYYZ     -10.2635   YYYZ    -119.7234
      XXZZ    -380.4987   XYZZ    -104.9419   YYZZ    -216.1008
      XZZZ     -89.5269   YZZZ    -128.0160   ZZZZ    -485.2937
 -----------------------------------------------------------------
 Calculating analytic gradient of the SCF energy
 Gradient of SCF Energy
            1           2           3           4           5           6
    1   0.0132097  -0.0406489   0.0061980  -0.0463751  -0.0692924   0.0250310
    2   0.0579404  -0.0319974  -0.0000177   0.0329847   0.0106707  -0.0165523
    3  -0.0562750   0.0216079  -0.0277698  -0.0274274  -0.0014634   0.0615812
            7           8           9          10          11          12
    1   0.0368574   0.0092166  -0.0042035   0.0213831   0.0360222  -0.0617031
    2  -0.1276398   0.0525834  -0.0050334   0.1132714   0.0248027  -0.0437674
    3   0.0977059   0.0295320  -0.0750259  -0.0173808  -0.0129422   0.0119873
           13          14          15          16          17          18
    1  -0.0105311   0.0848840  -0.0337989   0.0715680  -0.0224112  -0.0154057
    2  -0.0352806   0.0101711  -0.0935471  -0.0210507   0.0453608   0.0271015
    3  -0.0225851   0.0095073   0.0197551   0.0110806   0.0495051  -0.0713929
 Max gradient component =       1.276E-01
 RMS gradient           =       4.688E-02
 Computing fast CPCM-ISWIG gradient
 Updating gradient with PCM contributions...
 -- total gradient after adding PCM contribution --
---------------------------------------------------
  Atom         X              Y              Z     
---------------------------------------------------
   1       0.000872       0.000363      -0.000175
   2      -0.000442      -0.000238       0.000154
   3      -0.000183       0.000018       0.000007
   4      -0.000214      -0.000094      -0.000108
   5      -0.000011       0.000015      -0.000007
   6       0.000003      -0.000005       0.000011
   7      -0.000079      -0.000024       0.000003
   8       0.000012      -0.000005       0.000028
   9       0.000003       0.000016       0.000010
  10       0.000069      -0.000042      -0.000031
  11      -0.000008      -0.000021       0.000010
  12      -0.000004      -0.000025      -0.000014
  13       0.000032       0.000077       0.000056
  14      -0.000047      -0.000023      -0.000058
  15      -0.000009      -0.000004       0.000027
  16       0.000001      -0.000009       0.000023
  17       0.000001      -0.000010       0.000034
  18       0.000005       0.000010       0.000029
---------------------------------------------------
 Number of fixed atoms: 0
 Gradient time:  CPU 927.17 s  wall 66.91 s
 ----------------------------------------------------------------
             Standard Nuclear Orientation (Angstroms)
    I     Atom           X                Y                Z
 ----------------------------------------------------------------
    1      C       2.4563677186     1.1046812088     0.2166409658
    2      O       3.3157164051     1.7995872484    -0.4244731683
    3      O       2.3524880017     1.1524361411     1.4983752295
    4      C       1.5794988456     0.2121296583    -0.5149313954
    5      H       0.7040850598     1.4325882472     1.5107213886
    6      H       1.7709927048     0.1382529227    -1.5853530245
    7      C       0.5829158938    -0.6406941461     0.0502520769
    8      H       0.5226165326    -1.6162606539    -0.4417612945
    9      H       0.6356009274    -0.7447145632     1.1359931836
   10      C      -1.0425672267    -0.1202292647    -0.2069079439
   11      O      -1.0917647054     0.3575946902    -1.5634352866
   12      H      -0.2749827213     0.8615086387    -1.6946561305
   13      O      -1.4701473378     0.7573953437     0.6509046299
   14      O      -0.1798180210     1.8667891858     1.5101424193
   15      C      -1.8595757810    -1.4108700447    -0.1131877216
   16      H      -2.9207041430    -1.1985129694    -0.2737971343
   17      H      -1.5203482395    -2.1249016170    -0.8685328977
   18      H      -1.7327667639    -1.8498804258     0.8792544236
 ----------------------------------------------------------------
 Nuclear Repulsion Energy =   557.1324025154 hartrees
 There are       40 alpha and       40 beta electrons
 Discretize the solute cavity surface with Lebedev spheres
	Using 110 Lebedev grid points for each H atom
	Using 110 Lebedev grid points for other atoms
	Atomic van der Waals radii will be scaled by 1.20
 Remove points where switching function is < 1.0e-08
 Keep 1012 surface tesserae and discard 968 interior tesserae
 Molecular Surface Area = 181.633 Angst**2
 Requested basis set is def2-TZVPD
 There are 175 shells and 457 basis functions
 A cutoff of  1.0D-14 yielded  14295 shell pairs
 There are     98245 function pairs (    125288 Cartesian)
 Smallest overlap matrix eigenvalue = 2.35E-06
 Guess MOs from SCF MO coefficient file
 Reading MOs from coefficient file
 Reading MOs from coefficient file
 Long-range K will be added via erf
 Coulomb attenuation parameter = 0.3 bohr**(-1)
 A restricted hybrid HF-DFT SCF calculation will be
 performed using Pulay DIIS extrapolation
 Polarizable Continuum solvation model will be applied
 Exchange:     0.1670 Hartree-Fock + 1.0000 wB97X-V + LR-HF
 Correlation:  1.0000 wB97X-V
 Using SG-2 standard quadrature grid
 Nonlocal Correlation:  VV10 with C = 0.0100 and b = 6.00
 Grid used for NLC:  SG-1 standard quadrature
 SCF converges when DIIS error is below 1.0E-08
Using Q-Chem read-in guess as SCF_GUESS READ specified.

 using 16 threads for integral computing
 -------------------------------------------------------
 OpenMP Integral computing Module                
 Release: version 1.0, May 2013, Q-Chem Inc. Pittsburgh 
 -------------------------------------------------------
 using 16 threads for integral computing
 -------------------------------------------------------
 OpenMP Integral computing Module                
 Release: version 1.0, May 2013, Q-Chem Inc. Pittsburgh 
 -------------------------------------------------------
 -------------------------------------------------------
 OpenMP BLAS3 based DFT computing Module                
 Release: version 1.0, May 2013, Q-Chem Inc. Pittsburgh 
 -------------------------------------------------------
 -------------------------------------------------------
 OpenMP BLAS3 based DFT computing Module                
 Release: version 1.0, May 2013, Q-Chem Inc. Pittsburgh 
 -------------------------------------------------------
 -------------------------------------------------------
 OpenMP BLAS3 based DFT computing Module                
 Release: version 1.0, May 2013, Q-Chem Inc. Pittsburgh 
 -------------------------------------------------------
 ---------------------------------------
  Cycle       Energy         DIIS Error
 ---------------------------------------
    1    -571.2954922261      4.86E-04
    2    -571.6108583702      6.71E-04
    3    -571.6257377417      2.97E-04
    4    -571.6281891895      1.88E-04
    5    -571.6295110843      1.40E-04
    6    -571.6303140161      1.05E-04
    7    -571.6307965263      7.94E-05
    8    -571.6311372018      5.45E-05
    9    -571.6313157382      3.63E-05
   10    -571.6314191897      1.94E-05
   11    -571.6314541109      8.23E-06
   12    -571.6314606910      3.33E-06
   13    -571.6314619133      9.35E-07
   14    -571.6314620145      2.83E-07
   15    -571.6314620223      7.81E-08
   16    -571.6314620230      2.44E-08
   17    -571.6314620231      1.03E-08
   18    -571.6314620231      4.09E-09 Convergence criterion met
 ---------------------------------------

************** Final PCM Free Energy Summary **************
 G_electrostatic  =      -0.33486544 hartree =    -210.13123823 kcal/mol
 G_cavitation     =       0.00000000 hartree =       0.00000000 kcal/mol
 G_dispersion     =       0.00000000 hartree =       0.00000000 kcal/mol
 G_repulsion      =       0.00000000 hartree =       0.00000000 kcal/mol
 --------------------------------------------------
 Non-electrostatic Free Energy =       0.00000000 hartree =       0.00000000 kcal/mol
 Total                         =      -0.33486544 hartree =    -210.13123823 kcal/mol
 --------------------------------------------------
 SCF Energy (H0 + V/2)                       =    -571.63146202 
 Solute Internal Energy (H0)                 =    -571.29659658 
 Total Free Energy (H0 + V/2 + non-elec)     =    -571.63146202 hartree
                                             = -358704.15634108 kcal/mol
***********************************************************

 SCF time:  CPU 4746.09 s  wall 345.33 s
 SCF   energy in the final basis set = -571.63146202
 Total energy in the final basis set = -571.63146202
 
 --------------------------------------------------------------
 
                    Orbital Energies (a.u.)
 --------------------------------------------------------------
 
 Alpha MOs
 -- Occupied --
-19.204 -19.194 -19.158 -19.135 -19.123 -10.348 -10.326 -10.257
-10.251 -10.224  -1.169  -1.127  -1.092  -1.034  -1.003  -0.882
 -0.843  -0.736  -0.674  -0.602  -0.593  -0.575  -0.550  -0.537
 -0.513  -0.508  -0.492  -0.486  -0.476  -0.459  -0.448  -0.437
 -0.396  -0.381  -0.354  -0.342  -0.335  -0.333  -0.317  -0.238
 -- Virtual --
 -0.018   0.061   0.077   0.083   0.087   0.101   0.109   0.111
  0.118   0.124   0.133   0.141   0.148   0.157   0.158   0.170
  0.178   0.180   0.189   0.194   0.202   0.210   0.215   0.221
  0.231   0.237   0.241   0.250   0.263   0.264   0.277   0.284
  0.287   0.289   0.298   0.303   0.314   0.316   0.326   0.327
  0.333   0.336   0.340   0.346   0.356   0.361   0.367   0.373
  0.376   0.383   0.389   0.391   0.401   0.408   0.410   0.416
  0.421   0.431   0.433   0.440   0.447   0.450   0.459   0.462
  0.467   0.471   0.475   0.478   0.487   0.496   0.496   0.503
  0.509   0.513   0.520   0.524   0.528   0.537   0.549   0.549
  0.555   0.562   0.569   0.571   0.575   0.591   0.598   0.605
  0.612   0.615   0.627   0.634   0.642   0.648   0.665   0.670
  0.675   0.680   0.690   0.698   0.699   0.705   0.706   0.722
  0.730   0.732   0.742   0.751   0.754   0.759   0.766   0.777
  0.777   0.783   0.790   0.798   0.801   0.805   0.816   0.821
  0.826   0.834   0.846   0.847   0.852   0.864   0.866   0.870
  0.882   0.885   0.897   0.907   0.920   0.923   0.935   0.949
  0.952   0.960   0.972   0.977   0.988   1.005   1.020   1.034
  1.047   1.062   1.067   1.083   1.093   1.108   1.119   1.136
  1.145   1.156   1.168   1.176   1.195   1.215   1.219   1.230
  1.245   1.251   1.269   1.278   1.282   1.306   1.318   1.332
  1.345   1.347   1.382   1.385   1.395   1.403   1.428   1.452
  1.463   1.485   1.488   1.500   1.535   1.555   1.564   1.594
  1.604   1.613   1.640   1.663   1.731   1.768   1.788   1.808
  1.833   1.839   1.857   1.879   1.903   1.920   1.931   1.940
  1.964   1.971   1.979   1.990   1.995   2.019   2.023   2.034
  2.071   2.075   2.088   2.095   2.112   2.136   2.150   2.166
  2.173   2.204   2.211   2.234   2.242   2.251   2.308   2.327
  2.341   2.356   2.366   2.385   2.401   2.402   2.419   2.438
  2.446   2.451   2.476   2.510   2.522   2.532   2.539   2.577
  2.583   2.618   2.635   2.652   2.662   2.692   2.709   2.718
  2.749   2.775   2.788   2.825   2.829   2.844   2.864   2.906
  2.916   2.931   2.959   2.983   3.007   3.010   3.028   3.041
  3.055   3.090   3.097   3.119   3.130   3.143   3.169   3.189
  3.202   3.211   3.227   3.261   3.278   3.299   3.329   3.349
  3.361   3.390   3.396   3.411   3.429   3.432   3.455   3.477
  3.489   3.506   3.521   3.539   3.557   3.562   3.581   3.589
  3.594   3.618   3.654   3.669   3.683   3.694   3.707   3.716
  3.735   3.751   3.763   3.779   3.794   3.807   3.827   3.844
  3.853   3.900   3.912   3.946   3.963   3.992   4.044   4.066
  4.091   4.175   4.185   4.216   4.226   4.284   4.294   4.329
  4.366   4.424   4.483   4.542   4.591   4.625   4.649   4.694
  4.747   4.808   4.881   4.927   4.965   4.980   5.008   5.043
  5.075   5.155   5.248   5.278   5.324   5.337   5.343   5.370
  5.377   5.405   5.419   5.435   5.441   5.463   5.483   5.572
  5.609   5.628   5.646   5.661   5.696   5.722   5.737   5.802
  5.819   5.955   6.003   6.115   6.193   6.217   6.276   6.355
  6.381   6.411   6.434   6.501   6.570   6.602   6.677   6.690
  6.699   6.725   6.737   6.756   6.808   6.857   6.927   6.949
  6.951   6.987   7.042   7.050   7.059   7.230   7.293   7.309
  7.337   7.378   7.394   7.417   7.428   7.481   7.510  22.717
 22.922  22.998  23.227  23.684  44.155  44.398  44.443  44.475
 44.552
 --------------------------------------------------------------
 
          Ground-State Mulliken Net Atomic Charges

     Atom                 Charge (a.u.)
  ----------------------------------------
      1 C                     0.096495
      2 O                    -0.778775
      3 O                    -0.775890
      4 C                    -0.712736
      5 H                     0.238486
      6 H                     0.445312
      7 C                    -0.351978
      8 H                     0.337924
      9 H                     0.278632
     10 C                     0.843055
     11 O                    -0.546352
     12 H                     0.399965
     13 O                    -0.447279
     14 O                    -0.680524
     15 C                    -1.143090
     16 H                     0.272102
     17 H                     0.267973
     18 H                     0.256680
  ----------------------------------------
  Sum of atomic charges =    -2.000000

 -----------------------------------------------------------------
                    Cartesian Multipole Moments
 -----------------------------------------------------------------
    Charge (ESU x 10^10)
                -9.6064
    Dipole Moment (Debye)
         X     -12.0988      Y     -15.8383      Z      -5.7409
       Tot      20.7411
    Quadrupole Moments (Debye-Ang)
        XX    -124.4023     XY     -21.3500     YY     -92.3259
        XZ      -5.0945     YZ     -11.9156     ZZ     -84.6029
    Octopole Moments (Debye-Ang^2)
       XXX    -254.7128    XXY    -127.5137    XYY     -75.3253
       YYY    -148.6018    XXZ     -13.0005    XYZ       0.0697
       YYZ     -28.7367    XZZ     -39.3920    YZZ     -56.8949
       ZZZ     -42.8649
    Hexadecapole Moments (Debye-Ang^3)
      XXXX   -1954.9678   XXXY    -541.0008   XXYY    -509.9646
      XYYY    -339.6572   YYYY    -732.8360   XXXZ     -52.7008
      XXYZ     -27.4424   XYYZ     -10.1872   YYYZ    -119.5778
      XXZZ    -380.4592   XYZZ    -104.9680   YYZZ    -216.0583
      XZZZ     -89.4404   YZZZ    -127.9103   ZZZZ    -485.1732
 -----------------------------------------------------------------
 Calculating analytic gradient of the SCF energy
 Gradient of SCF Energy
            1           2           3           4           5           6
    1   0.0120383  -0.0397782   0.0062932  -0.0461562  -0.0692778   0.0250796
    2   0.0566133  -0.0313056   0.0000681   0.0333924   0.0106637  -0.0166001
    3  -0.0557007   0.0210877  -0.0278624  -0.0272961  -0.0014507   0.0615992
            7           8           9          10          11          12
    1   0.0368171   0.0091758  -0.0041741   0.0212987   0.0360281  -0.0616967
    2  -0.1274786   0.0526014  -0.0049610   0.1132129   0.0247993  -0.0437617
    3   0.0976617   0.0294888  -0.0750048  -0.0174254  -0.0129507   0.0119950
           13          14          15          16          17          18
    1  -0.0105245   0.0849042  -0.0337557   0.0715363  -0.0224077  -0.0154004
    2  -0.0353070   0.0101601  -0.0934816  -0.0210380   0.0453334   0.0270889
    3  -0.0226276   0.0095382   0.0197471   0.0110774   0.0494876  -0.0713641
 Max gradient component =       1.275E-01
 RMS gradient           =       4.679E-02
 Computing fast CPCM-ISWIG gradient
 Updating gradient with PCM contributions...
 -- total gradient after adding PCM contribution --
---------------------------------------------------
  Atom         X              Y              Z     
---------------------------------------------------
   1      -0.000877      -0.000352       0.000128
   2       0.000437       0.000238      -0.000218
   3       0.000189       0.000030      -0.000045
   4       0.000215       0.000092       0.000095
   5      -0.000015       0.000039      -0.000035
   6      -0.000009      -0.000034      -0.000023
   7       0.000072       0.000028       0.000008
   8      -0.000009      -0.000007       0.000016
   9       0.000005       0.000017       0.000008
  10      -0.000057       0.000020       0.000037
  11      -0.000006      -0.000022      -0.000010
  12       0.000000      -0.000025      -0.000009
  13      -0.000031      -0.000042      -0.000066
  14       0.000066       0.000040       0.000010
  15       0.000011      -0.000005       0.000020
  16       0.000001      -0.000008       0.000023
  17       0.000002      -0.000018       0.000032
  18       0.000005       0.000009       0.000030
---------------------------------------------------
 Number of fixed atoms: 0
 Gradient time:  CPU 921.93 s  wall 66.54 s
 ----------------------------------------------------------------
             Standard Nuclear Orientation (Angstroms)
    I     Atom           X                Y                Z
 ----------------------------------------------------------------
    1      C       2.4573677186     1.1056812088     0.2166409658
    2      O       3.3157164051     1.7995872484    -0.4244731683
    3      O       2.3524880017     1.1524361411     1.4983752295
    4      C       1.5794988456     0.2121296583    -0.5149313954
    5      H       0.7040850598     1.4325882472     1.5107213886
    6      H       1.7709927048     0.1382529227    -1.5853530245
    7      C       0.5829158938    -0.6406941461     0.0502520769
    8      H       0.5226165326    -1.6162606539    -0.4417612945
    9      H       0.6356009274    -0.7447145632     1.1359931836
   10      C      -1.0425672267    -0.1202292647    -0.2069079439
   11      O      -1.0917647054     0.3575946902    -1.5634352866
   12      H      -0.2749827213     0.8615086387    -1.6946561305
   13      O      -1.4701473378     0.7573953437     0.6509046299
   14      O      -0.1798180210     1.8667891858     1.5101424193
   15      C      -1.8595757810    -1.4108700447    -0.1131877216
   16      H      -2.9207041430    -1.1985129694    -0.2737971343
   17      H      -1.5203482395    -2.1249016170    -0.8685328977
   18      H      -1.7327667639    -1.8498804258     0.8792544236
 ----------------------------------------------------------------
 Nuclear Repulsion Energy =   557.1250781395 hartrees
 There are       40 alpha and       40 beta electrons
 Discretize the solute cavity surface with Lebedev spheres
	Using 110 Lebedev grid points for each H atom
	Using 110 Lebedev grid points for other atoms
	Atomic van der Waals radii will be scaled by 1.20
 Remove points where switching function is < 1.0e-08
 Keep 1012 surface tesserae and discard 968 interior tesserae
 Molecular Surface Area = 181.633 Angst**2
 Requested basis set is def2-TZVPD
 There are 175 shells and 457 basis functions
 A cutoff of  1.0D-14 yielded  14295 shell pairs
 There are     98245 function pairs (    125288 Cartesian)
 Smallest overlap matrix eigenvalue = 2.35E-06
 Guess MOs from SCF MO coefficient file
 Reading MOs from coefficient file
 Reading MOs from coefficient file
 Long-range K will be added via erf
 Coulomb attenuation parameter = 0.3 bohr**(-1)
 A restricted hybrid HF-DFT SCF calculation will be
 performed using Pulay DIIS extrapolation
 Polarizable Continuum solvation model will be applied
 Exchange:     0.1670 Hartree-Fock + 1.0000 wB97X-V + LR-HF
 Correlation:  1.0000 wB97X-V
 Using SG-2 standard quadrature grid
 Nonlocal Correlation:  VV10 with C = 0.0100 and b = 6.00
 Grid used for NLC:  SG-1 standard quadrature
 SCF converges when DIIS error is below 1.0E-08
Using Q-Chem read-in guess as SCF_GUESS READ specified.

 using 16 threads for integral computing
 -------------------------------------------------------
 OpenMP Integral computing Module                
 Release: version 1.0, May 2013, Q-Chem Inc. Pittsburgh 
 -------------------------------------------------------
 using 16 threads for integral computing
 -------------------------------------------------------
 OpenMP Integral computing Module                
 Release: version 1.0, May 2013, Q-Chem Inc. Pittsburgh 
 -------------------------------------------------------
 -------------------------------------------------------
 OpenMP BLAS3 based DFT computing Module                
 Release: version 1.0, May 2013, Q-Chem Inc. Pittsburgh 
 -------------------------------------------------------
 -------------------------------------------------------
 OpenMP BLAS3 based DFT computing Module                
 Release: version 1.0, May 2013, Q-Chem Inc. Pittsburgh 
 -------------------------------------------------------
 -------------------------------------------------------
 OpenMP BLAS3 based DFT computing Module                
 Release: version 1.0, May 2013, Q-Chem Inc. Pittsburgh 
 -------------------------------------------------------
 ---------------------------------------
  Cycle       Energy         DIIS Error
 ---------------------------------------
    1    -571.2977837827      4.87E-04
    2    -571.6107810767      6.72E-04
    3    -571.6257310099      2.98E-04
    4    -571.6281876894      1.88E-04
    5    -571.6295098099      1.40E-04
    6    -571.6302998498      1.06E-04
    7    -571.6307622061      8.14E-05
    8    -571.6310944849      5.81E-05
    9    -571.6312726954      4.14E-05
   10    -571.6313969014      2.41E-05
   11    -571.6314490114      1.07E-05
   12    -571.6314604684      3.76E-06
   13    -571.6314620416      9.12E-07
   14    -571.6314621395      2.49E-07
   15    -571.6314621438      8.65E-08
   16    -571.6314621445      2.79E-08
   17    -571.6314621446      1.05E-08
   18    -571.6314621446      4.24E-09 Convergence criterion met
 ---------------------------------------

************** Final PCM Free Energy Summary **************
 G_electrostatic  =      -0.33480162 hartree =    -210.09118995 kcal/mol
 G_cavitation     =       0.00000000 hartree =       0.00000000 kcal/mol
 G_dispersion     =       0.00000000 hartree =       0.00000000 kcal/mol
 G_repulsion      =       0.00000000 hartree =       0.00000000 kcal/mol
 --------------------------------------------------
 Non-electrostatic Free Energy =       0.00000000 hartree =       0.00000000 kcal/mol
 Total                         =      -0.33480162 hartree =    -210.09118995 kcal/mol
 --------------------------------------------------
 SCF Energy (H0 + V/2)                       =    -571.63146214 
 Solute Internal Energy (H0)                 =    -571.29666052 
 Total Free Energy (H0 + V/2 + non-elec)     =    -571.63146214 hartree
                                             = -358704.15641732 kcal/mol
***********************************************************

 SCF time:  CPU 4751.75 s  wall 1416.13 s
 SCF   energy in the final basis set = -571.63146214
 Total energy in the final basis set = -571.63146214
 
 --------------------------------------------------------------
 
                    Orbital Energies (a.u.)
 --------------------------------------------------------------
 
 Alpha MOs
 -- Occupied --
-19.204 -19.194 -19.158 -19.135 -19.123 -10.348 -10.326 -10.257
-10.251 -10.224  -1.169  -1.127  -1.092  -1.034  -1.003  -0.882
 -0.843  -0.736  -0.674  -0.602  -0.593  -0.575  -0.550  -0.537
 -0.513  -0.508  -0.492  -0.486  -0.476  -0.459  -0.448  -0.437
 -0.396  -0.381  -0.354  -0.342  -0.335  -0.333  -0.318  -0.238
 -- Virtual --
 -0.017   0.061   0.077   0.083   0.087   0.101   0.109   0.111
  0.118   0.124   0.133   0.141   0.148   0.157   0.158   0.170
  0.178   0.180   0.189   0.194   0.202   0.210   0.215   0.221
  0.231   0.237   0.241   0.250   0.263   0.264   0.277   0.284
  0.287   0.289   0.298   0.303   0.314   0.316   0.326   0.327
  0.333   0.336   0.340   0.346   0.356   0.361   0.367   0.373
  0.376   0.383   0.389   0.391   0.401   0.408   0.410   0.416
  0.421   0.431   0.433   0.440   0.447   0.450   0.459   0.462
  0.467   0.471   0.475   0.478   0.487   0.496   0.496   0.503
  0.509   0.513   0.520   0.524   0.529   0.537   0.549   0.549
  0.555   0.562   0.569   0.571   0.575   0.591   0.598   0.605
  0.612   0.615   0.627   0.634   0.642   0.648   0.665   0.670
  0.675   0.680   0.690   0.698   0.699   0.705   0.706   0.722
  0.730   0.732   0.742   0.751   0.754   0.759   0.766   0.777
  0.777   0.783   0.790   0.798   0.801   0.805   0.816   0.821
  0.826   0.834   0.846   0.847   0.851   0.865   0.866   0.870
  0.882   0.885   0.897   0.907   0.920   0.923   0.935   0.949
  0.952   0.960   0.972   0.977   0.988   1.005   1.020   1.034
  1.047   1.062   1.067   1.083   1.093   1.108   1.119   1.136
  1.145   1.156   1.168   1.176   1.195   1.215   1.219   1.230
  1.245   1.251   1.269   1.278   1.282   1.306   1.318   1.332
  1.345   1.347   1.382   1.385   1.395   1.403   1.428   1.452
  1.463   1.485   1.488   1.500   1.535   1.555   1.563   1.594
  1.604   1.613   1.640   1.663   1.731   1.768   1.788   1.808
  1.833   1.839   1.858   1.879   1.903   1.920   1.932   1.940
  1.964   1.971   1.979   1.990   1.995   2.019   2.023   2.034
  2.071   2.075   2.088   2.095   2.112   2.136   2.150   2.166
  2.173   2.204   2.211   2.234   2.242   2.250   2.308   2.327
  2.341   2.356   2.366   2.385   2.400   2.402   2.419   2.438
  2.446   2.451   2.476   2.510   2.522   2.532   2.540   2.577
  2.583   2.618   2.635   2.652   2.662   2.692   2.709   2.718
  2.748   2.775   2.788   2.825   2.829   2.844   2.864   2.906
  2.916   2.931   2.959   2.983   3.007   3.010   3.028   3.041
  3.055   3.090   3.097   3.119   3.130   3.143   3.169   3.189
  3.202   3.211   3.227   3.261   3.278   3.299   3.329   3.349
  3.361   3.390   3.396   3.410   3.429   3.432   3.455   3.477
  3.489   3.505   3.521   3.539   3.557   3.562   3.581   3.589
  3.594   3.618   3.654   3.669   3.684   3.694   3.707   3.716
  3.735   3.751   3.762   3.779   3.794   3.807   3.827   3.844
  3.853   3.900   3.912   3.946   3.963   3.992   4.044   4.066
  4.091   4.175   4.184   4.216   4.226   4.284   4.294   4.329
  4.366   4.423   4.482   4.542   4.591   4.625   4.649   4.694
  4.747   4.808   4.880   4.927   4.965   4.980   5.008   5.043
  5.075   5.155   5.248   5.278   5.325   5.337   5.343   5.370
  5.377   5.405   5.419   5.435   5.441   5.463   5.483   5.572
  5.609   5.628   5.646   5.661   5.696   5.722   5.737   5.803
  5.819   5.955   6.004   6.115   6.195   6.218   6.277   6.355
  6.381   6.411   6.434   6.501   6.572   6.602   6.677   6.690
  6.699   6.725   6.737   6.756   6.808   6.857   6.927   6.949
  6.952   6.988   7.042   7.050   7.059   7.230   7.293   7.309
  7.337   7.378   7.395   7.418   7.429   7.482   7.510  22.717
 22.922  22.997  23.227  23.686  44.155  44.398  44.443  44.476
 44.552
 --------------------------------------------------------------
 
          Ground-State Mulliken Net Atomic Charges

     Atom                 Charge (a.u.)
  ----------------------------------------
      1 C                     0.096789
      2 O                    -0.777469
      3 O                    -0.775910
      4 C                    -0.713269
      5 H                     0.238224
      6 H                     0.445419
      7 C                    -0.351527
      8 H                     0.337867
      9 H                     0.278509
     10 C                     0.842850
     11 O                    -0.546402
     12 H                     0.399959
     13 O                    -0.447418
     14 O                    -0.681156
     15 C                    -1.143125
     16 H                     0.272076
     17 H                     0.267933
     18 H                     0.256649
  ----------------------------------------
  Sum of atomic charges =    -2.000000

 -----------------------------------------------------------------
                    Cartesian Multipole Moments
 -----------------------------------------------------------------
    Charge (ESU x 10^10)
                -9.6064
    Dipole Moment (Debye)
         X     -12.0706      Y     -15.8304      Z      -5.7509
       Tot      20.7213
    Quadrupole Moments (Debye-Ang)
        XX    -124.3220     XY     -21.2984     YY     -92.3161
        XZ      -5.1080     YZ     -11.9381     ZZ     -84.6178
    Octopole Moments (Debye-Ang^2)
       XXX    -254.3452    XXY    -127.3452    XYY     -75.2136
       YYY    -148.5701    XXZ     -13.0589    XYZ       0.0430
       YYZ     -28.7858    XZZ     -39.3773    YZZ     -56.9176
       ZZZ     -42.9063
    Hexadecapole Moments (Debye-Ang^3)
      XXXX   -1953.7180   XXXY    -540.4063   XXYY    -509.6569
      XYYY    -339.4347   YYYY    -732.8312   XXXZ     -52.8958
      XXYZ     -27.5437   XYYZ     -10.2469   YYYZ    -119.7188
      XXZZ    -380.4443   XYZZ    -104.9520   YYZZ    -216.1249
      XZZZ     -89.5008   YZZZ    -128.0216   ZZZZ    -485.2854
 -----------------------------------------------------------------
 Calculating analytic gradient of the SCF energy
 Gradient of SCF Energy
            1           2           3           4           5           6
    1   0.0134341  -0.0405513   0.0061841  -0.0467010  -0.0692752   0.0251472
    2   0.0576154  -0.0319244  -0.0000223   0.0331740   0.0106685  -0.0166650
    3  -0.0558640   0.0215555  -0.0278601  -0.0276369  -0.0014565   0.0616128
            7           8           9          10          11          12
    1   0.0367508   0.0092254  -0.0042233   0.0214030   0.0360261  -0.0617062
    2  -0.1275125   0.0526100  -0.0050113   0.1132501   0.0248029  -0.0437691
    3   0.0976086   0.0295163  -0.0750046  -0.0174035  -0.0129397   0.0119823
           13          14          15          16          17          18
    1  -0.0105265   0.0848677  -0.0338056   0.0715671  -0.0224103  -0.0154062
    2  -0.0352624   0.0101744  -0.0935369  -0.0210497   0.0453576   0.0271006
    3  -0.0225742   0.0095111   0.0197628   0.0110790   0.0495047  -0.0713936
 Max gradient component =       1.275E-01
 RMS gradient           =       4.687E-02
 Computing fast CPCM-ISWIG gradient
 Updating gradient with PCM contributions...
 -- total gradient after adding PCM contribution --
---------------------------------------------------
  Atom         X              Y              Z     
---------------------------------------------------
   1       0.000355       0.000747      -0.000056
   2      -0.000234      -0.000334       0.000116
   3      -0.000030      -0.000128      -0.000042
   4      -0.000068      -0.000210      -0.000109
   5       0.000015       0.000006      -0.000031
   6      -0.000007      -0.000015       0.000002
   7      -0.000095      -0.000031       0.000009
   8      -0.000002      -0.000009       0.000026
   9       0.000012       0.000011       0.000007
  10       0.000097      -0.000057      -0.000039
  11      -0.000006      -0.000020       0.000008
  12      -0.000006      -0.000023      -0.000014
  13       0.000036       0.000095       0.000077
  14      -0.000063      -0.000025      -0.000068
  15      -0.000012       0.000001       0.000028
  16       0.000000      -0.000009       0.000024
  17       0.000003      -0.000009       0.000034
  18       0.000005       0.000010       0.000029
---------------------------------------------------
 Number of fixed atoms: 0
 Gradient time:  CPU 932.68 s  wall 66.79 s
 ----------------------------------------------------------------
             Standard Nuclear Orientation (Angstroms)
    I     Atom           X                Y                Z
 ----------------------------------------------------------------
    1      C       2.4573677186     1.1036812088     0.2166409658
    2      O       3.3157164051     1.7995872484    -0.4244731683
    3      O       2.3524880017     1.1524361411     1.4983752295
    4      C       1.5794988456     0.2121296583    -0.5149313954
    5      H       0.7040850598     1.4325882472     1.5107213886
    6      H       1.7709927048     0.1382529227    -1.5853530245
    7      C       0.5829158938    -0.6406941461     0.0502520769
    8      H       0.5226165326    -1.6162606539    -0.4417612945
    9      H       0.6356009274    -0.7447145632     1.1359931836
   10      C      -1.0425672267    -0.1202292647    -0.2069079439
   11      O      -1.0917647054     0.3575946902    -1.5634352866
   12      H      -0.2749827213     0.8615086387    -1.6946561305
   13      O      -1.4701473378     0.7573953437     0.6509046299
   14      O      -0.1798180210     1.8667891858     1.5101424193
   15      C      -1.8595757810    -1.4108700447    -0.1131877216
   16      H      -2.9207041430    -1.1985129694    -0.2737971343
   17      H      -1.5203482395    -2.1249016170    -0.8685328977
   18      H      -1.7327667639    -1.8498804258     0.8792544236
 ----------------------------------------------------------------
 Nuclear Repulsion Energy =   557.1250185845 hartrees
 There are       40 alpha and       40 beta electrons
 Discretize the solute cavity surface with Lebedev spheres
	Using 110 Lebedev grid points for each H atom
	Using 110 Lebedev grid points for other atoms
	Atomic van der Waals radii will be scaled by 1.20
 Remove points where switching function is < 1.0e-08
 Keep 1012 surface tesserae and discard 968 interior tesserae
 Molecular Surface Area = 181.635 Angst**2
 Requested basis set is def2-TZVPD
 There are 175 shells and 457 basis functions
 A cutoff of  1.0D-14 yielded  14295 shell pairs
 There are     98245 function pairs (    125288 Cartesian)
 Smallest overlap matrix eigenvalue = 2.35E-06
 Guess MOs from SCF MO coefficient file
 Reading MOs from coefficient file
 Reading MOs from coefficient file
 Long-range K will be added via erf
 Coulomb attenuation parameter = 0.3 bohr**(-1)
 A restricted hybrid HF-DFT SCF calculation will be
 performed using Pulay DIIS extrapolation
 Polarizable Continuum solvation model will be applied
 Exchange:     0.1670 Hartree-Fock + 1.0000 wB97X-V + LR-HF
 Correlation:  1.0000 wB97X-V
 Using SG-2 standard quadrature grid
 Nonlocal Correlation:  VV10 with C = 0.0100 and b = 6.00
 Grid used for NLC:  SG-1 standard quadrature
 SCF converges when DIIS error is below 1.0E-08
Using Q-Chem read-in guess as SCF_GUESS READ specified.

 using 16 threads for integral computing
 -------------------------------------------------------
 OpenMP Integral computing Module                
 Release: version 1.0, May 2013, Q-Chem Inc. Pittsburgh 
 -------------------------------------------------------
 using 16 threads for integral computing
 -------------------------------------------------------
 OpenMP Integral computing Module                
 Release: version 1.0, May 2013, Q-Chem Inc. Pittsburgh 
 -------------------------------------------------------
 -------------------------------------------------------
 OpenMP BLAS3 based DFT computing Module                
 Release: version 1.0, May 2013, Q-Chem Inc. Pittsburgh 
 -------------------------------------------------------
 -------------------------------------------------------
 OpenMP BLAS3 based DFT computing Module                
 Release: version 1.0, May 2013, Q-Chem Inc. Pittsburgh 
 -------------------------------------------------------
 -------------------------------------------------------
 OpenMP BLAS3 based DFT computing Module                
 Release: version 1.0, May 2013, Q-Chem Inc. Pittsburgh 
 -------------------------------------------------------
 ---------------------------------------
  Cycle       Energy         DIIS Error
 ---------------------------------------
    1    -571.2954674919      4.85E-04
    2    -571.6108188100      6.72E-04
    3    -571.6257316495      2.97E-04
    4    -571.6281875547      1.88E-04
    5    -571.6295088231      1.40E-04
    6    -571.6303113999      1.06E-04
    7    -571.6307907927      7.98E-05
    8    -571.6311271274      5.54E-05
    9    -571.6313069447      3.74E-05
   10    -571.6314142601      2.05E-05
   11    -571.6314526166      9.08E-06
   12    -571.6314604830      3.76E-06
   13    -571.6314620209      1.07E-06
   14    -571.6314621530      2.90E-07
   15    -571.6314621613      7.82E-08
   16    -571.6314621620      2.42E-08
   17    -571.6314621621      1.03E-08
   18    -571.6314621621      4.09E-09 Convergence criterion met
 ---------------------------------------

************** Final PCM Free Energy Summary **************
 G_electrostatic  =      -0.33486790 hartree =    -210.13277702 kcal/mol
 G_cavitation     =       0.00000000 hartree =       0.00000000 kcal/mol
 G_dispersion     =       0.00000000 hartree =       0.00000000 kcal/mol
 G_repulsion      =       0.00000000 hartree =       0.00000000 kcal/mol
 --------------------------------------------------
 Non-electrostatic Free Energy =       0.00000000 hartree =       0.00000000 kcal/mol
 Total                         =      -0.33486790 hartree =    -210.13277702 kcal/mol
 --------------------------------------------------
 SCF Energy (H0 + V/2)                       =    -571.63146216 
 Solute Internal Energy (H0)                 =    -571.29659426 
 Total Free Energy (H0 + V/2 + non-elec)     =    -571.63146216 hartree
                                             = -358704.15642829 kcal/mol
***********************************************************

 SCF time:  CPU 4758.06 s  wall 346.66 s
 SCF   energy in the final basis set = -571.63146216
 Total energy in the final basis set = -571.63146216
 
 --------------------------------------------------------------
 
                    Orbital Energies (a.u.)
 --------------------------------------------------------------
 
 Alpha MOs
 -- Occupied --
-19.204 -19.194 -19.158 -19.135 -19.123 -10.348 -10.326 -10.257
-10.251 -10.224  -1.169  -1.127  -1.092  -1.034  -1.003  -0.882
 -0.843  -0.736  -0.674  -0.602  -0.593  -0.575  -0.550  -0.537
 -0.513  -0.508  -0.492  -0.486  -0.476  -0.459  -0.448  -0.437
 -0.396  -0.381  -0.354  -0.342  -0.335  -0.333  -0.317  -0.238
 -- Virtual --
 -0.018   0.061   0.077   0.083   0.087   0.101   0.109   0.111
  0.118   0.124   0.133   0.141   0.148   0.157   0.158   0.170
  0.178   0.180   0.189   0.194   0.202   0.210   0.215   0.221
  0.231   0.237   0.241   0.250   0.263   0.264   0.277   0.284
  0.287   0.289   0.298   0.303   0.314   0.316   0.326   0.327
  0.333   0.336   0.340   0.346   0.356   0.361   0.367   0.373
  0.376   0.383   0.389   0.391   0.401   0.408   0.410   0.416
  0.421   0.431   0.433   0.440   0.446   0.450   0.459   0.462
  0.467   0.471   0.475   0.478   0.487   0.496   0.496   0.503
  0.509   0.513   0.520   0.524   0.529   0.537   0.549   0.549
  0.555   0.562   0.569   0.571   0.575   0.591   0.598   0.605
  0.612   0.615   0.627   0.634   0.642   0.648   0.665   0.670
  0.675   0.680   0.690   0.698   0.699   0.705   0.706   0.722
  0.729   0.732   0.742   0.751   0.754   0.759   0.766   0.776
  0.777   0.783   0.790   0.798   0.801   0.805   0.816   0.821
  0.826   0.834   0.846   0.847   0.851   0.865   0.866   0.870
  0.882   0.885   0.897   0.907   0.920   0.923   0.935   0.949
  0.952   0.960   0.972   0.977   0.988   1.005   1.021   1.034
  1.047   1.062   1.067   1.083   1.093   1.108   1.119   1.136
  1.145   1.156   1.168   1.176   1.195   1.216   1.219   1.230
  1.245   1.251   1.269   1.278   1.282   1.306   1.318   1.332
  1.345   1.347   1.382   1.385   1.395   1.403   1.428   1.452
  1.463   1.485   1.488   1.500   1.535   1.555   1.564   1.594
  1.604   1.613   1.640   1.663   1.731   1.768   1.788   1.808
  1.833   1.839   1.857   1.879   1.903   1.920   1.931   1.940
  1.963   1.971   1.979   1.990   1.995   2.019   2.023   2.034
  2.071   2.075   2.088   2.095   2.112   2.136   2.150   2.166
  2.174   2.204   2.212   2.235   2.242   2.251   2.308   2.327
  2.341   2.356   2.366   2.385   2.400   2.402   2.419   2.438
  2.446   2.451   2.476   2.510   2.522   2.532   2.540   2.577
  2.583   2.618   2.635   2.652   2.662   2.692   2.709   2.718
  2.749   2.775   2.788   2.825   2.829   2.844   2.864   2.906
  2.916   2.931   2.959   2.983   3.007   3.010   3.028   3.041
  3.055   3.090   3.097   3.119   3.130   3.143   3.169   3.189
  3.202   3.211   3.227   3.261   3.278   3.299   3.329   3.349
  3.361   3.390   3.396   3.411   3.429   3.432   3.455   3.477
  3.489   3.505   3.521   3.539   3.557   3.562   3.581   3.589
  3.594   3.618   3.653   3.669   3.683   3.694   3.707   3.716
  3.735   3.751   3.762   3.779   3.794   3.807   3.827   3.844
  3.853   3.900   3.913   3.946   3.963   3.992   4.044   4.066
  4.091   4.175   4.185   4.216   4.226   4.284   4.294   4.329
  4.366   4.424   4.482   4.542   4.591   4.625   4.649   4.694
  4.747   4.809   4.881   4.927   4.965   4.980   5.008   5.043
  5.075   5.155   5.248   5.278   5.324   5.337   5.343   5.370
  5.377   5.405   5.419   5.435   5.441   5.463   5.483   5.572
  5.609   5.628   5.646   5.661   5.696   5.722   5.737   5.802
  5.819   5.955   6.003   6.115   6.193   6.217   6.276   6.355
  6.381   6.411   6.434   6.501   6.571   6.602   6.677   6.690
  6.699   6.725   6.737   6.756   6.809   6.857   6.927   6.949
  6.951   6.987   7.042   7.050   7.059   7.230   7.293   7.309
  7.337   7.378   7.394   7.417   7.428   7.481   7.510  22.717
 22.922  22.998  23.227  23.684  44.154  44.398  44.443  44.475
 44.552
 --------------------------------------------------------------
 
          Ground-State Mulliken Net Atomic Charges

     Atom                 Charge (a.u.)
  ----------------------------------------
      1 C                     0.096778
      2 O                    -0.778683
      3 O                    -0.776157
      4 C                    -0.713364
      5 H                     0.238527
      6 H                     0.445078
      7 C                    -0.351342
      8 H                     0.338019
      9 H                     0.278708
     10 C                     0.842849
     11 O                    -0.546347
     12 H                     0.399961
     13 O                    -0.447271
     14 O                    -0.680446
     15 C                    -1.143068
     16 H                     0.272103
     17 H                     0.267976
     18 H                     0.256678
  ----------------------------------------
  Sum of atomic charges =    -2.000000

 -----------------------------------------------------------------
                    Cartesian Multipole Moments
 -----------------------------------------------------------------
    Charge (ESU x 10^10)
                -9.6064
    Dipole Moment (Debye)
         X     -12.0980      Y     -15.8385      Z      -5.7415
       Tot      20.7409
    Quadrupole Moments (Debye-Ang)
        XX    -124.3945     XY     -21.3500     YY     -92.3261
        XZ      -5.0976     YZ     -11.9166     ZZ     -84.6041
    Octopole Moments (Debye-Ang^2)
       XXX    -254.7016    XXY    -127.5012    XYY     -75.3294
       YYY    -148.5765    XXZ     -13.0080    XYZ       0.0636
       YYZ     -28.7390    XZZ     -39.4066    YZZ     -56.8847
       ZZZ     -42.8691
    Hexadecapole Moments (Debye-Ang^3)
      XXXX   -1955.0431   XXXY    -540.9477   XXYY    -509.9591
      XYYY    -339.6109   YYYY    -732.7246   XXXZ     -52.7202
      XXYZ     -27.4563   XYYZ     -10.2038   YYYZ    -119.5823
      XXZZ    -380.5136   XYZZ    -104.9579   YYZZ    -216.0342
      XZZZ     -89.4664   YZZZ    -127.9047   ZZZZ    -485.1815
 -----------------------------------------------------------------
 Calculating analytic gradient of the SCF energy
 Gradient of SCF Energy
            1           2           3           4           5           6
    1   0.0118124  -0.0398758   0.0063073  -0.0458288  -0.0692954   0.0249634
    2   0.0569376  -0.0313770   0.0000728   0.0332020   0.0106660  -0.0164875
    3  -0.0561128   0.0211394  -0.0277718  -0.0270852  -0.0014576   0.0615678
            7           8           9          10          11          12
    1   0.0369235   0.0091671  -0.0041543   0.0212790   0.0360243  -0.0616937
    2  -0.1276059   0.0525747  -0.0049832   0.1132343   0.0247991  -0.0437599
    3   0.0977589   0.0295045  -0.0750260  -0.0174026  -0.0129533   0.0120000
           13          14          15          16          17          18
    1  -0.0105291   0.0849205  -0.0337490   0.0715372  -0.0224086  -0.0153998
    2  -0.0353252   0.0101567  -0.0934918  -0.0210391   0.0453365   0.0270898
    3  -0.0226386   0.0095344   0.0197394   0.0110790   0.0494879  -0.0713634
[...]
 O          0.023 -0.002  0.016   -0.022 -0.027 -0.022   -0.028 -0.048 -0.037
 C         -0.037 -0.081  0.028   -0.007 -0.053  0.038    0.040  0.019  0.080
 H         -0.021 -0.051 -0.032    0.051  0.178 -0.047    0.111  0.199 -0.152
 H         -0.014 -0.028 -0.012   -0.098 -0.000 -0.053    0.097  0.261 -0.121
 H         -0.116 -0.186 -0.006   -0.207 -0.208 -0.005   -0.226 -0.312 -0.036
 TransDip  -0.111  0.223  0.017    0.110 -0.142 -0.069    0.483 -0.084  0.182

 Mode:                25                     26                     27
 Frequency:       984.19                1015.55                1041.46
 Force Cnst:      0.7973                 1.4731                 0.8938
 Red. Mass:       1.3971                 2.4242                 1.3986
 IR Active:          YES                    YES                    YES
 IR Intens:       17.842                 22.556                 33.120
 Raman Active:       YES                    YES                    YES
               X      Y      Z        X      Y      Z        X      Y      Z
 C         -0.011 -0.033 -0.033    0.019  0.056  0.023    0.016  0.006  0.013
 O         -0.006 -0.001  0.008    0.054  0.036 -0.069    0.007  0.007 -0.006
 O          0.004 -0.005 -0.017   -0.015  0.003  0.177   -0.006  0.001  0.006
 C          0.021  0.026  0.025   -0.048 -0.070 -0.202   -0.035 -0.014  0.002
 H          0.314  0.487  0.566    0.036  0.062 -0.022   -0.053 -0.059 -0.078
 H          0.063  0.027  0.032   -0.220 -0.382 -0.215   -0.075 -0.024 -0.005
 C          0.021 -0.020  0.006   -0.029  0.030  0.123    0.015 -0.010 -0.029
 H          0.139 -0.015 -0.027   -0.344  0.219 -0.211   -0.142 -0.018  0.027
 H          0.056 -0.047  0.001    0.357 -0.409  0.061   -0.204  0.135 -0.008
 C          0.060  0.036 -0.041    0.012  0.006  0.011   -0.025  0.068 -0.005
 O          0.006 -0.016  0.025   -0.006  0.003  0.001    0.011 -0.010  0.007
 H         -0.069  0.036 -0.212   -0.021  0.002 -0.098   -0.006  0.005 -0.032
 O         -0.064  0.053  0.047    0.015 -0.015 -0.012    0.014  0.038  0.038
 O         -0.005 -0.022 -0.019    0.002 -0.005 -0.004   -0.012 -0.010 -0.009
 C         -0.042 -0.045 -0.068   -0.008 -0.005 -0.054    0.098 -0.105 -0.034
 H         -0.097 -0.164  0.139   -0.043 -0.067  0.101    0.208  0.567  0.072
 H         -0.121 -0.274  0.111   -0.066 -0.173  0.079   -0.498 -0.411 -0.008
 H          0.151  0.223  0.031    0.135  0.211  0.027   -0.269  0.029  0.072
 TransDip   0.023  0.126 -0.045    0.085  0.006 -0.126    0.078 -0.029 -0.165

 Mode:                28                     29                     30
 Frequency:      1083.26                1133.56                1180.31
 Force Cnst:      1.3825                 1.5376                 1.0780
 Red. Mass:       1.9996                 2.0310                 1.3134
 IR Active:          YES                    YES                    YES
 IR Intens:      324.170                281.509                 52.403
 Raman Active:       YES                    YES                    YES
               X      Y      Z        X      Y      Z        X      Y      Z
 C          0.012  0.005  0.014    0.032  0.034  0.052   -0.017 -0.008  0.007
 O          0.010  0.009 -0.009   -0.001  0.000  0.006    0.011  0.008 -0.006
 O         -0.008  0.003  0.016   -0.008 -0.006 -0.064   -0.000 -0.005 -0.027
 C         -0.048 -0.009 -0.009   -0.060 -0.027  0.071    0.003  0.014  0.015
 H         -0.059 -0.072 -0.081   -0.103 -0.101 -0.115    0.026  0.038  0.034
 H         -0.106 -0.135 -0.009    0.209  0.068  0.115    0.493  0.296  0.082
 C          0.037 -0.003 -0.025   -0.024  0.005 -0.073   -0.067 -0.024  0.050
 H         -0.194  0.017 -0.021   -0.394 -0.039  0.085   -0.305 -0.031  0.098
 H         -0.288  0.139 -0.002    0.347  0.290 -0.060    0.660 -0.150  0.009
 C          0.095  0.187 -0.065    0.019  0.012  0.214   -0.029  0.057 -0.100
 O          0.045 -0.015  0.084    0.016  0.015 -0.004   -0.002 -0.006  0.018
 H         -0.196  0.160 -0.609   -0.094  0.062 -0.369   -0.007  0.012  0.011
 O          0.016 -0.046 -0.020    0.053 -0.034 -0.054    0.007 -0.017 -0.001
 O         -0.005 -0.013 -0.008   -0.018 -0.016 -0.014    0.003 -0.000  0.001
 C         -0.089 -0.069  0.082   -0.031  0.009 -0.092    0.022 -0.025  0.043
 H         -0.098 -0.256 -0.134   -0.099 -0.144  0.189    0.064  0.098 -0.095
 H          0.103  0.163 -0.066   -0.002 -0.210  0.134   -0.057  0.055 -0.072
 H         -0.159 -0.365 -0.041    0.230  0.335  0.030   -0.124 -0.144  0.003
 TransDip  -0.043 -0.023 -0.575    0.530 -0.064  0.060   -0.228 -0.019 -0.038

 Mode:                31                     32                     33
 Frequency:      1216.93                1291.34                1325.84
 Force Cnst:      1.2081                 1.4374                 3.5510
 Red. Mass:       1.3846                 1.4630                 3.4286
 IR Active:          YES                    YES                    YES
 IR Intens:       34.574                156.627                730.591
 Raman Active:       YES                    YES                    YES
               X      Y      Z        X      Y      Z        X      Y      Z
 C         -0.011 -0.006 -0.018    0.042  0.050  0.030    0.206  0.197  0.158
 O          0.021  0.017 -0.007   -0.024 -0.022  0.014   -0.132 -0.109  0.061
 O         -0.001  0.001  0.026   -0.002 -0.005 -0.031   -0.011 -0.017 -0.132
 C         -0.061 -0.074  0.093   -0.017  0.000  0.046    0.088  0.061 -0.094
 H         -0.012 -0.015 -0.027    0.017  0.024  0.016    0.005  0.065  0.065
 H         -0.367 -0.333  0.058   -0.243 -0.224  0.022   -0.319 -0.319 -0.160
 C         -0.002  0.055 -0.085    0.053  0.002 -0.039   -0.125 -0.032  0.019
 H          0.488 -0.002 -0.046   -0.538  0.019  0.017    0.415 -0.236  0.306
 H          0.644  0.186 -0.105    0.127  0.154 -0.031    0.172 -0.424 -0.017
 C         -0.025  0.003 -0.045    0.121  0.039 -0.055   -0.034  0.062 -0.000
 O          0.009 -0.001  0.012   -0.050 -0.020 -0.028    0.012 -0.004  0.015
 H         -0.014  0.011 -0.069    0.172 -0.156  0.636   -0.044  0.040 -0.139
 O         -0.002  0.010  0.013   -0.024  0.010  0.020    0.023 -0.007 -0.004
 O         -0.001  0.000  0.001    0.005 -0.000  0.001   -0.010 -0.016 -0.011
 C          0.004 -0.005  0.017   -0.025  0.004 -0.004    0.009 -0.016  0.007
 H          0.022  0.062 -0.026   -0.061 -0.188 -0.023    0.017  0.054  0.016
 H         -0.010  0.035 -0.028   -0.040 -0.081  0.053   -0.014  0.015 -0.029
 H         -0.036 -0.049 -0.001    0.009 -0.090 -0.046   -0.052  0.001  0.021
 TransDip   0.072  0.010 -0.174    0.274  0.158  0.246    0.801  0.328 -0.003

 Mode:                34                     35                     36
 Frequency:      1363.71                1387.29                1426.79
 Force Cnst:      2.1437                 1.4630                 2.5658
 Red. Mass:       1.9564                 1.2902                 2.1392
 IR Active:          YES                    YES                    YES
 IR Intens:       80.905                 23.257                175.227
 Raman Active:       YES                    YES                    YES
               X      Y      Z        X      Y      Z        X      Y      Z
 C         -0.018 -0.026  0.010   -0.007 -0.006 -0.014    0.040  0.052  0.185
 O          0.023  0.021 -0.014   -0.000 -0.001  0.001    0.010  0.008 -0.018
 O         -0.001  0.004  0.009    0.000  0.001  0.006   -0.005 -0.007 -0.088
 C         -0.030 -0.051 -0.033    0.012  0.016  0.010   -0.101 -0.115 -0.060
 H         -0.027 -0.022 -0.034    0.005  0.002  0.004   -0.028  0.021 -0.007
 H          0.198  0.254 -0.017   -0.049 -0.052  0.004    0.212  0.262 -0.035
 C         -0.050 -0.000  0.028    0.008 -0.003 -0.008    0.008 -0.017  0.063
 H          0.636  0.022 -0.100   -0.080 -0.025  0.045    0.202  0.291 -0.566
 H         -0.041 -0.033  0.023   -0.000 -0.017 -0.008   -0.054  0.429  0.101
 C          0.059  0.219  0.083    0.018  0.034  0.001    0.043 -0.077 -0.065
 O         -0.039 -0.026 -0.017   -0.007 -0.005 -0.003    0.000  0.005 -0.001
 H          0.143 -0.148  0.535    0.027 -0.026  0.099   -0.012  0.021 -0.041
 O          0.026 -0.066 -0.055   -0.001 -0.003 -0.002   -0.016  0.054  0.052
 O         -0.006 -0.008 -0.004    0.001 -0.001 -0.000   -0.001 -0.009 -0.006
 C         -0.028 -0.031 -0.033   -0.075 -0.132  0.011   -0.033 -0.006  0.019
 H         -0.074 -0.079  0.175    0.075  0.473 -0.113    0.038  0.166 -0.173
 H          0.011 -0.109  0.063    0.320  0.375 -0.271    0.087  0.005  0.051
 H         -0.087  0.009  0.001    0.334  0.480  0.218    0.258 -0.055 -0.044
 TransDip   0.212 -0.101  0.167   -0.149  0.026 -0.033    0.390  0.036  0.163

 Mode:                37                     38                     39
 Frequency:      1464.04                1465.33                1482.88
 Force Cnst:      1.6295                 2.3013                 1.3714
 Red. Mass:       1.2903                 1.8191                 1.0585
 IR Active:          YES                    YES                    YES
 IR Intens:      169.222                407.857                 14.036
 Raman Active:       YES                    YES                    YES
               X      Y      Z        X      Y      Z        X      Y      Z
 C          0.036  0.020 -0.103    0.094  0.064 -0.160    0.000  0.003  0.009
 O         -0.029 -0.023  0.024   -0.063 -0.051  0.047   -0.000 -0.001 -0.001
 O         -0.002  0.001  0.042   -0.006  0.000  0.060    0.000 -0.001 -0.005
 C          0.029  0.029  0.009    0.039  0.032  0.002    0.001  0.003  0.001
 H         -0.006 -0.035  0.001   -0.018 -0.074  0.006    0.003  0.005  0.005
 H          0.003 -0.006  0.002    0.038  0.041 -0.011   -0.009 -0.016  0.000
 C         -0.025 -0.032  0.010   -0.052 -0.096  0.053    0.004 -0.006  0.004
 H         -0.002  0.014 -0.079    0.016  0.191 -0.507   -0.073  0.017 -0.034
 H          0.044  0.110  0.019    0.114  0.554  0.102    0.022  0.039  0.006
 C         -0.021  0.031  0.012    0.000  0.001  0.002   -0.001 -0.017 -0.034
 O          0.001 -0.002  0.002   -0.000  0.001  0.001    0.002  0.001  0.003
 H          0.000 -0.003 -0.002   -0.009  0.011 -0.022   -0.008  0.012 -0.028
 O          0.007 -0.011 -0.009    0.003 -0.005 -0.005   -0.004  0.007  0.009
 O         -0.002  0.002  0.000   -0.002  0.005  0.001    0.001  0.000  0.000
 C         -0.051  0.018  0.002    0.034 -0.013  0.000   -0.010 -0.010 -0.051
 H          0.071  0.375 -0.210   -0.031 -0.201  0.105   -0.057  0.243  0.647
 H          0.185 -0.321  0.415   -0.123  0.173 -0.239    0.568  0.025  0.194
 H          0.487 -0.395 -0.245   -0.270  0.224  0.140   -0.356 -0.122 -0.042
 TransDip   0.214  0.081 -0.348    0.281  0.325 -0.484   -0.084  0.004  0.086

 Mode:                40                     41                     42
 Frequency:      1518.70                3053.82                3057.18
 Force Cnst:      4.4588                 5.6817                 5.8414
 Red. Mass:       3.2811                 1.0340                 1.0608
 IR Active:          YES                    YES                    YES
 IR Intens:      913.264                 77.510                100.186
 Raman Active:       YES                    YES                    YES
               X      Y      Z        X      Y      Z        X      Y      Z
 C         -0.179 -0.131  0.167    0.000  0.000  0.000    0.001  0.000  0.001
 O          0.064  0.050 -0.055   -0.000 -0.000  0.000   -0.000 -0.000  0.000
 O          0.018  0.004 -0.068   -0.000 -0.000 -0.000    0.000  0.000 -0.000
 C          0.198  0.180 -0.019   -0.000 -0.000  0.000    0.001  0.001  0.004
 H         -0.001  0.025 -0.018   -0.002  0.001  0.000   -0.008  0.004  0.001
 H         -0.412 -0.443 -0.076    0.000 -0.000 -0.003    0.008 -0.004 -0.055
 C         -0.096 -0.137  0.048    0.000 -0.001 -0.000   -0.005 -0.069  0.006
 H         -0.076  0.079 -0.361    0.001  0.017  0.008    0.061  0.777  0.404
 H          0.177  0.478  0.101   -0.000  0.001 -0.002   -0.019  0.034 -0.469
 C         -0.039  0.046  0.034    0.001  0.001 -0.001    0.001 -0.002 -0.001
 O          0.001 -0.001  0.001   -0.000 -0.000  0.000   -0.000  0.000  0.000
 H          0.002 -0.013  0.000   -0.000 -0.001  0.001   -0.000  0.001 -0.001
 O          0.009 -0.030 -0.030    0.000  0.000  0.000   -0.000  0.001  0.001
 O          0.006  0.002  0.004    0.000 -0.000 -0.000    0.000 -0.001 -0.000
 C          0.011  0.005 -0.001   -0.030 -0.039 -0.003   -0.002  0.002  0.000
 H          0.018  0.011 -0.040    0.599 -0.133  0.091    0.002 -0.000  0.002
 H         -0.053 -0.067  0.041   -0.194  0.380  0.412    0.008 -0.012 -0.017
 H          0.034 -0.040 -0.025   -0.066  0.198 -0.466    0.003 -0.004  0.013
 TransDip  -0.771 -0.291  0.508   -0.215 -0.179 -0.032   -0.045 -0.313 -0.053

 Mode:                43                     44                     45
 Frequency:      3131.27                3139.26                3146.56
 Force Cnst:      6.3759                 6.3519                 6.4325
 Red. Mass:       1.1037                 1.0940                 1.1027
 IR Active:          YES                    YES                    YES
 IR Intens:       27.000                 18.612                  9.821
 Raman Active:       YES                    YES                    YES
               X      Y      Z        X      Y      Z        X      Y      Z
 C         -0.000 -0.001 -0.000    0.002  0.002  0.000   -0.001 -0.001  0.000
 O          0.000  0.000 -0.000   -0.000 -0.000  0.000    0.000  0.000 -0.000
 O         -0.000  0.000  0.000   -0.000  0.000  0.000    0.000  0.000 -0.000
 C         -0.001  0.001  0.008    0.012 -0.004 -0.063   -0.004  0.002  0.025
 H         -0.006  0.004 -0.000   -0.000 -0.001  0.001    0.000 -0.001 -0.001
 H          0.017 -0.007 -0.099   -0.130  0.051  0.740    0.052 -0.021 -0.287
 C         -0.001 -0.002 -0.013    0.001  0.012  0.057    0.001  0.006  0.014
 H          0.006  0.036  0.019   -0.014 -0.222 -0.112   -0.007 -0.076 -0.039
 H          0.006 -0.013  0.135   -0.025  0.053 -0.561   -0.004  0.013 -0.127
 C         -0.001  0.001  0.000   -0.000  0.001  0.000   -0.000 -0.000 -0.002
 O          0.000 -0.000  0.000    0.000  0.000  0.000   -0.000 -0.000  0.000
 H         -0.001 -0.001  0.000   -0.001 -0.003  0.000    0.002  0.004 -0.000
 O          0.000  0.000 -0.000    0.000  0.000  0.000   -0.000 -0.000  0.000
 O          0.000 -0.000 -0.000   -0.000 -0.000 -0.000    0.000  0.000  0.000
 C         -0.075  0.051  0.015   -0.014  0.009 -0.010   -0.013  0.006 -0.087
 H          0.708 -0.143  0.112    0.152 -0.031  0.021    0.207 -0.044  0.017
 H          0.191 -0.407 -0.446    0.009 -0.024 -0.029   -0.150  0.300  0.308
 H          0.006 -0.055  0.149    0.014 -0.052  0.124    0.094 -0.319  0.721
 TransDip  -0.139  0.091  0.002    0.047 -0.002 -0.130   -0.077  0.022 -0.060

 Mode:                46                     47                     48
 Frequency:      3151.28                3375.89                3743.44
 Force Cnst:      6.4315                 7.2066                 8.7963
 Red. Mass:       1.0992                 1.0733                 1.0654
 IR Active:          YES                    YES                    YES
 IR Intens:       64.511                563.438                116.253
 Raman Active:       YES                    YES                    YES
               X      Y      Z        X      Y      Z        X      Y      Z
 C          0.002  0.002 -0.001    0.001  0.004  0.012   -0.000 -0.000 -0.000
 O         -0.000 -0.000  0.000   -0.000 -0.000 -0.002    0.000  0.000 -0.000
 O         -0.000 -0.000  0.000    0.003 -0.001 -0.005   -0.000 -0.000  0.000
 C          0.008 -0.004 -0.048   -0.005 -0.004  0.000    0.001 -0.000  0.000
 H          0.012 -0.004  0.002    0.876 -0.475 -0.032   -0.017  0.011  0.002
 H         -0.105  0.042  0.568   -0.001 -0.002 -0.008   -0.005  0.004  0.003
 C         -0.004 -0.023 -0.067    0.005  0.000  0.001    0.000  0.000 -0.000
 H          0.026  0.333  0.166   -0.004  0.008 -0.004    0.000  0.000 -0.000
 H          0.028 -0.060  0.648   -0.002  0.009 -0.011   -0.002  0.001 -0.001
 C         -0.000 -0.000 -0.002   -0.006  0.004  0.002   -0.002  0.000  0.002
 O          0.000 -0.000  0.000   -0.001 -0.001  0.000   -0.051 -0.033  0.010
 H          0.001 -0.002 -0.000    0.014  0.014 -0.008    0.831  0.528 -0.162
 O         -0.000 -0.000  0.000   -0.001 -0.005 -0.005   -0.000 -0.001 -0.001
 O         -0.001  0.000  0.000   -0.055  0.033  0.003    0.002 -0.000  0.000
 C         -0.001 -0.000 -0.028    0.000 -0.001  0.000    0.000  0.000 -0.000
 H          0.031 -0.006  0.001    0.007  0.002  0.001    0.001  0.000 -0.000
 H         -0.055  0.113  0.117    0.002 -0.005 -0.004    0.000 -0.001 -0.001
 H          0.030 -0.101  0.226   -0.001  0.001 -0.003    0.000  0.002 -0.003
 TransDip   0.017 -0.004 -0.257    0.177  0.351  0.650    0.148  0.264  0.167

 STANDARD THERMODYNAMIC QUANTITIES AT   298.15 K  AND     1.00 ATM

   This Molecule has  1 Imaginary Frequencies
   Zero point vibrational energy:       81.400 kcal/mol

   Atom    1 Element C  Has Mass   12.00000
   Atom    2 Element O  Has Mass   15.99491
   Atom    3 Element O  Has Mass   15.99491
   Atom    4 Element C  Has Mass   12.00000
   Atom    5 Element H  Has Mass    1.00783
   Atom    6 Element H  Has Mass    1.00783
   Atom    7 Element C  Has Mass   12.00000
   Atom    8 Element H  Has Mass    1.00783
   Atom    9 Element H  Has Mass    1.00783
   Atom   10 Element C  Has Mass   12.00000
   Atom   11 Element O  Has Mass   15.99491
   Atom   12 Element H  Has Mass    1.00783
   Atom   13 Element O  Has Mass   15.99491
   Atom   14 Element O  Has Mass   15.99491
   Atom   15 Element C  Has Mass   12.00000
   Atom   16 Element H  Has Mass    1.00783
   Atom   17 Element H  Has Mass    1.00783
   Atom   18 Element H  Has Mass    1.00783
   Molecular Mass:   148.037190 amu
   Principal axes and moments of inertia in amu*Bohr^2:
                             1           2           3
    Eigenvalues --      800.27407  2175.78200  2457.50867
          X               0.91600    -0.31341    -0.25044
          Y               0.37919     0.47252     0.79557
          Z               0.13101     0.82371    -0.55167
   Rotational Symmetry Number is   1
   The Molecule is an Asymmetric Top
   Translational Enthalpy:        0.889 kcal/mol
   Rotational Enthalpy:           0.889 kcal/mol
   Vibrational Enthalpy:         86.273 kcal/mol
   gas constant (RT):             0.592 kcal/mol
   Translational Entropy:        40.887  cal/mol.K
   Rotational Entropy:           29.838  cal/mol.K
   Vibrational Entropy:          29.562  cal/mol.K

   Total Enthalpy:               88.643 kcal/mol
   Total Entropy:               100.287  cal/mol.K
Archival summary:
1\1\c5-65\FREQ\ProcedureUnspecified\BasisUnspecified\558(2-,1)\leeping\SunMay2005:34:052018SunMay2005:34:052018\0\\#,FREQ,ProcedureUnspecified,BasisUnspecified,\\-2,1\O\C,1,1.29957\O,2,1.43906,1,112.752\H,3,0.968649,2,105.76,1,84.212,0\C,2,1.53037,1,110.699,3,-121.926,0\H,5,1.09259,2,109.422,1,-62.4847,0\H,5,1.09337,2,110.048,1,177.506,0\H,5,1.09402,2,110.189,1,57.2246,0\C,2,1.72604,1,114.528,3,121.096,0\H,9,1.09198,2,102.844,1,41.1028,0\H,9,1.09428,2,98.6236,1,155.497,0\C,9,1.42826,2,114.715,1,-84.0245,0\H,12,1.08992,9,118.083,2,-78.6848,0\C,12,1.45,9,126.181,2,106.879,0\O,14,1.27698,12,119.25,9,179.175,0\O,14,1.2869,12,118.425,9,0.110828,0\H,16,1.67209,14,95.3889,12,-52.3602,0\O,17,0.984792,16,163.478,14,-89.7748,0\\\@

 Total job time:  52574.19s(wall), 620397.06s(cpu) 
 Sun May 20 05:34:05 2018

        *************************************************************
        *                                                           *
        *  Thank you very much for using Q-Chem.  Have a nice day.  *
        *                                                           *
        *************************************************************


