
Running Job 1 of 1 qc-freq1.in
qchem qc-freq1.in_32638.0 /scratch/leeping/1862736/qc-freq1.d/ 1
/home/leeping/opt/qchem/5.0.2-openmp/exe/qcprog.exe_s qc-freq1.in_32638.0 /scratch/leeping/1862736/qc-freq1.d/
Check license passed

                  Welcome to Q-Chem
     A Quantum Leap Into The Future Of Chemistry


 Q-Chem 5.0, Q-Chem, Inc., Pleasanton, CA (2017)

 Yihan Shao,  Zhengting Gan,  E. Epifanovsky,  A. T. B. Gilbert,  M. Wormit,  
 J. Kussmann,  A. W. Lange,  A. Behn,  Jia Deng,  Xintian Feng,  D. Ghosh,  
 M. Goldey,  P. R. Horn,  L. D. Jacobson,  I. Kaliman,  T. Kus,  A. Landau,  
 Jie Liu,  E. I. Proynov,  R. M. Richard,  R. P. Steele,  E. J. Sundstrom,  
 H. L. Woodcock III,  P. M. Zimmerman,  D. Zuev,  B. Albrecht,  E. Alguire,  
 S. A. Baeppler,  D. Barton,  Z. Benda,  Y. A. Bernard,  E. J. Berquist,  
 K. B. Bravaya,  H. Burton,  D. Casanova,  Chun-Min Chang,  Yunqing Chen,  
 A. Chien,  K. D. Closser,  M. P. Coons,  S. Dasgupta,  A. L. Dempwolff,  
 M. Diedenhofen,  Hainam Do,  R. G. Edgar,  Po-Tung Fang,  S. Fatehi,  
 Qingguo Feng,  J. Fosso-Tande,  Qinghui Ge,  A. Ghysels,  G. Gidofalvi,  
 J. Gomes,  J. Gonthier,  A. Gunina,  M. W. D. Hanson-Heine,  
 P. H. P. Harbach,  A. W. Hauser,  J. E. Herr,  E. G. Hohenstein,  
 Z. C. Holden,  Kerwin Hui,  T.-C. Jagau,  Hyunjun Ji,  B. Kaduk,  
 K. Khistyaev,  Jaehoon Kim,  P. Klunzinger,  K. Koh,  D. Kosenkov,  
 L. Koulias,  T. Kowalczyk,  C. M. Krauter,  A. Kunitsa,  Ka Un Lao,  
 A. Laurent,  K. V. Lawler,  Joonho Lee,  D. Lefrancois,  S. Lehtola,  
 D. S. Levine,  Yi-Pei Li,  You-Sheng Lin,  Fenglai Liu,  E. Livshits,  
 A. Luenser,  P. Manohar,  E. Mansoor,  S. F. Manzer,  Shan-Ping Mao,  
 Yuezhi Mao,  N. Mardirossian,  A. V. Marenich,  T. Markovich,  
 L. A. Martinez-Martinez,  S. A. Maurer,  N. J. Mayhall,  S. C. McKenzie,  
 J.-M. Mewes,  A. F. Morrison,  J. W. Mullinax,  K. Nanda,  
 T. S. Nguyen-Beck,  R. Olivares-Amaya,  J. A. Parkhill,  T. M. Perrine,  
 F. Plasser,  S. Prager,  A. Prociuk,  E. Ramos,  D. R. Rehn,  F. Rob,  
 M. Schneider,  N. Sergueev,  S. M. Sharada,  S. Sharma,  D. W. Small,  
 T. Stauch,  T. Stein,  Yu-Chuan Su,  A. J. W. Thom,  A. Tkatchenko,  
 T. Tsuchimochi,  L. Vogt,  O. Vydrov,  M. A. Watson,  J. Wenzel,  
 M. de Wergifosse,  T. A. Wesolowski,  A. White,  J. Witte,  A. Yamada,  
 Jun Yang,  K. Yao,  S. Yeganeh,  S. R. Yost,  Zhi-Qiang You,  A. Zech,  
 Igor Ying Zhang,  Xing Zhang,  Yan Zhao,  Ying Zhu,  B. R. Brooks,  
 G. K. L. Chan,  C. J. Cramer,  M. S. Gordon,  W. J. Hehre,  A. Klamt,  
 M. W. Schmidt,  C. D. Sherrill,  D. G. Truhlar,  A. Aspuru-Guzik,  R. Baer,  
 A. T. Bell,  N. A. Besley,  Jeng-Da Chai,  R. A. DiStasio Jr.,  A. Dreuw,  
 B. D. Dunietz,  T. R. Furlani,  Chao-Ping Hsu,  Yousung Jung,  Jing Kong,  
 D. S. Lambrecht,  WanZhen Liang,  C. Ochsenfeld,  V. A. Rassolov,  
 L. V. Slipchenko,  J. E. Subotnik,  T. Van Voorhis,  J. M. Herbert,  
 A. I. Krylov,  P. M. W. Gill,  M. Head-Gordon

 Contributors to earlier versions of Q-Chem not listed above: 
 R. D. Adamson,  B. Austin,  J. Baker,  G. J. O. Beran,  K. Brandhorst,  
 S. T. Brown,  E. F. C. Byrd,  A. K. Chakraborty,  C.-L. Cheng,  
 Siu Hung Chien,  D. M. Chipman,  D. L. Crittenden,  H. Dachsel,  
 R. J. Doerksen,  A. D. Dutoi,  L. Fusti-Molnar,  W. A. Goddard III,  
 A. Golubeva-Zadorozhnaya,  S. R. Gwaltney,  G. Hawkins,  A. Heyden,  
 S. Hirata,  G. Kedziora,  F. J. Keil,  C. Kelley,  Jihan Kim,  R. A. King,  
 R. Z. Khaliullin,  P. P. Korambath,  W. Kurlancheek,  A. M. Lee,  M. S. Lee,  
 S. V. Levchenko,  Ching Yeh Lin,  D. Liotard,  R. C. Lochan,  I. Lotan,  
 P. E. Maslen,  N. Nair,  D. P. O'Neill,  D. Neuhauser,  E. Neuscamman,  
 C. M. Oana,  R. Olson,  B. Peters,  R. Peverati,  P. A. Pieniazek,  
 Y. M. Rhee,  J. Ritchie,  M. A. Rohrdanz,  E. Rosta,  N. J. Russ,  
 H. F. Schaefer III,  N. E. Schultz,  N. Shenvi,  A. C. Simmonett,  A. Sodt,  
 D. Stuck,  K. S. Thanthiriwatte,  V. Vanovschi,  Tao Wang,  A. Warshel,  
 C. F. Williams,  Q. Wu,  X. Xu,  W. Zhang

 Please cite Q-Chem as follows:
 Y. Shao et al., Mol. Phys. 113, 184-215 (2015)
 DOI: 10.1080/00268976.2014.952696

 Q-Chem 5.0.2 for Intel X86 EM64T Linux

 Parts of Q-Chem use Armadillo 5.200.1 (Boston Tea Smuggler).
 http://arma.sourceforge.net/

 Q-Chem begins on Fri Mar 20 17:45:31 2020  

Host: 
0

     Scratch files written to /scratch/leeping/1862736/qc-freq1.d//
 Dec517 15110_ 26548  26544 5633   
Processing $rem in /home/leeping/opt/qchem/5.0.2-openmp/config/preferences.
 MEM_STATIC 2000
 MEM_TOTAL  8000
 SYMMETRY   OFF
 SYM_IGNORE TRUE 
Symmetry turned off for PCM/SM12/SMD calculation

Checking the input file for inconsistencies... 	...done.

--------------------------------------------------------------
User input:
--------------------------------------------------------------
$molecule
-2 1
C       -2.4837265555    0.8054852987   -1.0604535157
H       -2.2801762877    1.8631095557   -0.8742098689
H       -2.4721150455    0.6271006480   -2.1383295708
H       -3.4671246218    0.5509517618   -0.6608650417
C       -1.4311915867   -0.0514711853   -0.3844243750
C        0.9758328443   -0.3584447587   -0.5274814187
H        1.6156172305   -0.5123248548   -1.4030372013
H        0.7222389045   -1.3396745659   -0.1229637029
C        1.7080332788    0.4836117059    0.5067836064
H        1.0636870084    0.6141501741    1.3822192994
H        1.9015923064    1.4828402648    0.1018295325
C        3.0358153603   -0.1131952223    0.9888107283
O       -1.4200938598    0.2842689880    1.0038563700
O       -1.6886391334   -1.4004292031   -0.4800362333
H       -1.4958638000   -1.6397351099    0.5070298653
O       -0.2016938117    0.2959803658   -1.0090940223
O        3.8098549380    0.6653212626    1.6087688582
O        3.2586500285   -1.3304760831    0.7571336023
O       -1.1506088799   -0.9114025902    1.7804775412
$end

$rem
jobtype               freq
method                wb97x-v
basis                 def2-tzvpd
symmetry              off
sym_ignore            true
incdft                false
incfock               0
!scf_algorithm        diis_gdm
scf_convergence       8
thresh                14
!purecart             112
max_scf_cycles        1000
geom_opt_max_cycles   500
geom_opt_dmax         100
geom_opt_tol_gradient 10
solvent_method        pcm
ideriv                1
rpath_tol_displacement 1000
rpath_max_cycles      100
rpath_direction       1
!scf_guess            read
scf_guess             read
$end

$pcm
theory              cosmo
method              iswig
Radii               bondi
vdwScale            1.20
hpoints             110
heavypoints         110
$end

$solvent
dielectric 78.400000
$end

--------------------------------------------------------------
 ----------------------------------------------------------------
             Standard Nuclear Orientation (Angstroms)
    I     Atom           X                Y                Z
 ----------------------------------------------------------------
    1      C      -2.4837265555     0.8054852987    -1.0604535157
    2      H      -2.2801762877     1.8631095557    -0.8742098689
    3      H      -2.4721150455     0.6271006480    -2.1383295708
    4      H      -3.4671246218     0.5509517618    -0.6608650417
    5      C      -1.4311915867    -0.0514711853    -0.3844243750
    6      C       0.9758328443    -0.3584447587    -0.5274814187
    7      H       1.6156172305    -0.5123248548    -1.4030372013
    8      H       0.7222389045    -1.3396745659    -0.1229637029
    9      C       1.7080332788     0.4836117059     0.5067836064
   10      H       1.0636870084     0.6141501741     1.3822192994
   11      H       1.9015923064     1.4828402648     0.1018295325
   12      C       3.0358153603    -0.1131952223     0.9888107283
   13      O      -1.4200938598     0.2842689880     1.0038563700
   14      O      -1.6886391334    -1.4004292031    -0.4800362333
   15      H      -1.4958638000    -1.6397351099     0.5070298653
   16      O      -0.2016938117     0.2959803658    -1.0090940223
   17      O       3.8098549380     0.6653212626     1.6087688582
   18      O       3.2586500285    -1.3304760831     0.7571336023
   19      O      -1.1506088799    -0.9114025902     1.7804775412
 ----------------------------------------------------------------
 Nuclear Repulsion Energy =   659.3932301737 hartrees
 There are       44 alpha and       44 beta electrons
 Requested basis set is def2-TZVPD
 There are 189 shells and 497 basis functions

 Total QAlloc Memory Limit   8000 MB
 Mega-Array Size      1956 MB
 MEM_STATIC part      2000 MB
 Discretize the solute cavity surface with Lebedev spheres
	Using 110 Lebedev grid points for each H atom
	Using 110 Lebedev grid points for other atoms
	Atomic van der Waals radii will be scaled by 1.20
 Remove points where switching function is < 1.0e-08
 Keep 1088 surface tesserae and discard 1002 interior tesserae
 Molecular Surface Area = 194.990 Angst**2
 A cutoff of  1.0D-14 yielded  16228 shell pairs
 There are    112650 function pairs (    143689 Cartesian)
 
 -------------------------------------------------------
 OpenMP Integral Computing Module                       
 Release: version 1.0, May 2013, Q-Chem Inc. Pittsburgh 
 -------------------------------------------------------
 Integral Job Info:
 Integral job number is                      11
 Integral operator is                         1
 short-range coefficients              16700000
 long-range coefficients              100000000
 Omega coefficients                         300
 if combine SR and LR in K                    1
 Integral screening is                        0
 Integral computing path is                   2
 max size of driver memory is            800000
 size of driver memory is                776718
 size of scratch memory is              4473992
 max col of scratch BK array              10000
 max len of scratch array in speh3          662
 max len of scratch index in speh4           32
 max int batch size is                      520
 min int batch size is                       52
 fixed nKL is                                52
 max L of basis functions is                  3
 order of int derivative is                   0
 number of shells is                        189
 number of basis is                         563
 number of cartesian basis is               563
 number of contracted shell pairs         16228
 number of primitive shell pairs          32722
 maxK2 (contraction) of shell pair           36
 max number of K2 of shell pair               1
 max number of CS2 of shell pair           2657
 max number of PS2 of shell pair           3780
 mem total for path MDJ                  834136
 -------------------------------------------------------
 Smallest overlap matrix eigenvalue = 3.40E-06
 Guess MOs from SCF MO coefficient file
 Reading MOs from coefficient file
 Reading MOs from coefficient file
 Long-range K will be added via erf
 Coulomb attenuation parameter = 0.3 bohr**(-1)
 A restricted hybrid HF-DFT SCF calculation will be
 performed using Pulay DIIS extrapolation
 Polarizable Continuum solvation model will be applied
 Exchange:     0.1670 Hartree-Fock + 1.0000 wB97X-V + LR-HF
 Correlation:  1.0000 wB97X-V
 Using SG-2 standard quadrature grid
 Nonlocal Correlation:  VV10 with C = 0.0100 and b = 6.00
 Grid used for NLC:  SG-1 standard quadrature
 SCF converges when DIIS error is below 1.0E-08
Using Q-Chem read-in guess as SCF_GUESS READ specified.

 using 16 threads for integral computing
 -------------------------------------------------------
 OpenMP Integral computing Module                
 Release: version 1.0, May 2013, Q-Chem Inc. Pittsburgh 
 -------------------------------------------------------
 using 16 threads for integral computing
 -------------------------------------------------------
 OpenMP Integral computing Module                
 Release: version 1.0, May 2013, Q-Chem Inc. Pittsburgh 
 -------------------------------------------------------
 -------------------------------------------------------
 OpenMP BLAS3 based DFT computing Module                
 Release: version 1.0, May 2013, Q-Chem Inc. Pittsburgh 
 -------------------------------------------------------
 -------------------------------------------------------
 OpenMP BLAS3 based DFT computing Module                
 Release: version 1.0, May 2013, Q-Chem Inc. Pittsburgh 
 -------------------------------------------------------
 -------------------------------------------------------
 OpenMP BLAS3 based DFT computing Module                
 Release: version 1.0, May 2013, Q-Chem Inc. Pittsburgh 
 -------------------------------------------------------
 ---------------------------------------
  Cycle       Energy         DIIS Error
 ---------------------------------------
    1    -646.6537157681      3.28E-04
    2    -646.9529405592      3.38E-04
    3    -646.9580425698      1.58E-04
    4    -646.9588826326      1.18E-04
    5    -646.9594002189      9.09E-05
    6    -646.9596663066      7.38E-05
    7    -646.9598617607      5.83E-05
    8    -646.9599962026      4.47E-05
    9    -646.9600840577      3.29E-05
   10    -646.9601266796      2.52E-05
   11    -646.9601551144      1.84E-05
   12    -646.9601689075      1.39E-05
   13    -646.9601767227      1.06E-05
   14    -646.9601810628      8.14E-06
   15    -646.9601831009      6.70E-06
   16    -646.9601844371      5.55E-06
   17    -646.9601873763      5.47E-09 Convergence criterion met
 ---------------------------------------

************** Final PCM Free Energy Summary **************
 G_electrostatic  =      -0.30647363 hartree =    -192.31510537 kcal/mol
 G_cavitation     =       0.00000000 hartree =       0.00000000 kcal/mol
 G_dispersion     =       0.00000000 hartree =       0.00000000 kcal/mol
 G_repulsion      =       0.00000000 hartree =       0.00000000 kcal/mol
 --------------------------------------------------
 Non-electrostatic Free Energy =       0.00000000 hartree =       0.00000000 kcal/mol
 Total                         =      -0.30647363 hartree =    -192.31510537 kcal/mol
 --------------------------------------------------
 SCF Energy (H0 + V/2)                       =    -646.96018738 
 Solute Internal Energy (H0)                 =    -646.65371375 
 Total Free Energy (H0 + V/2 + non-elec)     =    -646.96018738 hartree
                                             = -405973.64493858 kcal/mol
***********************************************************

 SCF time:  CPU 5562.49 s  wall 390.75 s
 SCF   energy in the final basis set = -646.96018738
 Total energy in the final basis set = -646.96018738
 
 --------------------------------------------------------------
 
                    Orbital Energies (a.u.)
 --------------------------------------------------------------
 
 Alpha MOs
 -- Occupied --
-19.219 -19.199 -19.182 -19.160 -19.140 -19.137 -10.391 -10.340
-10.292 -10.246 -10.241  -1.222  -1.143  -1.136  -1.100  -1.048
 -0.939  -0.874  -0.836  -0.749  -0.669  -0.630  -0.608  -0.603
 -0.581  -0.548  -0.537  -0.520  -0.511  -0.494  -0.485  -0.479
 -0.473  -0.450  -0.441  -0.421  -0.409  -0.393  -0.370  -0.346
 -0.335  -0.330  -0.325  -0.289
 -- Virtual --
  0.060   0.074   0.076   0.082   0.099   0.101   0.111   0.113
  0.120   0.130   0.133   0.141   0.147   0.151   0.159   0.168
  0.173   0.176   0.183   0.185   0.187   0.193   0.197   0.217
  0.223   0.226   0.236   0.244   0.248   0.255   0.259   0.262
  0.270   0.273   0.277   0.287   0.290   0.292   0.303   0.307
  0.319   0.322   0.328   0.337   0.342   0.344   0.349   0.354
  0.357   0.360   0.368   0.373   0.375   0.382   0.386   0.393
  0.398   0.400   0.405   0.408   0.414   0.419   0.424   0.427
  0.435   0.440   0.446   0.453   0.457   0.461   0.468   0.472
  0.474   0.486   0.494   0.498   0.499   0.503   0.510   0.515
  0.525   0.526   0.529   0.536   0.539   0.541   0.553   0.555
  0.565   0.567   0.574   0.583   0.591   0.596   0.598   0.604
  0.610   0.614   0.633   0.634   0.644   0.648   0.657   0.668
  0.669   0.678   0.679   0.685   0.695   0.703   0.716   0.719
  0.726   0.735   0.741   0.743   0.753   0.765   0.768   0.775
  0.782   0.786   0.793   0.803   0.811   0.813   0.815   0.822
  0.830   0.837   0.838   0.846   0.851   0.855   0.860   0.870
  0.883   0.892   0.896   0.897   0.899   0.907   0.912   0.924
  0.926   0.935   0.943   0.955   0.968   0.981   1.005   1.017
  1.026   1.035   1.039   1.046   1.056   1.068   1.087   1.102
  1.117   1.126   1.135   1.141   1.146   1.156   1.169   1.183
  1.194   1.205   1.218   1.247   1.249   1.258   1.264   1.287
  1.293   1.308   1.323   1.331   1.347   1.364   1.370   1.373
  1.388   1.393   1.421   1.438   1.441   1.449   1.467   1.485
  1.489   1.498   1.527   1.543   1.566   1.577   1.595   1.617
  1.641   1.660   1.706   1.746   1.770   1.810   1.822   1.855
  1.863   1.893   1.913   1.923   1.934   1.942   1.957   1.963
  1.972   1.983   1.986   2.002   2.009   2.031   2.037   2.046
  2.057   2.064   2.075   2.105   2.121   2.152   2.162   2.179
  2.206   2.216   2.231   2.238   2.256   2.273   2.290   2.299
  2.306   2.332   2.343   2.362   2.379   2.385   2.394   2.419
  2.430   2.464   2.483   2.485   2.494   2.518   2.553   2.554
  2.584   2.609   2.629   2.636   2.652   2.665   2.690   2.693
  2.706   2.715   2.737   2.757   2.777   2.797   2.835   2.837
  2.868   2.878   2.901   2.926   2.950   2.954   2.980   2.982
  3.010   3.032   3.039   3.066   3.084   3.092   3.127   3.138
  3.156   3.198   3.217   3.235   3.258   3.271   3.282   3.300
  3.324   3.327   3.346   3.351   3.373   3.399   3.419   3.422
  3.428   3.449   3.473   3.478   3.485   3.495   3.507   3.535
  3.551   3.569   3.581   3.590   3.601   3.628   3.640   3.653
  3.669   3.678   3.693   3.712   3.720   3.737   3.740   3.755
  3.781   3.786   3.805   3.822   3.838   3.858   3.866   3.906
  3.923   3.953   3.958   3.982   4.021   4.109   4.131   4.171
  4.179   4.209   4.215   4.235   4.258   4.273   4.340   4.386
  4.415   4.500   4.617   4.625   4.647   4.671   4.690   4.755
  4.806   4.828   4.838   4.877   4.961   4.966   4.997   5.032
  5.065   5.142   5.165   5.211   5.277   5.304   5.322   5.325
  5.347   5.364   5.377   5.379   5.476   5.504   5.510   5.557
  5.565   5.591   5.649   5.673   5.715   5.720   5.744   5.757
  5.777   5.855   5.953   5.986   6.043   6.100   6.140   6.167
  6.246   6.279   6.307   6.337   6.348   6.359   6.417   6.448
  6.528   6.621   6.633   6.639   6.673   6.701   6.720   6.754
  6.775   6.822   6.834   6.857   6.867   6.956   6.970   7.010
  7.046   7.057   7.083   7.133   7.195   7.231   7.248   7.253
  7.346   7.366   7.396   7.405   7.411   7.521   7.620   7.654
  7.732   8.313  22.684  22.874  22.960  23.128  23.727  44.268
 44.286  44.419  44.529  44.691  44.752
 --------------------------------------------------------------
 
          Ground-State Mulliken Net Atomic Charges

     Atom                 Charge (a.u.)
  ----------------------------------------
      1 C                    -1.196510
      2 H                     0.237549
      3 H                     0.253410
      4 H                     0.252249
      5 C                     0.637366
      6 C                    -0.039996
      7 H                     0.273460
      8 H                     0.120529
      9 C                    -0.099151
     10 H                     0.122333
     11 H                     0.259360
     12 C                     0.078224
     13 O                    -0.218252
     14 O                    -0.571696
     15 H                     0.412092
     16 O                    -0.347411
     17 O                    -0.716260
     18 O                    -0.695610
     19 O                    -0.761686
  ----------------------------------------
  Sum of atomic charges =    -2.000000

 -----------------------------------------------------------------
                    Cartesian Multipole Moments
 -----------------------------------------------------------------
    Charge (ESU x 10^10)
                -9.6064
    Dipole Moment (Debye)
         X     -12.2586      Y       5.0157      Z     -10.9012
       Tot      17.1542
    Quadrupole Moments (Debye-Ang)
        XX    -148.2721     XY      -0.3336     YY     -83.4624
        XZ     -19.1211     YZ       1.0546     ZZ     -94.1284
    Octopole Moments (Debye-Ang^2)
       XXX    -340.4156    XXY      36.3383    XYY     -47.9800
       YYY      42.6184    XXZ    -131.3121    XYZ      -3.9109
       YYZ     -27.5900    XZZ     -46.4678    YZZ      14.8998
       ZZZ     -98.2663
    Hexadecapole Moments (Debye-Ang^3)
      XXXX   -3210.4383   XXXY      31.6448   XXYY    -536.2302
      XYYY      34.4377   YYYY    -372.1748   XXXZ    -628.9783
      XXYZ     -13.9070   XYYZ    -115.6898   YYYZ      28.4928
      XXZZ    -619.6153   XYZZ     -24.7262   YYZZ    -173.6835
      XZZZ    -275.6268   YZZZ      42.4062   ZZZZ    -617.6700
 -----------------------------------------------------------------
 Calculating analytic gradient of the SCF energy
 Gradient of SCF Energy
            1           2           3           4           5           6
    1  -0.1016849  -0.0161810  -0.0028350   0.0687062   0.1691030   0.0118966
    2   0.0446408  -0.0706658   0.0138353   0.0173746  -0.0225284  -0.0895396
    3  -0.0182950  -0.0145041   0.0688455  -0.0263979   0.0498742  -0.0452461
            7           8           9          10          11          12
    1  -0.0291205   0.0316884  -0.0736423   0.0622551  -0.0042650   0.0419250
    2   0.0132807   0.0727747   0.0671790  -0.0012535  -0.0413853  -0.0364548
    3   0.0436121  -0.0183621   0.0449745  -0.0589674   0.0155971   0.0158914
           13          14          15          16          17          18
    1  -0.0371669  -0.0267153  -0.0205416  -0.0087806  -0.0446753  -0.0179615
    2   0.0524185  -0.0057563   0.0221431  -0.0109901  -0.0295000   0.0574945
    3  -0.0342625   0.0092134  -0.0574485  -0.0008157  -0.0284910   0.0131263
           19
    1  -0.0020045
    2  -0.0530673
    3   0.0416560
 Max gradient component =       1.691E-01
 RMS gradient           =       4.727E-02
 Computing fast CPCM-ISWIG gradient
 Updating gradient with PCM contributions...
 -- total gradient after adding PCM contribution --
---------------------------------------------------
  Atom         X              Y              Z     
---------------------------------------------------
   1       0.000061      -0.000031      -0.000048
   2      -0.000027       0.000006       0.000009
   3       0.000054       0.000080      -0.000006
   4       0.000014      -0.000017       0.000005
   5      -0.000705      -0.000260       0.000769
   6      -0.000294      -0.000027      -0.000098
   7       0.000036       0.000096       0.000013
   8      -0.000004      -0.000042      -0.000068
   9       0.000534      -0.000217       0.000457
  10      -0.000103       0.000098      -0.000078
  11      -0.000134       0.000053      -0.000027
  12      -0.000174       0.000222      -0.000162
  13      -0.000024      -0.000017      -0.000347
  14       0.000157       0.000169       0.000238
  15       0.000002       0.000073      -0.000342
  16       0.000556      -0.000011      -0.000438
  17      -0.000013      -0.000032       0.000055
  18       0.000013      -0.000134       0.000010
  19       0.000051      -0.000008       0.000057
---------------------------------------------------
 Number of fixed atoms: 0
 Gradient time:  CPU 1150.07 s  wall 82.79 s
 ######################################################
 ######################################################
 # Starting finite difference calculation for IDERIV  #
 Finite diff step size:  1.88973e-03 a.u.
 ----------------------------------------------------------------
             Standard Nuclear Orientation (Angstroms)
    I     Atom           X                Y                Z
 ----------------------------------------------------------------
    1      C      -2.4827265555     0.8054852987    -1.0604535157
    2      H      -2.2801762877     1.8631095557    -0.8742098689
    3      H      -2.4721150455     0.6271006480    -2.1383295708
    4      H      -3.4671246218     0.5509517618    -0.6608650417
    5      C      -1.4311915867    -0.0514711853    -0.3844243750
    6      C       0.9758328443    -0.3584447587    -0.5274814187
    7      H       1.6156172305    -0.5123248548    -1.4030372013
    8      H       0.7222389045    -1.3396745659    -0.1229637029
    9      C       1.7080332788     0.4836117059     0.5067836064
   10      H       1.0636870084     0.6141501741     1.3822192994
   11      H       1.9015923064     1.4828402648     0.1018295325
   12      C       3.0358153603    -0.1131952223     0.9888107283
   13      O      -1.4200938598     0.2842689880     1.0038563700
   14      O      -1.6886391334    -1.4004292031    -0.4800362333
   15      H      -1.4958638000    -1.6397351099     0.5070298653
   16      O      -0.2016938117     0.2959803658    -1.0090940223
   17      O       3.8098549380     0.6653212626     1.6087688582
   18      O       3.2586500285    -1.3304760831     0.7571336023
   19      O      -1.1506088799    -0.9114025902     1.7804775412
 ----------------------------------------------------------------
 Nuclear Repulsion Energy =   659.4102844423 hartrees
 There are       44 alpha and       44 beta electrons
 Discretize the solute cavity surface with Lebedev spheres
	Using 110 Lebedev grid points for each H atom
	Using 110 Lebedev grid points for other atoms
	Atomic van der Waals radii will be scaled by 1.20
 Remove points where switching function is < 1.0e-08
 Keep 1088 surface tesserae and discard 1002 interior tesserae
 Molecular Surface Area = 194.984 Angst**2
 Requested basis set is def2-TZVPD
 There are 189 shells and 497 basis functions
 A cutoff of  1.0D-14 yielded  16228 shell pairs
 There are    112650 function pairs (    143689 Cartesian)
 Smallest overlap matrix eigenvalue = 3.40E-06
 Guess MOs from SCF MO coefficient file
 Reading MOs from coefficient file
 Reading MOs from coefficient file
 Long-range K will be added via erf
 Coulomb attenuation parameter = 0.3 bohr**(-1)
 A restricted hybrid HF-DFT SCF calculation will be
 performed using Pulay DIIS extrapolation
 Polarizable Continuum solvation model will be applied
 Exchange:     0.1670 Hartree-Fock + 1.0000 wB97X-V + LR-HF
 Correlation:  1.0000 wB97X-V
 Using SG-2 standard quadrature grid
 Nonlocal Correlation:  VV10 with C = 0.0100 and b = 6.00
 Grid used for NLC:  SG-1 standard quadrature
 SCF converges when DIIS error is below 1.0E-08
Using Q-Chem read-in guess as SCF_GUESS READ specified.

 using 16 threads for integral computing
 -------------------------------------------------------
 OpenMP Integral computing Module                
 Release: version 1.0, May 2013, Q-Chem Inc. Pittsburgh 
 -------------------------------------------------------
 using 16 threads for integral computing
 -------------------------------------------------------
 OpenMP Integral computing Module                
 Release: version 1.0, May 2013, Q-Chem Inc. Pittsburgh 
 -------------------------------------------------------
 -------------------------------------------------------
 OpenMP BLAS3 based DFT computing Module                
 Release: version 1.0, May 2013, Q-Chem Inc. Pittsburgh 
 -------------------------------------------------------
 -------------------------------------------------------
 OpenMP BLAS3 based DFT computing Module                
 Release: version 1.0, May 2013, Q-Chem Inc. Pittsburgh 
 -------------------------------------------------------
 -------------------------------------------------------
 OpenMP BLAS3 based DFT computing Module                
 Release: version 1.0, May 2013, Q-Chem Inc. Pittsburgh 
 -------------------------------------------------------
 ---------------------------------------
  Cycle       Energy         DIIS Error
 ---------------------------------------
    1    -646.6534125453      3.29E-04
    2    -646.9529339379      3.38E-04
    3    -646.9580414351      1.58E-04
    4    -646.9588828144      1.18E-04
    5    -646.9594053517      9.05E-05
    6    -646.9596811880      7.27E-05
    7    -646.9599018815      5.45E-05
    8    -646.9600650877      3.56E-05
    9    -646.9601586738      1.70E-05
   10    -646.9601826600      6.16E-06
   11    -646.9601860794      1.40E-06
   12    -646.9601862551      3.09E-07
   13    -646.9601862639      2.64E-08
   14    -646.9601862639      2.30E-08
   15    -646.9601862639      1.24E-08
   16    -646.9601862639      3.40E-09 Convergence criterion met
 ---------------------------------------

************** Final PCM Free Energy Summary **************
 G_electrostatic  =      -0.30647813 hartree =    -192.31792976 kcal/mol
 G_cavitation     =       0.00000000 hartree =       0.00000000 kcal/mol
 G_dispersion     =       0.00000000 hartree =       0.00000000 kcal/mol
 G_repulsion      =       0.00000000 hartree =       0.00000000 kcal/mol
 --------------------------------------------------
 Non-electrostatic Free Energy =       0.00000000 hartree =       0.00000000 kcal/mol
 Total                         =      -0.30647813 hartree =    -192.31792976 kcal/mol
 --------------------------------------------------
 SCF Energy (H0 + V/2)                       =    -646.96018626 
 Solute Internal Energy (H0)                 =    -646.65370813 
 Total Free Energy (H0 + V/2 + non-elec)     =    -646.96018626 hartree
                                             = -405973.64424054 kcal/mol
***********************************************************

 SCF time:  CPU 5251.01 s  wall 368.68 s
 SCF   energy in the final basis set = -646.96018626
 Total energy in the final basis set = -646.96018626
 
 --------------------------------------------------------------
 
                    Orbital Energies (a.u.)
 --------------------------------------------------------------
 
 Alpha MOs
 -- Occupied --
-19.219 -19.199 -19.182 -19.160 -19.140 -19.137 -10.391 -10.340
-10.292 -10.246 -10.241  -1.222  -1.143  -1.136  -1.100  -1.048
 -0.939  -0.874  -0.836  -0.749  -0.669  -0.630  -0.608  -0.603
 -0.581  -0.548  -0.537  -0.520  -0.511  -0.494  -0.485  -0.479
 -0.473  -0.450  -0.441  -0.421  -0.409  -0.393  -0.370  -0.346
 -0.335  -0.330  -0.325  -0.289
 -- Virtual --
  0.060   0.074   0.076   0.082   0.099   0.101   0.111   0.113
  0.120   0.130   0.133   0.141   0.147   0.151   0.159   0.168
  0.173   0.176   0.183   0.185   0.187   0.193   0.197   0.217
  0.223   0.226   0.236   0.244   0.248   0.255   0.259   0.262
  0.270   0.273   0.277   0.287   0.290   0.292   0.303   0.307
  0.318   0.322   0.328   0.337   0.342   0.344   0.349   0.354
  0.357   0.360   0.368   0.373   0.375   0.382   0.386   0.393
  0.398   0.400   0.405   0.408   0.414   0.419   0.424   0.427
  0.435   0.440   0.446   0.453   0.457   0.461   0.468   0.472
  0.474   0.486   0.494   0.498   0.499   0.503   0.510   0.515
  0.525   0.526   0.529   0.536   0.539   0.541   0.553   0.555
  0.565   0.567   0.574   0.583   0.591   0.596   0.598   0.604
  0.610   0.614   0.633   0.634   0.644   0.648   0.657   0.668
  0.669   0.678   0.679   0.685   0.695   0.703   0.716   0.719
  0.726   0.736   0.741   0.743   0.753   0.765   0.768   0.775
  0.782   0.786   0.793   0.803   0.811   0.813   0.815   0.822
  0.830   0.837   0.838   0.846   0.851   0.855   0.860   0.870
  0.883   0.892   0.896   0.897   0.899   0.907   0.911   0.924
  0.926   0.935   0.943   0.955   0.968   0.981   1.005   1.017
  1.026   1.035   1.039   1.046   1.056   1.068   1.087   1.102
  1.117   1.126   1.135   1.141   1.146   1.156   1.169   1.183
  1.194   1.205   1.218   1.247   1.249   1.258   1.264   1.287
  1.293   1.308   1.323   1.331   1.347   1.364   1.370   1.373
  1.388   1.393   1.421   1.439   1.441   1.449   1.467   1.485
  1.489   1.498   1.527   1.543   1.566   1.577   1.595   1.617
  1.641   1.660   1.706   1.746   1.770   1.810   1.822   1.855
  1.863   1.893   1.913   1.923   1.934   1.942   1.957   1.963
  1.972   1.983   1.986   2.002   2.009   2.031   2.037   2.046
  2.057   2.064   2.075   2.105   2.121   2.152   2.162   2.179
  2.206   2.216   2.231   2.238   2.256   2.273   2.290   2.299
  2.306   2.332   2.343   2.362   2.379   2.385   2.394   2.419
  2.430   2.464   2.483   2.485   2.494   2.518   2.553   2.554
  2.584   2.609   2.629   2.636   2.652   2.665   2.690   2.693
  2.706   2.715   2.737   2.757   2.777   2.797   2.835   2.837
  2.868   2.878   2.901   2.926   2.950   2.954   2.980   2.982
  3.010   3.032   3.039   3.066   3.084   3.092   3.127   3.138
  3.156   3.198   3.217   3.235   3.258   3.271   3.282   3.299
  3.324   3.327   3.345   3.351   3.373   3.399   3.419   3.422
  3.428   3.449   3.473   3.478   3.485   3.495   3.507   3.535
  3.551   3.569   3.581   3.590   3.601   3.628   3.640   3.653
  3.669   3.678   3.693   3.712   3.720   3.737   3.741   3.755
  3.781   3.786   3.805   3.822   3.838   3.858   3.866   3.906
  3.923   3.954   3.958   3.982   4.022   4.109   4.131   4.171
  4.179   4.209   4.215   4.236   4.258   4.273   4.340   4.386
  4.415   4.500   4.617   4.626   4.647   4.671   4.690   4.755
  4.806   4.828   4.838   4.877   4.961   4.965   4.997   5.032
  5.065   5.142   5.165   5.211   5.277   5.304   5.322   5.325
  5.347   5.364   5.377   5.379   5.476   5.504   5.510   5.557
  5.565   5.591   5.649   5.673   5.715   5.720   5.744   5.757
  5.777   5.856   5.953   5.986   6.043   6.100   6.140   6.167
  6.246   6.279   6.307   6.337   6.348   6.359   6.418   6.448
  6.528   6.621   6.633   6.639   6.673   6.701   6.720   6.754
  6.775   6.822   6.834   6.857   6.867   6.956   6.970   7.010
  7.046   7.057   7.083   7.133   7.195   7.231   7.248   7.253
  7.346   7.366   7.396   7.405   7.411   7.521   7.620   7.654
  7.732   8.313  22.684  22.874  22.960  23.128  23.727  44.268
 44.286  44.419  44.529  44.691  44.753
 --------------------------------------------------------------
 
          Ground-State Mulliken Net Atomic Charges

     Atom                 Charge (a.u.)
  ----------------------------------------
      1 C                    -1.197213
      2 H                     0.237703
      3 H                     0.253507
      4 H                     0.251978
      5 C                     0.638245
      6 C                    -0.040153
      7 H                     0.273442
      8 H                     0.120505
      9 C                    -0.099130
     10 H                     0.122361
     11 H                     0.259379
     12 C                     0.078193
     13 O                    -0.218260
     14 O                    -0.571725
     15 H                     0.412085
     16 O                    -0.347343
     17 O                    -0.716261
     18 O                    -0.695611
     19 O                    -0.761702
  ----------------------------------------
  Sum of atomic charges =    -2.000000

 -----------------------------------------------------------------
                    Cartesian Multipole Moments
 -----------------------------------------------------------------
    Charge (ESU x 10^10)
                -9.6064
    Dipole Moment (Debye)
         X     -12.2591      Y       5.0164      Z     -10.9016
       Tot      17.1551
    Quadrupole Moments (Debye-Ang)
        XX    -148.2740     XY      -0.3363     YY     -83.4602
        XZ     -19.1182     YZ       1.0534     ZZ     -94.1270
    Octopole Moments (Debye-Ang^2)
       XXX    -340.4208    XXY      36.3475    XYY     -47.9923
       YYY      42.6230    XXZ    -131.3223    XYZ      -3.9064
       YYZ     -27.5923    XZZ     -46.4798    YZZ      14.9014
       ZZZ     -98.2688
    Hexadecapole Moments (Debye-Ang^3)
      XXXX   -3210.3767   XXXY      31.6068   XXYY    -536.1871
      XYYY      34.4090   YYYY    -372.1567   XXXZ    -628.9333
      XXYZ     -13.9235   XYYZ    -115.6759   YYYZ      28.4866
      XXZZ    -619.5709   XYZZ     -24.7377   YYZZ    -173.6786
      XZZZ    -275.5955   YZZZ      42.4012   ZZZZ    -617.6589
 -----------------------------------------------------------------
 Calculating analytic gradient of the SCF energy
 Gradient of SCF Energy
            1           2           3           4           5           6
    1  -0.1009542  -0.0162269  -0.0028440   0.0681646   0.1690354   0.0118965
    2   0.0447050  -0.0707956   0.0138299   0.0172537  -0.0223594  -0.0895539
    3  -0.0183428  -0.0145178   0.0688739  -0.0262016   0.0497473  -0.0452566
            7           8           9          10          11          12
    1  -0.0291252   0.0316842  -0.0736474   0.0622566  -0.0042596   0.0419218
    2   0.0132851   0.0727721   0.0671805  -0.0012556  -0.0413847  -0.0364511
    3   0.0436130  -0.0183595   0.0449741  -0.0589641   0.0155991   0.0158880
           13          14          15          16          17          18
    1  -0.0371756  -0.0267063  -0.0205460  -0.0088347  -0.0446761  -0.0179616
    2   0.0524105  -0.0057377   0.0221592  -0.0109832  -0.0295000   0.0574956
    3  -0.0342785   0.0092199  -0.0574575  -0.0008220  -0.0284911   0.0131263
           19
    1  -0.0020015
    2  -0.0530704
    3   0.0416497
 Max gradient component =       1.690E-01
 RMS gradient           =       4.722E-02
 Computing fast CPCM-ISWIG gradient
 Updating gradient with PCM contributions...
 -- total gradient after adding PCM contribution --
---------------------------------------------------
  Atom         X              Y              Z     
---------------------------------------------------
   1       0.001116       0.000041      -0.000108
   2      -0.000137      -0.000084      -0.000010
   3      -0.000037       0.000082      -0.000003
   4      -0.000492      -0.000132       0.000182
   5      -0.000969      -0.000154       0.000682
   6      -0.000295      -0.000032      -0.000092
   7       0.000033       0.000097       0.000013
   8      -0.000004      -0.000042      -0.000068
   9       0.000533      -0.000215       0.000458
  10      -0.000103       0.000098      -0.000078
  11      -0.000134       0.000052      -0.000027
  12      -0.000173       0.000221      -0.000161
  13      -0.000024      -0.000013      -0.000357
  14       0.000171       0.000161       0.000244
  15       0.000002       0.000071      -0.000342
  16       0.000460       0.000026      -0.000456
  17      -0.000014      -0.000032       0.000054
  18       0.000013      -0.000134       0.000010
  19       0.000054      -0.000011       0.000061
---------------------------------------------------
 Number of fixed atoms: 0
 Gradient time:  CPU 1161.72 s  wall 82.97 s
 ----------------------------------------------------------------
             Standard Nuclear Orientation (Angstroms)
    I     Atom           X                Y                Z
 ----------------------------------------------------------------
    1      C      -2.4847265555     0.8054852987    -1.0604535157
    2      H      -2.2801762877     1.8631095557    -0.8742098689
    3      H      -2.4721150455     0.6271006480    -2.1383295708
    4      H      -3.4671246218     0.5509517618    -0.6608650417
    5      C      -1.4311915867    -0.0514711853    -0.3844243750
    6      C       0.9758328443    -0.3584447587    -0.5274814187
    7      H       1.6156172305    -0.5123248548    -1.4030372013
    8      H       0.7222389045    -1.3396745659    -0.1229637029
    9      C       1.7080332788     0.4836117059     0.5067836064
   10      H       1.0636870084     0.6141501741     1.3822192994
   11      H       1.9015923064     1.4828402648     0.1018295325
   12      C       3.0358153603    -0.1131952223     0.9888107283
   13      O      -1.4200938598     0.2842689880     1.0038563700
   14      O      -1.6886391334    -1.4004292031    -0.4800362333
   15      H      -1.4958638000    -1.6397351099     0.5070298653
   16      O      -0.2016938117     0.2959803658    -1.0090940223
   17      O       3.8098549380     0.6653212626     1.6087688582
   18      O       3.2586500285    -1.3304760831     0.7571336023
   19      O      -1.1506088799    -0.9114025902     1.7804775412
 ----------------------------------------------------------------
 Nuclear Repulsion Energy =   659.3761801242 hartrees
 There are       44 alpha and       44 beta electrons
 Discretize the solute cavity surface with Lebedev spheres
	Using 110 Lebedev grid points for each H atom
	Using 110 Lebedev grid points for other atoms
	Atomic van der Waals radii will be scaled by 1.20
 Remove points where switching function is < 1.0e-08
 Keep 1088 surface tesserae and discard 1002 interior tesserae
 Molecular Surface Area = 194.995 Angst**2
 Requested basis set is def2-TZVPD
 There are 189 shells and 497 basis functions
 A cutoff of  1.0D-14 yielded  16228 shell pairs
 There are    112650 function pairs (    143689 Cartesian)
 Smallest overlap matrix eigenvalue = 3.40E-06
 Guess MOs from SCF MO coefficient file
 Reading MOs from coefficient file
 Reading MOs from coefficient file
 Long-range K will be added via erf
 Coulomb attenuation parameter = 0.3 bohr**(-1)
 A restricted hybrid HF-DFT SCF calculation will be
 performed using Pulay DIIS extrapolation
 Polarizable Continuum solvation model will be applied
 Exchange:     0.1670 Hartree-Fock + 1.0000 wB97X-V + LR-HF
 Correlation:  1.0000 wB97X-V
 Using SG-2 standard quadrature grid
 Nonlocal Correlation:  VV10 with C = 0.0100 and b = 6.00
 Grid used for NLC:  SG-1 standard quadrature
 SCF converges when DIIS error is below 1.0E-08
Using Q-Chem read-in guess as SCF_GUESS READ specified.

 using 16 threads for integral computing
 -------------------------------------------------------
 OpenMP Integral computing Module                
 Release: version 1.0, May 2013, Q-Chem Inc. Pittsburgh 
 -------------------------------------------------------
 using 16 threads for integral computing
 -------------------------------------------------------
 OpenMP Integral computing Module                
 Release: version 1.0, May 2013, Q-Chem Inc. Pittsburgh 
 -------------------------------------------------------
 -------------------------------------------------------
 OpenMP BLAS3 based DFT computing Module                
 Release: version 1.0, May 2013, Q-Chem Inc. Pittsburgh 
 -------------------------------------------------------
 -------------------------------------------------------
 OpenMP BLAS3 based DFT computing Module                
 Release: version 1.0, May 2013, Q-Chem Inc. Pittsburgh 
 -------------------------------------------------------
 -------------------------------------------------------
 OpenMP BLAS3 based DFT computing Module                
 Release: version 1.0, May 2013, Q-Chem Inc. Pittsburgh 
 -------------------------------------------------------
 ---------------------------------------
  Cycle       Energy         DIIS Error
 ---------------------------------------
    1    -646.6543126929      3.28E-04
    2    -646.9529494575      3.38E-04
    3    -646.9580473658      1.58E-04
    4    -646.9588882596      1.17E-04
    5    -646.9594163701      8.99E-05
    6    -646.9597155275      7.01E-05
    7    -646.9599854842      4.58E-05
    8    -646.9601417316      2.16E-05
    9    -646.9601829619      6.07E-06
   10    -646.9601863144      1.39E-06
   11    -646.9601864898      2.05E-07
   12    -646.9601864934      6.37E-08
   13    -646.9601864936      2.25E-08
   14    -646.9601864937      1.14E-08
   15    -646.9601864937      3.43E-09 Convergence criterion met
 ---------------------------------------

************** Final PCM Free Energy Summary **************
 G_electrostatic  =      -0.30646908 hartree =    -192.31225010 kcal/mol
 G_cavitation     =       0.00000000 hartree =       0.00000000 kcal/mol
 G_dispersion     =       0.00000000 hartree =       0.00000000 kcal/mol
 G_repulsion      =       0.00000000 hartree =       0.00000000 kcal/mol
 --------------------------------------------------
 Non-electrostatic Free Energy =       0.00000000 hartree =       0.00000000 kcal/mol
 Total                         =      -0.30646908 hartree =    -192.31225010 kcal/mol
 --------------------------------------------------
 SCF Energy (H0 + V/2)                       =    -646.96018649 
 Solute Internal Energy (H0)                 =    -646.65371741 
 Total Free Energy (H0 + V/2 + non-elec)     =    -646.96018649 hartree
                                             = -405973.64438472 kcal/mol
***********************************************************

 SCF time:  CPU 4903.95 s  wall 343.98 s
 SCF   energy in the final basis set = -646.96018649
 Total energy in the final basis set = -646.96018649
 
 --------------------------------------------------------------
 
                    Orbital Energies (a.u.)
 --------------------------------------------------------------
 
 Alpha MOs
 -- Occupied --
-19.219 -19.199 -19.182 -19.160 -19.140 -19.137 -10.391 -10.340
-10.292 -10.246 -10.241  -1.222  -1.143  -1.136  -1.100  -1.048
 -0.939  -0.874  -0.836  -0.749  -0.669  -0.630  -0.608  -0.603
 -0.581  -0.548  -0.537  -0.520  -0.511  -0.494  -0.485  -0.479
 -0.473  -0.450  -0.440  -0.421  -0.409  -0.393  -0.370  -0.346
 -0.335  -0.330  -0.325  -0.289
 -- Virtual --
  0.060   0.074   0.076   0.082   0.099   0.101   0.111   0.113
  0.120   0.130   0.133   0.141   0.147   0.151   0.159   0.168
  0.173   0.176   0.183   0.185   0.187   0.193   0.197   0.217
  0.223   0.226   0.236   0.244   0.248   0.255   0.259   0.262
  0.270   0.273   0.277   0.287   0.290   0.292   0.303   0.307
  0.319   0.322   0.328   0.337   0.342   0.344   0.349   0.354
  0.357   0.360   0.368   0.373   0.375   0.382   0.386   0.393
  0.398   0.400   0.405   0.408   0.414   0.419   0.424   0.427
  0.435   0.440   0.446   0.453   0.457   0.461   0.468   0.472
  0.474   0.486   0.494   0.498   0.499   0.503   0.510   0.515
  0.525   0.526   0.529   0.536   0.539   0.541   0.553   0.555
  0.565   0.567   0.574   0.583   0.591   0.596   0.598   0.604
  0.610   0.614   0.633   0.634   0.644   0.648   0.657   0.668
  0.669   0.678   0.679   0.684   0.695   0.703   0.716   0.719
  0.726   0.735   0.741   0.743   0.753   0.765   0.768   0.775
  0.782   0.786   0.793   0.803   0.811   0.813   0.815   0.822
  0.830   0.837   0.838   0.845   0.851   0.855   0.860   0.870
  0.883   0.892   0.896   0.897   0.899   0.907   0.912   0.924
  0.927   0.935   0.943   0.954   0.968   0.981   1.005   1.017
  1.026   1.035   1.039   1.046   1.056   1.068   1.087   1.102
  1.117   1.126   1.135   1.141   1.146   1.156   1.169   1.183
  1.194   1.205   1.218   1.247   1.249   1.258   1.264   1.287
  1.293   1.308   1.323   1.331   1.347   1.364   1.370   1.373
  1.388   1.393   1.421   1.438   1.441   1.449   1.467   1.485
  1.489   1.498   1.527   1.543   1.566   1.577   1.595   1.616
  1.641   1.660   1.706   1.746   1.770   1.810   1.822   1.855
  1.863   1.893   1.913   1.923   1.934   1.942   1.957   1.963
  1.972   1.983   1.986   2.002   2.009   2.031   2.037   2.046
  2.057   2.064   2.075   2.104   2.121   2.152   2.162   2.179
  2.206   2.216   2.231   2.238   2.256   2.273   2.290   2.299
  2.306   2.332   2.343   2.362   2.379   2.385   2.394   2.419
  2.430   2.464   2.483   2.485   2.494   2.518   2.552   2.554
  2.584   2.609   2.629   2.636   2.652   2.664   2.691   2.693
  2.706   2.715   2.737   2.757   2.777   2.797   2.835   2.837
  2.868   2.878   2.901   2.926   2.951   2.954   2.980   2.982
  3.010   3.032   3.039   3.066   3.084   3.092   3.127   3.138
  3.156   3.198   3.217   3.235   3.258   3.271   3.282   3.300
  3.324   3.327   3.346   3.350   3.373   3.399   3.419   3.422
  3.428   3.449   3.473   3.478   3.485   3.495   3.507   3.535
  3.551   3.569   3.581   3.590   3.601   3.628   3.640   3.653
  3.669   3.678   3.693   3.711   3.720   3.737   3.740   3.755
  3.781   3.786   3.805   3.822   3.838   3.858   3.866   3.906
  3.922   3.953   3.958   3.982   4.021   4.109   4.130   4.171
  4.179   4.209   4.214   4.235   4.258   4.273   4.340   4.386
  4.415   4.500   4.617   4.625   4.646   4.672   4.691   4.755
  4.806   4.828   4.838   4.877   4.960   4.966   4.997   5.031
  5.065   5.142   5.165   5.211   5.277   5.304   5.322   5.325
  5.347   5.364   5.377   5.379   5.476   5.504   5.510   5.557
  5.565   5.591   5.649   5.673   5.715   5.720   5.744   5.757
  5.777   5.855   5.953   5.986   6.043   6.100   6.139   6.167
  6.246   6.279   6.307   6.337   6.348   6.359   6.417   6.447
  6.528   6.621   6.633   6.639   6.673   6.701   6.720   6.754
  6.775   6.822   6.834   6.857   6.867   6.956   6.970   7.010
  7.046   7.057   7.083   7.133   7.195   7.230   7.248   7.253
  7.346   7.365   7.396   7.405   7.411   7.521   7.620   7.654
  7.732   8.313  22.684  22.874  22.960  23.127  23.727  44.268
 44.286  44.419  44.529  44.691  44.752
 --------------------------------------------------------------
 
          Ground-State Mulliken Net Atomic Charges

     Atom                 Charge (a.u.)
  ----------------------------------------
      1 C                    -1.195812
      2 H                     0.237396
      3 H                     0.253312
      4 H                     0.252522
      5 C                     0.636488
      6 C                    -0.039840
      7 H                     0.273479
      8 H                     0.120554
      9 C                    -0.099172
     10 H                     0.122306
     11 H                     0.259341
     12 C                     0.078255
     13 O                    -0.218244
     14 O                    -0.571667
     15 H                     0.412100
     16 O                    -0.347479
     17 O                    -0.716258
     18 O                    -0.695609
     19 O                    -0.761671
  ----------------------------------------
  Sum of atomic charges =    -2.000000

 -----------------------------------------------------------------
                    Cartesian Multipole Moments
 -----------------------------------------------------------------
    Charge (ESU x 10^10)
                -9.6064
    Dipole Moment (Debye)
         X     -12.2581      Y       5.0150      Z     -10.9007
       Tot      17.1533
    Quadrupole Moments (Debye-Ang)
        XX    -148.2703     XY      -0.3310     YY     -83.4647
        XZ     -19.1240     YZ       1.0559     ZZ     -94.1299
    Octopole Moments (Debye-Ang^2)
       XXX    -340.4103    XXY      36.3292    XYY     -47.9675
       YYY      42.6137    XXZ    -131.3018    XYZ      -3.9155
       YYZ     -27.5877    XZZ     -46.4558    YZZ      14.8983
       ZZZ     -98.2639
    Hexadecapole Moments (Debye-Ang^3)
      XXXX   -3210.5012   XXXY      31.6832   XXYY    -536.2735
      XYYY      34.4667   YYYY    -372.1929   XXXZ    -629.0235
      XXYZ     -13.8902   XYYZ    -115.7037   YYYZ      28.4992
      XXZZ    -619.6599   XYZZ     -24.7145   YYZZ    -173.6883
      XZZZ    -275.6581   YZZZ      42.4113   ZZZZ    -617.6813
 -----------------------------------------------------------------
 Calculating analytic gradient of the SCF energy
 Gradient of SCF Energy
            1           2           3           4           5           6
    1  -0.1024171  -0.0161349  -0.0028260   0.0692499   0.1691696   0.0118967
    2   0.0445748  -0.0705356   0.0138406   0.0174963  -0.0226966  -0.0895252
    3  -0.0182449  -0.0144903   0.0688163  -0.0265954   0.0500003  -0.0452354
            7           8           9          10          11          12
    1  -0.0291158   0.0316926  -0.0736371   0.0622536  -0.0042702   0.0419283
    2   0.0132763   0.0727771   0.0671774  -0.0012514  -0.0413858  -0.0364587
    3   0.0436111  -0.0183647   0.0449748  -0.0589707   0.0155951   0.0158948
           13          14          15          16          17          18
    1  -0.0371583  -0.0267239  -0.0205374  -0.0087264  -0.0446746  -0.0179615
    2   0.0524263  -0.0057751   0.0221271  -0.0109969  -0.0294998   0.0574935
    3  -0.0342463   0.0092068  -0.0574394  -0.0008094  -0.0284910   0.0131262
           19
    1  -0.0020074
    2  -0.0530641
    3   0.0416621
 Max gradient component =       1.692E-01
 RMS gradient           =       4.731E-02
 Computing fast CPCM-ISWIG gradient
 Updating gradient with PCM contributions...
 -- total gradient after adding PCM contribution --
---------------------------------------------------
  Atom         X              Y              Z     
---------------------------------------------------
   1      -0.000995      -0.000105       0.000015
   2       0.000082       0.000096       0.000028
   3       0.000144       0.000078      -0.000010
   4       0.000523       0.000099      -0.000173
   5      -0.000442      -0.000365       0.000855
   6      -0.000293      -0.000022      -0.000105
   7       0.000038       0.000095       0.000014
   8      -0.000004      -0.000043      -0.000068
   9       0.000536      -0.000218       0.000457
  10      -0.000103       0.000098      -0.000077
  11      -0.000134       0.000053      -0.000027
  12      -0.000175       0.000223      -0.000162
  13      -0.000023      -0.000022      -0.000336
  14       0.000144       0.000178       0.000233
  15       0.000001       0.000075      -0.000341
  16       0.000651      -0.000048      -0.000421
  17      -0.000012      -0.000031       0.000055
  18       0.000014      -0.000134       0.000010
  19       0.000048      -0.000005       0.000053
---------------------------------------------------
 Number of fixed atoms: 0
 Gradient time:  CPU 1162.97 s  wall 83.05 s
 ----------------------------------------------------------------
             Standard Nuclear Orientation (Angstroms)
    I     Atom           X                Y                Z
 ----------------------------------------------------------------
    1      C      -2.4837265555     0.8064852987    -1.0604535157
    2      H      -2.2801762877     1.8631095557    -0.8742098689
    3      H      -2.4721150455     0.6271006480    -2.1383295708
    4      H      -3.4671246218     0.5509517618    -0.6608650417
    5      C      -1.4311915867    -0.0514711853    -0.3844243750
    6      C       0.9758328443    -0.3584447587    -0.5274814187
    7      H       1.6156172305    -0.5123248548    -1.4030372013
    8      H       0.7222389045    -1.3396745659    -0.1229637029
    9      C       1.7080332788     0.4836117059     0.5067836064
   10      H       1.0636870084     0.6141501741     1.3822192994
   11      H       1.9015923064     1.4828402648     0.1018295325
   12      C       3.0358153603    -0.1131952223     0.9888107283
   13      O      -1.4200938598     0.2842689880     1.0038563700
   14      O      -1.6886391334    -1.4004292031    -0.4800362333
   15      H      -1.4958638000    -1.6397351099     0.5070298653
   16      O      -0.2016938117     0.2959803658    -1.0090940223
   17      O       3.8098549380     0.6653212626     1.6087688582
   18      O       3.2586500285    -1.3304760831     0.7571336023
   19      O      -1.1506088799    -0.9114025902     1.7804775412
 ----------------------------------------------------------------
 Nuclear Repulsion Energy =   659.3819147840 hartrees
 There are       44 alpha and       44 beta electrons
 Discretize the solute cavity surface with Lebedev spheres
	Using 110 Lebedev grid points for each H atom
	Using 110 Lebedev grid points for other atoms
	Atomic van der Waals radii will be scaled by 1.20
 Remove points where switching function is < 1.0e-08
 Keep 1087 surface tesserae and discard 1003 interior tesserae
 Molecular Surface Area = 194.997 Angst**2
 Requested basis set is def2-TZVPD
 There are 189 shells and 497 basis functions
 A cutoff of  1.0D-14 yielded  16228 shell pairs
 There are    112650 function pairs (    143689 Cartesian)
 Smallest overlap matrix eigenvalue = 3.40E-06
 Guess MOs from SCF MO coefficient file
 Reading MOs from coefficient file
 Reading MOs from coefficient file
 Long-range K will be added via erf
 Coulomb attenuation parameter = 0.3 bohr**(-1)
 A restricted hybrid HF-DFT SCF calculation will be
 performed using Pulay DIIS extrapolation
 Polarizable Continuum solvation model will be applied
 Exchange:     0.1670 Hartree-Fock + 1.0000 wB97X-V + LR-HF
 Correlation:  1.0000 wB97X-V
 Using SG-2 standard quadrature grid
 Nonlocal Correlation:  VV10 with C = 0.0100 and b = 6.00
 Grid used for NLC:  SG-1 standard quadrature
 SCF converges when DIIS error is below 1.0E-08
Using Q-Chem read-in guess as SCF_GUESS READ specified.

 using 16 threads for integral computing
 -------------------------------------------------------
 OpenMP Integral computing Module                
 Release: version 1.0, May 2013, Q-Chem Inc. Pittsburgh 
 -------------------------------------------------------
 using 16 threads for integral computing
 -------------------------------------------------------
 OpenMP Integral computing Module                
 Release: version 1.0, May 2013, Q-Chem Inc. Pittsburgh 
 -------------------------------------------------------
 -------------------------------------------------------
 OpenMP BLAS3 based DFT computing Module                
 Release: version 1.0, May 2013, Q-Chem Inc. Pittsburgh 
 -------------------------------------------------------
 -------------------------------------------------------
 OpenMP BLAS3 based DFT computing Module                
 Release: version 1.0, May 2013, Q-Chem Inc. Pittsburgh 
 -------------------------------------------------------
 -------------------------------------------------------
 OpenMP BLAS3 based DFT computing Module                
 Release: version 1.0, May 2013, Q-Chem Inc. Pittsburgh 
 -------------------------------------------------------
 ---------------------------------------
  Cycle       Energy         DIIS Error
 ---------------------------------------
    1    -646.6536662797      3.28E-04
    2    -646.9529408139      3.38E-04
    3    -646.9580436734      1.58E-04
    4    -646.9588844842      1.18E-04
    5    -646.9594081139      9.04E-05
    6    -646.9596893786      7.21E-05
    7    -646.9599241811      5.23E-05
    8    -646.9600930334      3.12E-05
    9    -646.9601715328      1.25E-05
   10    -646.9601851333      3.70E-06
   11    -646.9601863889      6.83E-07
   12    -646.9601864311      1.35E-07
   13    -646.9601864326      2.22E-08
   14    -646.9601864327      2.08E-08
   15    -646.9601864327      7.64E-09 Convergence criterion met
 ---------------------------------------

************** Final PCM Free Energy Summary **************
 G_electrostatic  =      -0.30647063 hartree =    -192.31322469 kcal/mol
 G_cavitation     =       0.00000000 hartree =       0.00000000 kcal/mol
 G_dispersion     =       0.00000000 hartree =       0.00000000 kcal/mol
 G_repulsion      =       0.00000000 hartree =       0.00000000 kcal/mol
 --------------------------------------------------
 Non-electrostatic Free Energy =       0.00000000 hartree =       0.00000000 kcal/mol
 Total                         =      -0.30647063 hartree =    -192.31322469 kcal/mol
 --------------------------------------------------
 SCF Energy (H0 + V/2)                       =    -646.96018643 
 Solute Internal Energy (H0)                 =    -646.65371580 
 Total Free Energy (H0 + V/2 + non-elec)     =    -646.96018643 hartree
                                             = -405973.64434644 kcal/mol
***********************************************************

 SCF time:  CPU 4932.97 s  wall 349.18 s
 SCF   energy in the final basis set = -646.96018643
 Total energy in the final basis set = -646.96018643
 
 --------------------------------------------------------------
 
                    Orbital Energies (a.u.)
 --------------------------------------------------------------
 
 Alpha MOs
 -- Occupied --
-19.219 -19.199 -19.182 -19.160 -19.140 -19.137 -10.391 -10.340
-10.292 -10.246 -10.241  -1.222  -1.143  -1.136  -1.100  -1.048
 -0.939  -0.874  -0.836  -0.749  -0.669  -0.630  -0.608  -0.603
 -0.581  -0.548  -0.537  -0.520  -0.511  -0.494  -0.485  -0.479
 -0.473  -0.450  -0.440  -0.421  -0.409  -0.393  -0.370  -0.346
 -0.335  -0.330  -0.325  -0.289
 -- Virtual --
  0.060   0.074   0.076   0.082   0.099   0.101   0.111   0.113
  0.120   0.130   0.133   0.141   0.147   0.151   0.159   0.168
  0.173   0.176   0.183   0.185   0.187   0.193   0.197   0.217
  0.223   0.226   0.236   0.244   0.248   0.255   0.259   0.262
  0.270   0.273   0.277   0.287   0.290   0.292   0.303   0.307
  0.319   0.322   0.328   0.337   0.342   0.344   0.349   0.354
  0.357   0.360   0.368   0.373   0.375   0.382   0.386   0.393
  0.398   0.400   0.405   0.408   0.414   0.419   0.424   0.427
  0.435   0.440   0.446   0.453   0.457   0.461   0.468   0.472
  0.474   0.486   0.494   0.498   0.499   0.503   0.510   0.515
  0.525   0.526   0.529   0.536   0.539   0.541   0.553   0.555
  0.565   0.567   0.574   0.583   0.591   0.596   0.598   0.604
  0.610   0.614   0.633   0.634   0.644   0.648   0.657   0.668
  0.669   0.678   0.679   0.684   0.695   0.703   0.716   0.719
  0.726   0.735   0.741   0.743   0.753   0.765   0.768   0.775
  0.782   0.786   0.793   0.803   0.811   0.813   0.815   0.822
  0.830   0.837   0.838   0.845   0.851   0.855   0.860   0.870
  0.883   0.892   0.896   0.897   0.899   0.907   0.911   0.924
  0.926   0.935   0.944   0.954   0.968   0.981   1.005   1.017
  1.026   1.035   1.039   1.046   1.056   1.068   1.087   1.102
  1.117   1.126   1.135   1.141   1.146   1.156   1.169   1.183
  1.194   1.205   1.218   1.247   1.249   1.258   1.264   1.287
  1.293   1.308   1.323   1.331   1.347   1.364   1.370   1.373
  1.388   1.393   1.421   1.438   1.441   1.449   1.467   1.485
  1.489   1.498   1.527   1.543   1.566   1.577   1.595   1.617
  1.641   1.660   1.706   1.746   1.770   1.810   1.822   1.855
  1.863   1.893   1.913   1.923   1.934   1.942   1.957   1.963
  1.972   1.983   1.986   2.002   2.009   2.031   2.037   2.046
  2.057   2.064   2.075   2.105   2.121   2.152   2.162   2.179
  2.206   2.216   2.231   2.238   2.256   2.273   2.290   2.299
  2.306   2.332   2.343   2.362   2.379   2.385   2.394   2.419
  2.430   2.464   2.483   2.485   2.494   2.518   2.552   2.554
  2.584   2.609   2.629   2.636   2.652   2.665   2.690   2.693
  2.706   2.715   2.737   2.757   2.777   2.797   2.835   2.837
  2.868   2.878   2.901   2.926   2.950   2.954   2.980   2.982
  3.010   3.032   3.039   3.066   3.084   3.092   3.127   3.138
  3.156   3.198   3.217   3.235   3.258   3.271   3.282   3.299
  3.324   3.327   3.345   3.351   3.373   3.399   3.419   3.422
  3.428   3.449   3.473   3.478   3.485   3.495   3.507   3.535
  3.551   3.569   3.581   3.590   3.601   3.628   3.640   3.653
  3.669   3.678   3.693   3.711   3.720   3.737   3.740   3.755
  3.781   3.786   3.805   3.821   3.838   3.858   3.866   3.906
  3.922   3.953   3.958   3.982   4.021   4.109   4.130   4.171
  4.179   4.209   4.214   4.235   4.258   4.273   4.340   4.386
  4.415   4.500   4.617   4.626   4.647   4.672   4.691   4.755
  4.806   4.828   4.837   4.877   4.960   4.966   4.997   5.031
  5.065   5.142   5.165   5.211   5.277   5.304   5.322   5.325
  5.347   5.364   5.377   5.379   5.476   5.504   5.510   5.557
  5.565   5.591   5.649   5.673   5.715   5.720   5.744   5.757
  5.777   5.855   5.953   5.986   6.043   6.100   6.139   6.167
  6.246   6.279   6.307   6.337   6.348   6.359   6.417   6.447
  6.528   6.621   6.633   6.639   6.673   6.701   6.720   6.754
  6.775   6.822   6.834   6.857   6.867   6.956   6.970   7.010
  7.046   7.057   7.083   7.133   7.195   7.230   7.248   7.253
  7.345   7.366   7.396   7.405   7.411   7.521   7.620   7.654
  7.732   8.313  22.684  22.874  22.960  23.127  23.727  44.268
 44.286  44.419  44.529  44.691  44.752
 --------------------------------------------------------------
 
          Ground-State Mulliken Net Atomic Charges

     Atom                 Charge (a.u.)
  ----------------------------------------
      1 C                    -1.195630
      2 H                     0.237931
      3 H                     0.253288
      4 H                     0.252126
      5 C                     0.636339
      6 C                    -0.040001
      7 H                     0.273406
      8 H                     0.120500
      9 C                    -0.099131
     10 H                     0.122307
     11 H                     0.259323
     12 C                     0.078283
     13 O                    -0.218240
     14 O                    -0.571673
     15 H                     0.412114
     16 O                    -0.347350
     17 O                    -0.716260
     18 O                    -0.695610
     19 O                    -0.761719
  ----------------------------------------
  Sum of atomic charges =    -2.000000

 -----------------------------------------------------------------
                    Cartesian Multipole Moments
 -----------------------------------------------------------------
    Charge (ESU x 10^10)
                -9.6064
    Dipole Moment (Debye)
         X     -12.2581      Y       5.0158      Z     -10.9009
       Tot      17.1536
    Quadrupole Moments (Debye-Ang)
        XX    -148.2769     XY      -0.3324     YY     -83.4591
        XZ     -19.1226     YZ       1.0558     ZZ     -94.1305
    Octopole Moments (Debye-Ang^2)
       XXX    -340.3945    XXY      36.3269    XYY     -47.9851
       YYY      42.6104    XXZ    -131.3060    XYZ      -3.9149
       YYZ     -27.5911    XZZ     -46.4628    YZZ      14.8927
       ZZZ     -98.2623
    Hexadecapole Moments (Debye-Ang^3)
      XXXX   -3210.5452   XXXY      31.7128   XXYY    -536.2324
      XYYY      34.4609   YYYY    -372.1900   XXXZ    -629.0036
      XXYZ     -13.8886   XYYZ    -115.6901   YYYZ      28.5053
      XXZZ    -619.6336   XYZZ     -24.7055   YYZZ    -173.6924
      XZZZ    -275.6399   YZZZ      42.4323   ZZZZ    -617.6907
 -----------------------------------------------------------------
 Calculating analytic gradient of the SCF energy
 Gradient of SCF Energy
            1           2           3           4           5           6
    1  -0.1014833  -0.0163025  -0.0028480   0.0685585   0.1691519   0.0119153
    2   0.0454494  -0.0712854   0.0138030   0.0173223  -0.0225765  -0.0895366
    3  -0.0182914  -0.0146084   0.0687396  -0.0263603   0.0500289  -0.0452515
            7           8           9          10          11          12
    1  -0.0291259   0.0316846  -0.0736519   0.0622583  -0.0042652   0.0419328
    2   0.0132781   0.0727724   0.0671852  -0.0012577  -0.0413866  -0.0364530
    3   0.0436144  -0.0183614   0.0449705  -0.0589704   0.0155973   0.0158974
           13          14          15          16          17          18
    1  -0.0371828  -0.0266939  -0.0205423  -0.0087656  -0.0446755  -0.0179619
    2   0.0524184  -0.0058038   0.0221347  -0.0109950  -0.0295001   0.0574947
    3  -0.0342445   0.0092308  -0.0574545  -0.0008350  -0.0284910   0.0131260
           19
    1  -0.0020024
    2  -0.0530634
    3   0.0416635
 Max gradient component =       1.692E-01
 RMS gradient           =       4.729E-02
 Computing fast CPCM-ISWIG gradient
 Updating gradient with PCM contributions...
 -- total gradient after adding PCM contribution --
---------------------------------------------------
  Atom         X              Y              Z     
---------------------------------------------------
   1       0.000135       0.001031      -0.000009
   2      -0.000126      -0.000565      -0.000079
   3       0.000057      -0.000022      -0.000089
   4      -0.000092      -0.000137       0.000052
   5      -0.000602      -0.000480       0.000823
   6      -0.000297      -0.000026      -0.000096
   7       0.000034       0.000096       0.000013
   8      -0.000004      -0.000042      -0.000068
   9       0.000534      -0.000216       0.000458
  10      -0.000103       0.000098      -0.000078
  11      -0.000134       0.000052      -0.000027
  12      -0.000174       0.000222      -0.000161
  13      -0.000027      -0.000003      -0.000345
  14       0.000196       0.000094       0.000281
  15       0.000005       0.000063      -0.000352
  16       0.000549       0.000002      -0.000440
  17      -0.000014      -0.000032       0.000054
  18       0.000013      -0.000134       0.000010
  19       0.000050      -0.000003       0.000055
---------------------------------------------------
 Number of fixed atoms: 0
 Gradient time:  CPU 1155.47 s  wall 83.04 s
 ----------------------------------------------------------------
             Standard Nuclear Orientation (Angstroms)
    I     Atom           X                Y                Z
 ----------------------------------------------------------------
    1      C      -2.4837265555     0.8044852987    -1.0604535157
    2      H      -2.2801762877     1.8631095557    -0.8742098689
    3      H      -2.4721150455     0.6271006480    -2.1383295708
    4      H      -3.4671246218     0.5509517618    -0.6608650417
    5      C      -1.4311915867    -0.0514711853    -0.3844243750
    6      C       0.9758328443    -0.3584447587    -0.5274814187
    7      H       1.6156172305    -0.5123248548    -1.4030372013
    8      H       0.7222389045    -1.3396745659    -0.1229637029
    9      C       1.7080332788     0.4836117059     0.5067836064
   10      H       1.0636870084     0.6141501741     1.3822192994
   11      H       1.9015923064     1.4828402648     0.1018295325
   12      C       3.0358153603    -0.1131952223     0.9888107283
   13      O      -1.4200938598     0.2842689880     1.0038563700
   14      O      -1.6886391334    -1.4004292031    -0.4800362333
   15      H      -1.4958638000    -1.6397351099     0.5070298653
   16      O      -0.2016938117     0.2959803658    -1.0090940223
   17      O       3.8098549380     0.6653212626     1.6087688582
   18      O       3.2586500285    -1.3304760831     0.7571336023
   19      O      -1.1506088799    -0.9114025902     1.7804775412
 ----------------------------------------------------------------
 Nuclear Repulsion Energy =   659.4045439629 hartrees
 There are       44 alpha and       44 beta electrons
 Discretize the solute cavity surface with Lebedev spheres
	Using 110 Lebedev grid points for each H atom
	Using 110 Lebedev grid points for other atoms
	Atomic van der Waals radii will be scaled by 1.20
 Remove points where switching function is < 1.0e-08
 Keep 1088 surface tesserae and discard 1002 interior tesserae
 Molecular Surface Area = 194.982 Angst**2
 Requested basis set is def2-TZVPD
 There are 189 shells and 497 basis functions
 A cutoff of  1.0D-14 yielded  16228 shell pairs
 There are    112650 function pairs (    143689 Cartesian)
 Smallest overlap matrix eigenvalue = 3.40E-06
 Guess MOs from SCF MO coefficient file
 Reading MOs from coefficient file
 Reading MOs from coefficient file
 Long-range K will be added via erf
 Coulomb attenuation parameter = 0.3 bohr**(-1)
 A restricted hybrid HF-DFT SCF calculation will be
 performed using Pulay DIIS extrapolation
 Polarizable Continuum solvation model will be applied
 Exchange:     0.1670 Hartree-Fock + 1.0000 wB97X-V + LR-HF
 Correlation:  1.0000 wB97X-V
 Using SG-2 standard quadrature grid
 Nonlocal Correlation:  VV10 with C = 0.0100 and b = 6.00
 Grid used for NLC:  SG-1 standard quadrature
 SCF converges when DIIS error is below 1.0E-08
Using Q-Chem read-in guess as SCF_GUESS READ specified.

 using 16 threads for integral computing
 -------------------------------------------------------
 OpenMP Integral computing Module                
 Release: version 1.0, May 2013, Q-Chem Inc. Pittsburgh 
 -------------------------------------------------------
 using 16 threads for integral computing
 -------------------------------------------------------
 OpenMP Integral computing Module                
 Release: version 1.0, May 2013, Q-Chem Inc. Pittsburgh 
 -------------------------------------------------------
 -------------------------------------------------------
 OpenMP BLAS3 based DFT computing Module                
 Release: version 1.0, May 2013, Q-Chem Inc. Pittsburgh 
 -------------------------------------------------------
 -------------------------------------------------------
 OpenMP BLAS3 based DFT computing Module                
 Release: version 1.0, May 2013, Q-Chem Inc. Pittsburgh 
 -------------------------------------------------------
 -------------------------------------------------------
 OpenMP BLAS3 based DFT computing Module                
 Release: version 1.0, May 2013, Q-Chem Inc. Pittsburgh 
 -------------------------------------------------------
 ---------------------------------------
  Cycle       Energy         DIIS Error
 ---------------------------------------
    1    -646.6532213017      3.29E-04
    2    -646.9529274010      3.39E-04
    3    -646.9580424242      1.58E-04
    4    -646.9588861831      1.18E-04
    5    -646.9594180278      8.98E-05
    6    -646.9597146816      7.02E-05
    7    -646.9599766877      4.68E-05
    8    -646.9601359371      2.29E-05
    9    -646.9601819663      6.74E-06
   10    -646.9601860705      1.62E-06
   11    -646.9601863095      2.86E-07
   12    -646.9601863167      7.08E-08
   13    -646.9601863171      2.62E-08
   14    -646.9601863171      1.33E-08
   15    -646.9601863171      3.85E-09 Convergence criterion met
 ---------------------------------------

************** Final PCM Free Energy Summary **************
 G_electrostatic  =      -0.30647662 hartree =    -192.31698359 kcal/mol
 G_cavitation     =       0.00000000 hartree =       0.00000000 kcal/mol
 G_dispersion     =       0.00000000 hartree =       0.00000000 kcal/mol
 G_repulsion      =       0.00000000 hartree =       0.00000000 kcal/mol
 --------------------------------------------------
 Non-electrostatic Free Energy =       0.00000000 hartree =       0.00000000 kcal/mol
 Total                         =      -0.30647662 hartree =    -192.31698359 kcal/mol
 --------------------------------------------------
 SCF Energy (H0 + V/2)                       =    -646.96018632 
 Solute Internal Energy (H0)                 =    -646.65370969 
 Total Free Energy (H0 + V/2 + non-elec)     =    -646.96018632 hartree
                                             = -405973.64427393 kcal/mol
***********************************************************

 SCF time:  CPU 4922.27 s  wall 345.66 s
 SCF   energy in the final basis set = -646.96018632
 Total energy in the final basis set = -646.96018632
 
 --------------------------------------------------------------
 
                    Orbital Energies (a.u.)
 --------------------------------------------------------------
 
 Alpha MOs
 -- Occupied --
-19.219 -19.199 -19.182 -19.160 -19.140 -19.137 -10.391 -10.340
-10.292 -10.246 -10.241  -1.222  -1.143  -1.136  -1.100  -1.048
 -0.939  -0.874  -0.836  -0.749  -0.669  -0.630  -0.608  -0.603
 -0.581  -0.548  -0.537  -0.520  -0.511  -0.494  -0.485  -0.479
 -0.473  -0.450  -0.441  -0.421  -0.409  -0.393  -0.370  -0.346
 -0.335  -0.330  -0.325  -0.289
 -- Virtual --
  0.060   0.074   0.076   0.082   0.099   0.101   0.111   0.113
  0.120   0.130   0.133   0.141   0.147   0.151   0.159   0.168
  0.173   0.176   0.183   0.185   0.187   0.193   0.197   0.217
  0.223   0.226   0.236   0.244   0.248   0.255   0.259   0.262
  0.270   0.273   0.277   0.287   0.290   0.292   0.303   0.307
  0.319   0.322   0.328   0.337   0.342   0.344   0.349   0.354
  0.357   0.360   0.368   0.373   0.375   0.382   0.386   0.393
  0.398   0.400   0.405   0.408   0.414   0.419   0.424   0.427
  0.435   0.440   0.446   0.453   0.457   0.461   0.468   0.472
  0.474   0.486   0.494   0.498   0.499   0.503   0.510   0.515
  0.525   0.526   0.529   0.536   0.539   0.541   0.553   0.555
  0.565   0.567   0.574   0.583   0.591   0.596   0.598   0.604
  0.610   0.614   0.633   0.634   0.644   0.648   0.657   0.668
  0.669   0.678   0.679   0.685   0.695   0.703   0.716   0.719
  0.726   0.735   0.741   0.743   0.753   0.765   0.768   0.775
  0.782   0.786   0.793   0.803   0.811   0.813   0.815   0.822
  0.830   0.837   0.838   0.846   0.851   0.855   0.860   0.870
  0.883   0.892   0.896   0.897   0.899   0.907   0.912   0.924
  0.927   0.935   0.943   0.955   0.968   0.981   1.005   1.017
  1.026   1.035   1.039   1.046   1.056   1.068   1.087   1.102
  1.117   1.126   1.135   1.141   1.146   1.157   1.169   1.183
  1.194   1.205   1.218   1.247   1.249   1.258   1.264   1.287
  1.293   1.308   1.323   1.331   1.347   1.364   1.370   1.373
  1.388   1.393   1.421   1.438   1.441   1.449   1.467   1.485
  1.489   1.498   1.527   1.543   1.566   1.577   1.595   1.617
  1.641   1.660   1.706   1.746   1.770   1.810   1.822   1.855
  1.863   1.893   1.913   1.923   1.934   1.942   1.957   1.963
  1.972   1.983   1.986   2.002   2.009   2.031   2.037   2.046
  2.057   2.064   2.075   2.105   2.121   2.152   2.162   2.179
  2.206   2.216   2.231   2.238   2.256   2.273   2.290   2.299
  2.306   2.332   2.343   2.362   2.379   2.385   2.394   2.419
  2.430   2.464   2.483   2.485   2.494   2.518   2.553   2.554
  2.584   2.609   2.629   2.636   2.652   2.665   2.691   2.693
  2.706   2.715   2.737   2.757   2.777   2.797   2.835   2.837
  2.868   2.878   2.900   2.926   2.950   2.954   2.980   2.982
  3.010   3.032   3.039   3.066   3.084   3.092   3.127   3.138
  3.156   3.198   3.217   3.235   3.258   3.271   3.282   3.300
  3.324   3.327   3.346   3.351   3.373   3.399   3.419   3.422
  3.428   3.449   3.473   3.478   3.485   3.495   3.507   3.535
  3.551   3.569   3.581   3.590   3.601   3.628   3.640   3.653
  3.669   3.678   3.693   3.712   3.720   3.737   3.741   3.755
  3.781   3.786   3.805   3.822   3.838   3.858   3.866   3.906
  3.923   3.954   3.958   3.982   4.022   4.109   4.131   4.171
  4.179   4.209   4.215   4.235   4.258   4.273   4.340   4.386
  4.415   4.500   4.617   4.625   4.647   4.671   4.690   4.755
  4.806   4.828   4.838   4.877   4.961   4.966   4.997   5.032
  5.065   5.142   5.165   5.211   5.277   5.304   5.322   5.325
  5.347   5.364   5.377   5.379   5.476   5.504   5.511   5.557
  5.565   5.591   5.649   5.673   5.715   5.720   5.744   5.757
  5.777   5.856   5.953   5.986   6.043   6.100   6.140   6.167
  6.246   6.279   6.307   6.337   6.348   6.359   6.418   6.448
  6.528   6.621   6.633   6.639   6.673   6.701   6.720   6.754
  6.775   6.822   6.834   6.857   6.867   6.956   6.970   7.010
  7.046   7.057   7.083   7.133   7.195   7.231   7.248   7.253
  7.346   7.366   7.397   7.405   7.411   7.521   7.620   7.654
  7.732   8.313  22.684  22.874  22.960  23.128  23.727  44.268
 44.286  44.419  44.529  44.691  44.753
 --------------------------------------------------------------
 
          Ground-State Mulliken Net Atomic Charges

     Atom                 Charge (a.u.)
  ----------------------------------------
      1 C                    -1.197397
      2 H                     0.237171
      3 H                     0.253531
      4 H                     0.252372
      5 C                     0.638394
      6 C                    -0.039992
      7 H                     0.273515
      8 H                     0.120559
      9 C                    -0.099171
     10 H                     0.122360
     11 H                     0.259398
     12 C                     0.078165
     13 O                    -0.218264
     14 O                    -0.571719
     15 H                     0.412071
     16 O                    -0.347472
     17 O                    -0.716258
     18 O                    -0.695610
     19 O                    -0.761654
  ----------------------------------------
  Sum of atomic charges =    -2.000000

[...]
 Red. Mass:       2.1658                 2.9778                 2.4496
 IR Active:          YES                    YES                    YES
 IR Intens:        5.035                115.958                292.535
 Raman Active:       YES                    YES                    YES
               X      Y      Z        X      Y      Z        X      Y      Z
 C         -0.003  0.042  0.100    0.028 -0.029 -0.065   -0.153 -0.060  0.037
 H         -0.099  0.109 -0.229    0.063 -0.069  0.153    0.332 -0.116 -0.074
 H          0.307 -0.315  0.154   -0.193  0.187 -0.097    0.239  0.197 -0.012
 H         -0.086 -0.072 -0.190    0.111 -0.002  0.161   -0.428  0.486 -0.320
 C         -0.039 -0.071 -0.124    0.036  0.074  0.062    0.286  0.095 -0.037
 C          0.024  0.145 -0.005    0.182  0.077  0.192   -0.027  0.019 -0.002
 H          0.017 -0.127  0.039    0.127  0.176  0.154   -0.198  0.034 -0.119
 H          0.001  0.258  0.261    0.268  0.108  0.288   -0.046  0.039  0.024
 C         -0.077 -0.141  0.007   -0.044 -0.160 -0.115   -0.010 -0.014  0.011
 H         -0.345  0.094 -0.235   -0.284 -0.190 -0.293   -0.059  0.017 -0.031
 H          0.262 -0.237 -0.078   -0.229 -0.212 -0.315    0.122 -0.025  0.048
 C          0.050  0.024 -0.086    0.016  0.001  0.008    0.013  0.003 -0.016
 O         -0.005  0.032  0.002    0.004 -0.030 -0.007   -0.021 -0.016  0.005
 O          0.001  0.015 -0.032    0.004 -0.007  0.028   -0.038 -0.029  0.031
 H          0.058  0.257  0.151   -0.048 -0.171 -0.111    0.106 -0.135 -0.116
 O          0.027 -0.045  0.040   -0.155  0.053 -0.058   -0.012 -0.031  0.019
 O          0.014  0.004  0.029    0.014 -0.004  0.005   -0.000 -0.003  0.003
 O         -0.020  0.013  0.015   -0.010  0.016 -0.001   -0.004  0.009  0.005
 O          0.010 -0.016  0.036   -0.009  0.011 -0.026   -0.013  0.005 -0.022
 TransDip  -0.049 -0.006 -0.052    0.336 -0.022  0.076    0.470  0.159 -0.233

 Mode:                31                     32                     33
 Frequency:      1244.59                1282.70                1300.59
 Force Cnst:      1.2931                 1.4169                 2.7998
 Red. Mass:       1.4169                 1.4617                 2.8093
 IR Active:          YES                    YES                    YES
 IR Intens:       56.176                 15.706                203.870
 Raman Active:       YES                    YES                    YES
               X      Y      Z        X      Y      Z        X      Y      Z
 C         -0.012  0.015  0.003   -0.001 -0.004 -0.000   -0.016 -0.048 -0.010
 H         -0.059  0.038 -0.068    0.013 -0.007  0.005    0.398 -0.179  0.261
 H         -0.031  0.022 -0.003    0.012  0.006 -0.001    0.340 -0.136  0.026
 H         -0.049  0.034 -0.068    0.000  0.006  0.006    0.151 -0.141  0.293
 C          0.055 -0.069  0.005    0.005  0.013 -0.003   -0.132  0.316 -0.084
 C          0.081  0.055 -0.079   -0.001 -0.030 -0.029    0.032  0.048 -0.060
 H          0.283 -0.279  0.125    0.165  0.013  0.088   -0.091 -0.131 -0.120
 H         -0.349  0.207  0.004    0.404  0.004  0.309   -0.081  0.144  0.092
 C         -0.015 -0.017  0.011   -0.140 -0.030 -0.090   -0.010 -0.016  0.031
 H          0.435  0.120  0.319    0.513  0.026  0.380    0.193  0.114  0.160
 H         -0.421 -0.077 -0.342    0.436 -0.005  0.261   -0.246 -0.069 -0.221
 C         -0.018 -0.011  0.053   -0.047 -0.007 -0.005   -0.003 -0.002  0.019
 O         -0.004  0.014 -0.007    0.000 -0.001  0.001    0.019 -0.056  0.008
 O          0.000  0.032 -0.005   -0.003 -0.007  0.000    0.000 -0.109  0.003
 H          0.041 -0.012 -0.010   -0.007  0.017  0.009   -0.007  0.222  0.084
 O         -0.059 -0.021  0.037   -0.008  0.028  0.002    0.040 -0.051  0.032
 O         -0.002 -0.003 -0.012    0.050  0.037  0.032   -0.004 -0.004 -0.006
 O          0.005 -0.002 -0.007    0.002 -0.017 -0.007    0.001 -0.001 -0.002
 O          0.001 -0.004  0.002   -0.000  0.000  0.001   -0.002  0.008  0.007
 TransDip   0.231 -0.066 -0.011   -0.032 -0.097 -0.075   -0.048  0.455 -0.006

 Mode:                34                     35                     36
 Frequency:      1329.58                1407.07                1409.24
 Force Cnst:      1.1858                 1.7063                 1.7267
 Red. Mass:       1.1385                 1.4628                 1.4757
 IR Active:          YES                    YES                    YES
 IR Intens:       12.331                125.478                 38.811
 Raman Active:       YES                    YES                    YES
               X      Y      Z        X      Y      Z        X      Y      Z
 C         -0.010 -0.003 -0.003   -0.110  0.106 -0.057    0.021 -0.038  0.015
 H          0.074 -0.026  0.033    0.446 -0.062  0.243   -0.112  0.012 -0.098
 H          0.071 -0.023  0.004    0.321 -0.380  0.030   -0.033  0.158 -0.017
 H          0.022 -0.028  0.049    0.147 -0.425  0.223   -0.038  0.140 -0.023
 C         -0.003  0.044 -0.017    0.050 -0.073 -0.008    0.009  0.041 -0.001
 C          0.016 -0.007  0.020   -0.040 -0.013 -0.024   -0.110 -0.024 -0.089
 H          0.510  0.007  0.373    0.143  0.041  0.099    0.576  0.040  0.392
 H         -0.492 -0.022 -0.351    0.160 -0.004  0.125    0.416  0.008  0.319
 C         -0.006  0.020 -0.062    0.021 -0.002  0.011    0.064 -0.012  0.027
 H         -0.112 -0.148 -0.117   -0.045  0.025 -0.041   -0.152  0.116 -0.146
 H          0.297  0.085  0.249   -0.062  0.010 -0.006   -0.209  0.049  0.020
 C         -0.011 -0.001 -0.016    0.018 -0.003  0.007    0.069 -0.015  0.027
 O          0.003 -0.007 -0.002   -0.004  0.014  0.011    0.000 -0.007 -0.003
 O          0.000 -0.010  0.001    0.006  0.028  0.029   -0.006 -0.018 -0.011
 H          0.026  0.023  0.002   -0.064 -0.299 -0.149    0.019  0.135  0.067
 O         -0.032 -0.022  0.031   -0.007  0.014 -0.000   -0.015  0.012  0.015
 O          0.014  0.010  0.011   -0.011 -0.008 -0.008   -0.038 -0.028 -0.027
 O          0.001 -0.004  0.000   -0.003  0.009  0.001   -0.011  0.035  0.005
 O         -0.001  0.001  0.001   -0.002 -0.000 -0.013    0.001  0.000  0.005
 TransDip   0.042  0.056 -0.088    0.096 -0.295 -0.180    0.075  0.150  0.109

 Mode:                37                     38                     39
 Frequency:      1440.08                1452.35                1457.64
 Force Cnst:      8.0642                 1.5709                 1.4274
 Red. Mass:       6.5999                 1.2641                 1.1402
 IR Active:          YES                    YES                    YES
 IR Intens:      405.050                393.438                 29.049
 Raman Active:       YES                    YES                    YES
               X      Y      Z        X      Y      Z        X      Y      Z
 C          0.002  0.010 -0.016   -0.033  0.004 -0.066    0.012  0.003  0.033
 H         -0.031 -0.012  0.137   -0.207 -0.020  0.316    0.165  0.004 -0.168
 H         -0.018 -0.118  0.007    0.273 -0.168 -0.024   -0.168  0.085  0.011
 H          0.000  0.035  0.010    0.046  0.294  0.328   -0.021 -0.208 -0.192
 C         -0.011 -0.016  0.022    0.052 -0.038  0.071   -0.022  0.018 -0.025
 C          0.045  0.009  0.044    0.012  0.012  0.026    0.025  0.012  0.022
 H         -0.226 -0.139 -0.137   -0.076 -0.125 -0.016   -0.061 -0.105 -0.023
 H         -0.117 -0.077 -0.241    0.046 -0.063 -0.125   -0.006 -0.043 -0.125
 C         -0.202  0.068 -0.092    0.003 -0.036 -0.022   -0.006 -0.064 -0.045
 H          0.203 -0.238  0.247    0.011  0.318 -0.061    0.056  0.599 -0.086
 H          0.409 -0.004  0.017   -0.145  0.118  0.269   -0.263  0.223  0.502
 C          0.444 -0.208  0.176   -0.004  0.010 -0.003    0.026  0.004  0.010
 O          0.003  0.002 -0.005   -0.004 -0.003 -0.016    0.002  0.001  0.006
 O         -0.001  0.002 -0.011   -0.018 -0.009 -0.054    0.007  0.003  0.021
 H          0.026  0.083  0.046    0.129  0.450  0.248   -0.052 -0.177 -0.098
 O          0.024 -0.000  0.002   -0.012  0.004 -0.010    0.000 -0.001  0.001
 O         -0.169 -0.122 -0.124    0.002  0.000  0.001   -0.010 -0.010 -0.008
 O         -0.082  0.252  0.028    0.002 -0.008 -0.001   -0.003  0.004  0.001
 O          0.002 -0.000  0.003    0.004  0.000  0.016   -0.000 -0.000 -0.006
 TransDip   0.543 -0.248  0.244    0.182  0.210  0.571   -0.009  0.054 -0.164

 Mode:                40                     41                     42
 Frequency:      1468.71                1481.30                1497.10
 Force Cnst:      1.3451                 1.5560                 1.4752
 Red. Mass:       1.0584                 1.2036                 1.1171
 IR Active:          YES                    YES                    YES
 IR Intens:        7.574                235.816                109.779
 Raman Active:       YES                    YES                    YES
               X      Y      Z        X      Y      Z        X      Y      Z
 C         -0.045 -0.024  0.010   -0.022  0.029  0.006   -0.011  0.006 -0.004
 H          0.071  0.061 -0.540    0.440 -0.046 -0.096    0.099 -0.005 -0.057
 H          0.410  0.543 -0.082   -0.322  0.048 -0.009   -0.030  0.057 -0.014
 H          0.161 -0.154  0.399   -0.027 -0.423 -0.293    0.015 -0.106 -0.009
 C         -0.012 -0.030  0.020    0.038  0.005  0.090    0.004 -0.015  0.041
 C          0.005  0.007  0.011   -0.010  0.017  0.009    0.026 -0.069 -0.023
 H         -0.046 -0.068 -0.016   -0.008 -0.185  0.041   -0.001  0.648 -0.146
 H          0.029 -0.034 -0.065    0.136 -0.081 -0.121   -0.429  0.255  0.442
 C         -0.007  0.004 -0.002    0.003  0.011  0.009   -0.003 -0.009 -0.009
 H          0.006 -0.026  0.012   -0.024 -0.111  0.006    0.010  0.103 -0.015
 H          0.022 -0.008 -0.015    0.044 -0.042 -0.093   -0.025  0.045  0.105
 C          0.004 -0.004  0.001   -0.011  0.001 -0.005    0.017  0.004  0.008
 O          0.001  0.003 -0.001   -0.002 -0.009 -0.017    0.000 -0.001 -0.008
 O          0.001  0.004 -0.007   -0.018 -0.019 -0.054   -0.006 -0.002 -0.023
 H          0.008  0.033  0.027    0.122  0.477  0.251    0.073  0.189  0.102
 O         -0.000  0.004 -0.004   -0.011  0.003 -0.008    0.009 -0.005 -0.005
 O         -0.001 -0.001 -0.001    0.005  0.004  0.004   -0.008 -0.007 -0.006
 O         -0.001  0.003  0.000    0.001 -0.003 -0.000   -0.002  0.002  0.000
 O          0.001  0.000  0.001    0.003  0.000  0.015    0.001  0.000  0.007
 TransDip   0.073 -0.001  0.050    0.155  0.105  0.455    0.073  0.138  0.297

 Mode:                43                     44                     45
 Frequency:      1579.73                2670.35                3065.09
 Force Cnst:     14.7414                 4.4601                 5.8903
 Red. Mass:      10.0259                 1.0616                 1.0642
 IR Active:          YES                    YES                    YES
 IR Intens:     1284.494               1017.366                 81.759
 Raman Active:       YES                    YES                    YES
               X      Y      Z        X      Y      Z        X      Y      Z
 C          0.000 -0.000  0.000   -0.000 -0.003 -0.001    0.011 -0.010  0.007
 H         -0.002 -0.000  0.002    0.008  0.005  0.006    0.039  0.193  0.035
 H          0.001 -0.002  0.001   -0.003  0.001  0.002    0.004 -0.033 -0.187
 H         -0.001  0.004 -0.000    0.001  0.001 -0.002   -0.162 -0.045  0.068
 C          0.001  0.001 -0.002    0.002  0.023 -0.003   -0.002 -0.000  0.000
 C         -0.013  0.020  0.010    0.001 -0.000  0.000    0.034 -0.032 -0.050
 H         -0.001 -0.050  0.041    0.001 -0.001 -0.001   -0.510  0.111  0.708
 H          0.039 -0.010 -0.057    0.004  0.001  0.001    0.080  0.277 -0.129
 C         -0.046 -0.039 -0.036    0.000 -0.000 -0.000   -0.005  0.000  0.008
 H          0.101 -0.191  0.096   -0.002 -0.001  0.001    0.067 -0.013 -0.090
 H          0.409 -0.095  0.011    0.000 -0.000 -0.001    0.002  0.021 -0.007
 C          0.173  0.688  0.283    0.000 -0.000 -0.000    0.000 -0.001 -0.000
 O          0.000  0.000  0.001   -0.001  0.001 -0.005    0.000 -0.000 -0.000
 O          0.000 -0.000  0.001   -0.009  0.017 -0.052   -0.000  0.000 -0.000
 H         -0.005 -0.005 -0.002    0.115 -0.562  0.817    0.000 -0.000 -0.000
 O          0.001 -0.003  0.000   -0.002 -0.002  0.000    0.002 -0.001  0.001
 O         -0.163 -0.184 -0.136   -0.000 -0.000 -0.000   -0.000  0.000 -0.000
 O          0.042 -0.292 -0.061   -0.000  0.000 -0.000    0.000  0.000  0.000
 O         -0.000 -0.000 -0.000    0.003  0.004  0.008    0.000  0.000  0.000
 TransDip   0.298  1.020  0.435    0.178 -0.051  1.005    0.206 -0.145 -0.143

 Mode:                46                     47                     48
 Frequency:      3067.63                3069.60                3114.21
 Force Cnst:      5.8914                 5.7676                 6.2715
 Red. Mass:       1.0626                 1.0389                 1.0975
 IR Active:          YES                    YES                    YES
 IR Intens:       40.322                 14.700                 12.341
 Raman Active:       YES                    YES                    YES
               X      Y      Z        X      Y      Z        X      Y      Z
 C         -0.001  0.001 -0.000    0.029 -0.030  0.023   -0.000  0.001 -0.000
 H         -0.003 -0.014 -0.003    0.114  0.563  0.104   -0.002 -0.011 -0.002
 H         -0.000  0.003  0.014    0.011 -0.097 -0.545   -0.000  0.001  0.007
 H          0.014  0.004 -0.006   -0.444 -0.121  0.186    0.003  0.001 -0.001
 C          0.000 -0.000 -0.000   -0.002  0.002 -0.002   -0.000 -0.000  0.000
 C          0.005  0.001 -0.004   -0.012  0.010  0.017   -0.006 -0.023  0.008
 H         -0.038  0.009  0.051    0.175 -0.038 -0.240   -0.007 -0.001  0.012
 H         -0.003 -0.016  0.006   -0.024 -0.085  0.040    0.075  0.286 -0.121
 C          0.014 -0.068 -0.011    0.003 -0.002 -0.004    0.045  0.031 -0.067
 H         -0.324  0.051  0.444   -0.037  0.007  0.049   -0.468  0.101  0.632
 H          0.156  0.750 -0.314    0.003  0.008 -0.004   -0.086 -0.469  0.184
 C         -0.002 -0.001 -0.001   -0.000  0.000 -0.000    0.001  0.000 -0.000
 O          0.000  0.000  0.000   -0.000 -0.000  0.000    0.000  0.000 -0.000
 O          0.000 -0.000  0.000    0.000 -0.000  0.000   -0.000  0.000  0.000
 H         -0.001  0.000 -0.001   -0.002  0.001 -0.004   -0.000  0.001 -0.002
 O         -0.000  0.000 -0.000   -0.001  0.000 -0.000    0.000 -0.000  0.000
 O          0.000  0.000  0.000    0.000 -0.000  0.000   -0.000 -0.000 -0.000
 O          0.000  0.000  0.000    0.000 -0.000 -0.000    0.000  0.000 -0.000
 O         -0.000 -0.000  0.000    0.000 -0.000  0.000   -0.000 -0.000  0.000
 TransDip  -0.030 -0.198 -0.036    0.013 -0.038  0.116    0.021  0.024 -0.108

 Mode:                49                     50                     51
 Frequency:      3142.74                3147.90                3157.60
 Force Cnst:      6.4005                 6.4410                 6.4866
 Red. Mass:       1.0999                 1.1032                 1.1042
 IR Active:          YES                    YES                    YES
 IR Intens:       35.280                 32.798                 32.638
 Raman Active:       YES                    YES                    YES
               X      Y      Z        X      Y      Z        X      Y      Z
 C          0.003  0.005  0.002   -0.019 -0.068 -0.060   -0.066 -0.032  0.058
 H         -0.011 -0.056 -0.010    0.137  0.705  0.117    0.044  0.271  0.058
 H          0.001 -0.003 -0.024   -0.013  0.101  0.659   -0.004 -0.082 -0.447
 H         -0.025 -0.006  0.011    0.103  0.017 -0.053    0.756  0.197 -0.306
 C         -0.000 -0.001  0.001   -0.000 -0.002 -0.001   -0.001 -0.001  0.002
 C         -0.034 -0.062  0.050   -0.002 -0.004  0.003   -0.000 -0.002  0.001
 H          0.187 -0.051 -0.268    0.011 -0.003 -0.016    0.000 -0.000 -0.002
 H          0.214  0.797 -0.331    0.013  0.051 -0.021    0.007  0.028 -0.012
 C         -0.014 -0.012  0.021   -0.001 -0.001  0.001   -0.000 -0.000  0.000
 H          0.130 -0.029 -0.179    0.007 -0.002 -0.010    0.004 -0.001 -0.005
 H          0.036  0.177 -0.067    0.002  0.009 -0.003    0.000  0.002 -0.000
 C         -0.000 -0.001 -0.000   -0.000 -0.000 -0.000    0.000 -0.000 -0.000
 O         -0.000 -0.000 -0.000    0.000  0.000  0.000    0.000  0.000 -0.000
 O         -0.000  0.000 -0.000    0.000  0.000  0.001    0.000  0.000  0.000
 H          0.002  0.002 -0.001   -0.001  0.004 -0.009   -0.000  0.002 -0.003
 O          0.001 -0.000 -0.000    0.000  0.000  0.000    0.000  0.000 -0.000
 O          0.000  0.000  0.000   -0.000  0.000  0.000   -0.000 -0.000 -0.000
 O          0.000  0.000  0.000    0.000  0.000  0.000   -0.000  0.000  0.000
 O         -0.000  0.000  0.000   -0.000 -0.000  0.000   -0.000  0.000 -0.000
 TransDip  -0.034 -0.134  0.131   -0.043 -0.134 -0.118   -0.131 -0.068  0.108

 STANDARD THERMODYNAMIC QUANTITIES AT   298.15 K  AND     1.00 ATM

   This Molecule has  0 Imaginary Frequencies
   Zero point vibrational energy:       86.719 kcal/mol

   Atom    1 Element C  Has Mass   12.00000
   Atom    2 Element H  Has Mass    1.00783
   Atom    3 Element H  Has Mass    1.00783
   Atom    4 Element H  Has Mass    1.00783
   Atom    5 Element C  Has Mass   12.00000
   Atom    6 Element C  Has Mass   12.00000
   Atom    7 Element H  Has Mass    1.00783
   Atom    8 Element H  Has Mass    1.00783
   Atom    9 Element C  Has Mass   12.00000
   Atom   10 Element H  Has Mass    1.00783
   Atom   11 Element H  Has Mass    1.00783
   Atom   12 Element C  Has Mass   12.00000
   Atom   13 Element O  Has Mass   15.99491
   Atom   14 Element O  Has Mass   15.99491
   Atom   15 Element H  Has Mass    1.00783
   Atom   16 Element O  Has Mass   15.99491
   Atom   17 Element O  Has Mass   15.99491
   Atom   18 Element O  Has Mass   15.99491
   Atom   19 Element O  Has Mass   15.99491
   Molecular Mass:   164.032100 amu
   Principal axes and moments of inertia in amu*Bohr^2:
                             1           2           3
    Eigenvalues --      802.63599  3239.80814  3369.11782
          X               0.96829    -0.22182    -0.11492
          Y              -0.00086    -0.46298     0.88637
          Z               0.24982     0.85817     0.44849
   Rotational Symmetry Number is   1
   The Molecule is an Asymmetric Top
   Translational Enthalpy:        0.889 kcal/mol
   Rotational Enthalpy:           0.889 kcal/mol
   Vibrational Enthalpy:         92.045 kcal/mol
   gas constant (RT):             0.592 kcal/mol
   Translational Entropy:        41.193  cal/mol.K
   Rotational Entropy:           30.550  cal/mol.K
   Vibrational Entropy:          35.520  cal/mol.K

   Total Enthalpy:               94.414 kcal/mol
   Total Entropy:               107.262  cal/mol.K
Archival summary:
1\1\c6-86\FREQ\ProcedureUnspecified\BasisUnspecified\658(2-,1)\leeping\SatMar2107:50:172020SatMar2107:50:172020\0\\#,FREQ,ProcedureUnspecified,BasisUnspecified,\\-2,1\O\C,1,1.42218\O,2,1.37663,1,111.751\H,3,1.03379,2,97.2179,1,106.919,0\O,2,1.42834,1,111.27,3,120.073,0\C,1,1.43066,2,116.868,3,-58.0536,0\H,6,1.09122,1,110.172,2,28.0085,0\H,6,1.09526,1,106.018,2,144.391,0\O,5,1.451,2,109.146,1,-100.265,0\C,2,1.51632,1,105.438,3,-123.31,0\H,10,1.09157,2,109.291,1,177.131,0\H,10,1.0926,2,109.888,1,57.0383,0\H,10,1.09302,2,109.976,1,-62.8433,0\C,6,1.52147,1,111.825,2,-95.8676,0\H,14,1.09481,6,109.046,1,63.5332,0\H,14,1.0954,6,109.791,1,-53.2889,0\C,14,1.53347,6,114.518,1,-175.69,0\O,17,1.25901,14,118.144,6,-16.1067,0\O,17,1.26078,14,116.477,6,164.945,0\\\@

 Total job time:  50686.35s(wall), 718965.68s(cpu) 
 Sat Mar 21 07:50:17 2020

        *************************************************************
        *                                                           *
        *  Thank you very much for using Q-Chem.  Have a nice day.  *
        *                                                           *
        *************************************************************


