
Running Job 1 of 1 qc-3-tshess.in
qchem qc-3-tshess.in_51805.0 /scratch/alotsuki/1165980/qc-3-tshess.d/ 1
/home/leeping/opt/qchem/5.0.2-openmp/exe/qcprog.exe_s qc-3-tshess.in_51805.0 /scratch/alotsuki/1165980/qc-3-tshess.d/
Check license passed

                  Welcome to Q-Chem
     A Quantum Leap Into The Future Of Chemistry


 Q-Chem 5.0, Q-Chem, Inc., Pleasanton, CA (2017)

 Yihan Shao,  Zhengting Gan,  E. Epifanovsky,  A. T. B. Gilbert,  M. Wormit,  
 J. Kussmann,  A. W. Lange,  A. Behn,  Jia Deng,  Xintian Feng,  D. Ghosh,  
 M. Goldey,  P. R. Horn,  L. D. Jacobson,  I. Kaliman,  T. Kus,  A. Landau,  
 Jie Liu,  E. I. Proynov,  R. M. Richard,  R. P. Steele,  E. J. Sundstrom,  
 H. L. Woodcock III,  P. M. Zimmerman,  D. Zuev,  B. Albrecht,  E. Alguire,  
 S. A. Baeppler,  D. Barton,  Z. Benda,  Y. A. Bernard,  E. J. Berquist,  
 K. B. Bravaya,  H. Burton,  D. Casanova,  Chun-Min Chang,  Yunqing Chen,  
 A. Chien,  K. D. Closser,  M. P. Coons,  S. Dasgupta,  A. L. Dempwolff,  
 M. Diedenhofen,  Hainam Do,  R. G. Edgar,  Po-Tung Fang,  S. Fatehi,  
 Qingguo Feng,  J. Fosso-Tande,  Qinghui Ge,  A. Ghysels,  G. Gidofalvi,  
 J. Gomes,  J. Gonthier,  A. Gunina,  M. W. D. Hanson-Heine,  
 P. H. P. Harbach,  A. W. Hauser,  J. E. Herr,  E. G. Hohenstein,  
 Z. C. Holden,  Kerwin Hui,  T.-C. Jagau,  Hyunjun Ji,  B. Kaduk,  
 K. Khistyaev,  Jaehoon Kim,  P. Klunzinger,  K. Koh,  D. Kosenkov,  
 L. Koulias,  T. Kowalczyk,  C. M. Krauter,  A. Kunitsa,  Ka Un Lao,  
 A. Laurent,  K. V. Lawler,  Joonho Lee,  D. Lefrancois,  S. Lehtola,  
 D. S. Levine,  Yi-Pei Li,  You-Sheng Lin,  Fenglai Liu,  E. Livshits,  
 A. Luenser,  P. Manohar,  E. Mansoor,  S. F. Manzer,  Shan-Ping Mao,  
 Yuezhi Mao,  N. Mardirossian,  A. V. Marenich,  T. Markovich,  
 L. A. Martinez-Martinez,  S. A. Maurer,  N. J. Mayhall,  S. C. McKenzie,  
 J.-M. Mewes,  A. F. Morrison,  J. W. Mullinax,  K. Nanda,  
 T. S. Nguyen-Beck,  R. Olivares-Amaya,  J. A. Parkhill,  T. M. Perrine,  
 F. Plasser,  S. Prager,  A. Prociuk,  E. Ramos,  D. R. Rehn,  F. Rob,  
 M. Schneider,  N. Sergueev,  S. M. Sharada,  S. Sharma,  D. W. Small,  
 T. Stauch,  T. Stein,  Yu-Chuan Su,  A. J. W. Thom,  A. Tkatchenko,  
 T. Tsuchimochi,  L. Vogt,  O. Vydrov,  M. A. Watson,  J. Wenzel,  
 M. de Wergifosse,  T. A. Wesolowski,  A. White,  J. Witte,  A. Yamada,  
 Jun Yang,  K. Yao,  S. Yeganeh,  S. R. Yost,  Zhi-Qiang You,  A. Zech,  
 Igor Ying Zhang,  Xing Zhang,  Yan Zhao,  Ying Zhu,  B. R. Brooks,  
 G. K. L. Chan,  C. J. Cramer,  M. S. Gordon,  W. J. Hehre,  A. Klamt,  
 M. W. Schmidt,  C. D. Sherrill,  D. G. Truhlar,  A. Aspuru-Guzik,  R. Baer,  
 A. T. Bell,  N. A. Besley,  Jeng-Da Chai,  R. A. DiStasio Jr.,  A. Dreuw,  
 B. D. Dunietz,  T. R. Furlani,  Chao-Ping Hsu,  Yousung Jung,  Jing Kong,  
 D. S. Lambrecht,  WanZhen Liang,  C. Ochsenfeld,  V. A. Rassolov,  
 L. V. Slipchenko,  J. E. Subotnik,  T. Van Voorhis,  J. M. Herbert,  
 A. I. Krylov,  P. M. W. Gill,  M. Head-Gordon

 Contributors to earlier versions of Q-Chem not listed above: 
 R. D. Adamson,  B. Austin,  J. Baker,  G. J. O. Beran,  K. Brandhorst,  
 S. T. Brown,  E. F. C. Byrd,  A. K. Chakraborty,  C.-L. Cheng,  
 Siu Hung Chien,  D. M. Chipman,  D. L. Crittenden,  H. Dachsel,  
 R. J. Doerksen,  A. D. Dutoi,  L. Fusti-Molnar,  W. A. Goddard III,  
 A. Golubeva-Zadorozhnaya,  S. R. Gwaltney,  G. Hawkins,  A. Heyden,  
 S. Hirata,  G. Kedziora,  F. J. Keil,  C. Kelley,  Jihan Kim,  R. A. King,  
 R. Z. Khaliullin,  P. P. Korambath,  W. Kurlancheek,  A. M. Lee,  M. S. Lee,  
 S. V. Levchenko,  Ching Yeh Lin,  D. Liotard,  R. C. Lochan,  I. Lotan,  
 P. E. Maslen,  N. Nair,  D. P. O'Neill,  D. Neuhauser,  E. Neuscamman,  
 C. M. Oana,  R. Olson,  B. Peters,  R. Peverati,  P. A. Pieniazek,  
 Y. M. Rhee,  J. Ritchie,  M. A. Rohrdanz,  E. Rosta,  N. J. Russ,  
 H. F. Schaefer III,  N. E. Schultz,  N. Shenvi,  A. C. Simmonett,  A. Sodt,  
 D. Stuck,  K. S. Thanthiriwatte,  V. Vanovschi,  Tao Wang,  A. Warshel,  
 C. F. Williams,  Q. Wu,  X. Xu,  W. Zhang

 Please cite Q-Chem as follows:
 Y. Shao et al., Mol. Phys. 113, 184-215 (2015)
 DOI: 10.1080/00268976.2014.952696

 Q-Chem 5.0.2 for Intel X86 EM64T Linux

 Parts of Q-Chem use Armadillo 5.200.1 (Boston Tea Smuggler).
 http://arma.sourceforge.net/

 Q-Chem begins on Thu Apr 19 01:25:01 2018  

Host: 
0

     Scratch files written to /scratch/alotsuki/1165980/qc-3-tshess.d//
 Dec517 15110_ 26548  26544 5633   
Processing $rem in /home/leeping/opt/qchem/5.0.2-openmp/config/preferences.
 MEM_STATIC 2000
 MEM_TOTAL  8000
 SYMMETRY   OFF
 SYM_IGNORE TRUE 
Symmetry turned off for PCM/SM12/SMD calculation

Checking the input file for inconsistencies... 	...done.

--------------------------------------------------------------
User input:
--------------------------------------------------------------
$molecule
-2 1
C       -2.2999631103    1.2845490739   -0.7292864459
H       -1.6006830988    2.0958927248   -0.5158228370
H       -2.5876909470    1.3290535632   -1.7825004692
H       -3.1947059998    1.4064560263   -0.1116586307
C       -1.6275156365   -0.0490838183   -0.4423541990
C        1.0234322233   -0.9495757257   -0.0250846185
H        1.3469185648   -1.0634512688   -1.0574342648
H        1.1933708211   -1.8868358301    0.5017248618
C        1.6404901007    0.2493972078    0.6289161089
H        1.3078527159    0.3431876915    1.6652273745
H        1.3388191441    1.1622611643    0.1088229335
C        3.1816530258    0.1993001539    0.6318533706
O       -1.4147828499   -0.0864849544    0.9771659219
O       -2.6022112916   -1.0726940031   -0.7549111003
H       -2.1663816754   -1.8953701569   -0.4920416073
O       -0.4791395934   -0.2496955850   -1.0847853561
O        3.7645720142    1.2195478893    1.0828850371
O        3.7472754795   -0.8386797493    0.2016367438
O       -0.5713098870   -1.1977744036    1.1976471766
$end

$rem
jobtype               freq
method                wb97x-v
basis                 def2-tzvpd
symmetry              off
sym_ignore            true
incdft                false
incfock               0
!scf_algorithm        diis_gdm
scf_convergence       8
thresh                14
!purecart             112
max_scf_cycles        1000
geom_opt_max_cycles   500
geom_opt_dmax         100
geom_opt_tol_gradient 10
solvent_method        pcm
ideriv                1
rpath_tol_displacement 1000
rpath_max_cycles      100
rpath_direction       1
!scf_guess            read
scf_guess             read
$end

$pcm
theory              cosmo
method              iswig
Radii               bondi
vdwScale            1.20
hpoints             110
heavypoints         110
$end

$solvent
dielectric 78.400000
$end

--------------------------------------------------------------
 ----------------------------------------------------------------
             Standard Nuclear Orientation (Angstroms)
    I     Atom           X                Y                Z
 ----------------------------------------------------------------
    1      C      -2.2999631103     1.2845490739    -0.7292864459
    2      H      -1.6006830988     2.0958927248    -0.5158228370
    3      H      -2.5876909470     1.3290535632    -1.7825004692
    4      H      -3.1947059998     1.4064560263    -0.1116586307
    5      C      -1.6275156365    -0.0490838183    -0.4423541990
    6      C       1.0234322233    -0.9495757257    -0.0250846185
    7      H       1.3469185648    -1.0634512688    -1.0574342648
    8      H       1.1933708211    -1.8868358301     0.5017248618
    9      C       1.6404901007     0.2493972078     0.6289161089
   10      H       1.3078527159     0.3431876915     1.6652273745
   11      H       1.3388191441     1.1622611643     0.1088229335
   12      C       3.1816530258     0.1993001539     0.6318533706
   13      O      -1.4147828499    -0.0864849544     0.9771659219
   14      O      -2.6022112916    -1.0726940031    -0.7549111003
   15      H      -2.1663816754    -1.8953701569    -0.4920416073
   16      O      -0.4791395934    -0.2496955850    -1.0847853561
   17      O       3.7645720142     1.2195478893     1.0828850371
   18      O       3.7472754795    -0.8386797493     0.2016367438
   19      O      -0.5713098870    -1.1977744036     1.1976471766
 ----------------------------------------------------------------
 Nuclear Repulsion Energy =   652.2705937758 hartrees
 There are       44 alpha and       44 beta electrons
 Requested basis set is def2-TZVPD
 There are 189 shells and 497 basis functions

 Total QAlloc Memory Limit   8000 MB
 Mega-Array Size      1956 MB
 MEM_STATIC part      2000 MB
 Discretize the solute cavity surface with Lebedev spheres
	Using 110 Lebedev grid points for each H atom
	Using 110 Lebedev grid points for other atoms
	Atomic van der Waals radii will be scaled by 1.20
 Remove points where switching function is < 1.0e-08
 Keep 1109 surface tesserae and discard 981 interior tesserae
 Molecular Surface Area = 195.816 Angst**2
 A cutoff of  1.0D-14 yielded  16152 shell pairs
 There are    111886 function pairs (    142623 Cartesian)
 
 -------------------------------------------------------
 OpenMP Integral Computing Module                       
 Release: version 1.0, May 2013, Q-Chem Inc. Pittsburgh 
 -------------------------------------------------------
 Integral Job Info:
 Integral job number is                      11
 Integral operator is                         1
 short-range coefficients              16700000
 long-range coefficients              100000000
 Omega coefficients                         300
 if combine SR and LR in K                    1
 Integral screening is                        0
 Integral computing path is                   2
 max size of driver memory is            800000
 size of driver memory is                776718
 size of scratch memory is              4473992
 max col of scratch BK array              10000
 max len of scratch array in speh3          662
 max len of scratch index in speh4           32
 max int batch size is                      520
 min int batch size is                       52
 fixed nKL is                                52
 max L of basis functions is                  3
 order of int derivative is                   0
 number of shells is                        189
 number of basis is                         563
 number of cartesian basis is               563
 number of contracted shell pairs         16152
 number of primitive shell pairs          32508
 maxK2 (contraction) of shell pair           36
 max number of K2 of shell pair               1
 max number of CS2 of shell pair           2636
 max number of PS2 of shell pair           3720
 mem total for path MDJ                  831028
 -------------------------------------------------------
 Smallest overlap matrix eigenvalue = 2.95E-06
 Guess MOs from SCF MO coefficient file
 Reading MOs from coefficient file
 Reading MOs from coefficient file
 Long-range K will be added via erf
 Coulomb attenuation parameter = 0.3 bohr**(-1)
 A restricted hybrid HF-DFT SCF calculation will be
 performed using Pulay DIIS extrapolation
 Polarizable Continuum solvation model will be applied
 Exchange:     0.1670 Hartree-Fock + 1.0000 wB97X-V + LR-HF
 Correlation:  1.0000 wB97X-V
 Using SG-2 standard quadrature grid
 Nonlocal Correlation:  VV10 with C = 0.0100 and b = 6.00
 Grid used for NLC:  SG-1 standard quadrature
 SCF converges when DIIS error is below 1.0E-08
Using Q-Chem read-in guess as SCF_GUESS READ specified.

 using 4 threads for integral computing
 -------------------------------------------------------
 OpenMP Integral computing Module                
 Release: version 1.0, May 2013, Q-Chem Inc. Pittsburgh 
 -------------------------------------------------------
 using 4 threads for integral computing
 -------------------------------------------------------
 OpenMP Integral computing Module                
 Release: version 1.0, May 2013, Q-Chem Inc. Pittsburgh 
 -------------------------------------------------------
 -------------------------------------------------------
 OpenMP BLAS3 based DFT computing Module                
 Release: version 1.0, May 2013, Q-Chem Inc. Pittsburgh 
 -------------------------------------------------------
 -------------------------------------------------------
 OpenMP BLAS3 based DFT computing Module                
 Release: version 1.0, May 2013, Q-Chem Inc. Pittsburgh 
 -------------------------------------------------------
 -------------------------------------------------------
 OpenMP BLAS3 based DFT computing Module                
 Release: version 1.0, May 2013, Q-Chem Inc. Pittsburgh 
 -------------------------------------------------------
 ---------------------------------------
  Cycle       Energy         DIIS Error
 ---------------------------------------
    1    -646.5668788465      2.55E-04
    2    -646.8614332928      2.62E-04
    3    -646.8646348073      1.24E-04
    4    -646.8651579417      9.26E-05
    5    -646.8654709462      7.22E-05
    6    -646.8656476419      5.80E-05
    7    -646.8657688174      4.60E-05
    8    -646.8658528731      3.53E-05
    9    -646.8659082839      2.59E-05
   10    -646.8659298547      2.11E-05
   11    -646.8659508357      1.51E-05
   12    -646.8659606548      1.13E-05
   13    -646.8659666414      8.04E-06
   14    -646.8659690974      6.25E-06
   15    -646.8659703640      5.09E-06
   16    -646.8659712089      4.13E-06
   17    -646.8659728479      3.84E-09 Convergence criterion met
 ---------------------------------------

************** Final PCM Free Energy Summary **************
 G_electrostatic  =      -0.29909375 hartree =    -187.68416101 kcal/mol
 G_cavitation     =       0.00000000 hartree =       0.00000000 kcal/mol
 G_dispersion     =       0.00000000 hartree =       0.00000000 kcal/mol
 G_repulsion      =       0.00000000 hartree =       0.00000000 kcal/mol
 --------------------------------------------------
 Non-electrostatic Free Energy =       0.00000000 hartree =       0.00000000 kcal/mol
 Total                         =      -0.29909375 hartree =    -187.68416101 kcal/mol
 --------------------------------------------------
 SCF Energy (H0 + V/2)                       =    -646.86597285 
 Solute Internal Energy (H0)                 =    -646.56687910 
 Total Free Energy (H0 + V/2 + non-elec)     =    -646.86597285 hartree
                                             = -405914.52442970 kcal/mol
***********************************************************

 SCF time:  CPU 5147.16 s  wall 1331.73 s
 SCF   energy in the final basis set = -646.86597285
 Total energy in the final basis set = -646.86597285
 
 --------------------------------------------------------------
 
                    Orbital Energies (a.u.)
 --------------------------------------------------------------
 
 Alpha MOs
 -- Occupied --
-19.217 -19.187 -19.169 -19.141 -19.139 -19.138 -10.370 -10.344
-10.316 -10.245 -10.241  -1.211  -1.145  -1.123  -1.056  -1.051
 -0.932  -0.873  -0.829  -0.733  -0.673  -0.611  -0.604  -0.575
 -0.553  -0.548  -0.538  -0.518  -0.500  -0.497  -0.481  -0.474
 -0.463  -0.448  -0.441  -0.420  -0.399  -0.363  -0.348  -0.342
 -0.332  -0.328  -0.310  -0.282
 -- Virtual --
  0.060   0.069   0.079   0.084   0.088   0.097   0.101   0.109
  0.116   0.122   0.129   0.138   0.141   0.147   0.150   0.161
  0.165   0.174   0.175   0.181   0.186   0.192   0.200   0.206
  0.213   0.222   0.228   0.239   0.246   0.252   0.257   0.259
  0.261   0.276   0.282   0.287   0.291   0.294   0.299   0.305
  0.314   0.319   0.327   0.329   0.330   0.339   0.345   0.352
  0.353   0.362   0.371   0.374   0.375   0.378   0.383   0.391
  0.399   0.402   0.406   0.409   0.411   0.416   0.420   0.425
  0.431   0.434   0.442   0.446   0.448   0.459   0.467   0.475
  0.481   0.489   0.495   0.497   0.503   0.505   0.510   0.516
  0.521   0.527   0.534   0.538   0.544   0.547   0.552   0.559
  0.564   0.569   0.578   0.583   0.591   0.596   0.606   0.609
  0.614   0.621   0.625   0.629   0.635   0.646   0.657   0.665
  0.674   0.679   0.683   0.688   0.691   0.699   0.707   0.715
  0.724   0.728   0.742   0.745   0.747   0.757   0.770   0.776
  0.778   0.783   0.792   0.794   0.800   0.806   0.811   0.821
  0.826   0.835   0.839   0.844   0.850   0.860   0.866   0.869
  0.877   0.884   0.888   0.890   0.901   0.907   0.920   0.930
  0.942   0.947   0.964   0.975   0.987   0.992   1.003   1.020
  1.024   1.029   1.041   1.058   1.071   1.080   1.091   1.098
  1.106   1.124   1.137   1.151   1.163   1.168   1.180   1.203
  1.211   1.215   1.223   1.233   1.246   1.264   1.265   1.286
  1.293   1.309   1.316   1.324   1.333   1.354   1.371   1.385
  1.395   1.400   1.416   1.431   1.439   1.456   1.462   1.473
  1.490   1.499   1.517   1.532   1.549   1.562   1.577   1.602
  1.606   1.623   1.695   1.729   1.753   1.791   1.823   1.847
  1.868   1.891   1.903   1.924   1.938   1.945   1.954   1.961
  1.970   1.977   1.984   1.989   1.996   2.007   2.023   2.036
  2.050   2.054   2.081   2.093   2.100   2.124   2.143   2.163
  2.184   2.214   2.218   2.233   2.245   2.276   2.283   2.299
  2.305   2.329   2.351   2.359   2.367   2.388   2.410   2.429
  2.451   2.461   2.468   2.480   2.487   2.504   2.518   2.539
  2.553   2.567   2.603   2.622   2.638   2.646   2.663   2.682
  2.697   2.723   2.737   2.764   2.773   2.801   2.822   2.832
  2.852   2.869   2.893   2.917   2.946   2.949   2.958   2.982
  2.988   3.019   3.026   3.060   3.084   3.091   3.103   3.119
  3.147   3.170   3.170   3.199   3.212   3.248   3.258   3.261
  3.303   3.318   3.342   3.346   3.362   3.384   3.394   3.398
  3.415   3.441   3.443   3.452   3.483   3.492   3.507   3.524
  3.533   3.562   3.568   3.574   3.586   3.593   3.605   3.641
  3.646   3.659   3.664   3.703   3.710   3.726   3.733   3.761
  3.763   3.776   3.787   3.807   3.822   3.841   3.850   3.880
  3.902   3.914   3.944   3.977   4.004   4.041   4.101   4.115
  4.163   4.191   4.203   4.230   4.249   4.286   4.301   4.311
  4.424   4.464   4.576   4.591   4.631   4.648   4.666   4.683
  4.770   4.821   4.829   4.874   4.886   4.924   4.986   4.998
  5.048   5.100   5.132   5.235   5.264   5.290   5.325   5.362
  5.363   5.373   5.376   5.454   5.459   5.489   5.504   5.510
  5.552   5.556   5.591   5.644   5.669   5.712   5.721   5.729
  5.777   5.791   5.822   5.858   5.933   6.010   6.135   6.189
  6.249   6.264   6.288   6.312   6.328   6.369   6.441   6.480
  6.506   6.626   6.637   6.680   6.697   6.704   6.751   6.767
  6.789   6.815   6.851   6.875   6.894   6.941   6.967   6.971
  6.995   7.045   7.055   7.144   7.176   7.216   7.253   7.275
  7.300   7.362   7.400   7.410   7.413   7.514   7.529   7.600
  7.638   8.448  22.704  22.827  22.934  23.202  23.735  44.270
 44.324  44.418  44.444  44.572  44.748
 --------------------------------------------------------------
 
          Ground-State Mulliken Net Atomic Charges

     Atom                 Charge (a.u.)
  ----------------------------------------
      1 C                    -1.214730
      2 H                     0.218601
      3 H                     0.274480
      4 H                     0.246411
      5 C                     0.797249
      6 C                     0.344906
      7 H                     0.166271
      8 H                     0.178428
      9 C                    -0.170217
     10 H                     0.201173
     11 H                     0.149124
     12 C                     0.023808
     13 O                    -0.257605
     14 O                    -0.547716
     15 H                     0.341583
     16 O                    -0.703711
     17 O                    -0.701820
     18 O                    -0.689215
     19 O                    -0.657021
  ----------------------------------------
  Sum of atomic charges =    -2.000000

 -----------------------------------------------------------------
                    Cartesian Multipole Moments
 -----------------------------------------------------------------
    Charge (ESU x 10^10)
                -9.6064
    Dipole Moment (Debye)
         X     -12.4830      Y       2.1629      Z      -3.9327
       Tot      13.2654
    Quadrupole Moments (Debye-Ang)
        XX    -161.8993     XY     -10.0065     YY     -79.2510
        XZ     -12.5417     YZ      -2.4548     ZZ     -85.1782
    Octopole Moments (Debye-Ang^2)
       XXX    -362.5232    XXY       3.0624    XYY     -56.8989
       YYY      16.0892    XXZ     -57.4360    XYZ     -15.2001
       YYZ     -22.3043    XZZ     -26.6766    YZZ      12.0032
       ZZZ     -33.7580
    Hexadecapole Moments (Debye-Ang^3)
      XXXX   -3796.4629   XXXY    -139.8657   XXYY    -588.3674
      XYYY     -38.2859   YYYY    -428.3492   XXXZ    -447.4999
      XXYZ     -73.9042   XYYZ     -92.9786   YYYZ       2.6672
      XXZZ    -526.0318   XYZZ     -43.8300   YYZZ    -152.7535
      XZZZ    -219.7822   YZZZ      -1.9646   ZZZZ    -392.4898
 -----------------------------------------------------------------
 Calculating analytic gradient of the SCF energy
 Gradient of SCF Energy
            1           2           3           4           5           6
    1  -0.0394714  -0.0548347   0.0151863   0.0609872   0.0594440   0.0911452
    2   0.1054766  -0.0570476  -0.0002850  -0.0024362  -0.1106737  -0.0821748
    3  -0.0003253  -0.0180276   0.0728391  -0.0457285  -0.0011936  -0.0252701
            7           8           9          10          11          12
    1  -0.0032813   0.0000194  -0.1117696   0.0155966   0.0162939   0.0641107
    2   0.0074258   0.0717239   0.0654379   0.0013508  -0.0426937  -0.0100714
    3   0.0718736  -0.0323163   0.0136069  -0.0523433   0.0297142   0.0000617
           13          14          15          16          17          18
    1  -0.0250659   0.0127691  -0.0218042  -0.0328134  -0.0348424  -0.0300759
    2   0.0469979  -0.0399181   0.0639821   0.0186076  -0.0429309   0.0464293
    3  -0.0176063   0.0096940  -0.0151120  -0.0123870  -0.0187330   0.0200104
           19
    1   0.0184064
    2  -0.0392003
    3   0.0212430
 Max gradient component =       1.118E-01
 RMS gradient           =       4.612E-02
 Computing fast CPCM-ISWIG gradient
 Updating gradient with PCM contributions...
 -- total gradient after adding PCM contribution --
---------------------------------------------------
  Atom         X              Y              Z     
---------------------------------------------------
   1      -0.000003       0.000001       0.000015
   2      -0.000002       0.000002       0.000017
   3      -0.000009       0.000007       0.000018
   4      -0.000001       0.000002       0.000023
   5      -0.000001       0.000015       0.000011
   6      -0.000001      -0.000003      -0.000002
   7      -0.000004       0.000006      -0.000017
   8       0.000005      -0.000001      -0.000016
   9       0.000004      -0.000005      -0.000005
  10       0.000010      -0.000003      -0.000007
  11       0.000002      -0.000001      -0.000008
  12       0.000004      -0.000004      -0.000017
  13       0.000001      -0.000004       0.000008
  14      -0.000002       0.000000       0.000014
  15      -0.000009       0.000008       0.000006
  16      -0.000011      -0.000009       0.000006
  17       0.000007      -0.000005      -0.000018
  18       0.000002      -0.000002      -0.000024
  19       0.000010      -0.000004      -0.000003
---------------------------------------------------
 Number of fixed atoms: 0
 Gradient time:  CPU 1059.27 s  wall 273.96 s
 ######################################################
 ######################################################
 # Starting finite difference calculation for IDERIV  #
 Finite diff step size:  1.88973e-03 a.u.
 ----------------------------------------------------------------
             Standard Nuclear Orientation (Angstroms)
    I     Atom           X                Y                Z
 ----------------------------------------------------------------
    1      C      -2.2989631103     1.2845490739    -0.7292864459
    2      H      -1.6006830988     2.0958927248    -0.5158228370
    3      H      -2.5876909470     1.3290535632    -1.7825004692
    4      H      -3.1947059998     1.4064560263    -0.1116586307
    5      C      -1.6275156365    -0.0490838183    -0.4423541990
    6      C       1.0234322233    -0.9495757257    -0.0250846185
    7      H       1.3469185648    -1.0634512688    -1.0574342648
    8      H       1.1933708211    -1.8868358301     0.5017248618
    9      C       1.6404901007     0.2493972078     0.6289161089
   10      H       1.3078527159     0.3431876915     1.6652273745
   11      H       1.3388191441     1.1622611643     0.1088229335
   12      C       3.1816530258     0.1993001539     0.6318533706
   13      O      -1.4147828499    -0.0864849544     0.9771659219
   14      O      -2.6022112916    -1.0726940031    -0.7549111003
   15      H      -2.1663816754    -1.8953701569    -0.4920416073
   16      O      -0.4791395934    -0.2496955850    -1.0847853561
   17      O       3.7645720142     1.2195478893     1.0828850371
   18      O       3.7472754795    -0.8386797493     0.2016367438
   19      O      -0.5713098870    -1.1977744036     1.1976471766
 ----------------------------------------------------------------
 Nuclear Repulsion Energy =   652.2826854343 hartrees
 There are       44 alpha and       44 beta electrons
 Discretize the solute cavity surface with Lebedev spheres
	Using 110 Lebedev grid points for each H atom
	Using 110 Lebedev grid points for other atoms
	Atomic van der Waals radii will be scaled by 1.20
 Remove points where switching function is < 1.0e-08
 Keep 1109 surface tesserae and discard 981 interior tesserae
 Molecular Surface Area = 195.814 Angst**2
 Requested basis set is def2-TZVPD
 There are 189 shells and 497 basis functions
 A cutoff of  1.0D-14 yielded  16152 shell pairs
 There are    111886 function pairs (    142623 Cartesian)
 Smallest overlap matrix eigenvalue = 2.95E-06
 Guess MOs from SCF MO coefficient file
 Reading MOs from coefficient file
 Reading MOs from coefficient file
 Long-range K will be added via erf
 Coulomb attenuation parameter = 0.3 bohr**(-1)
 A restricted hybrid HF-DFT SCF calculation will be
 performed using Pulay DIIS extrapolation
 Polarizable Continuum solvation model will be applied
 Exchange:     0.1670 Hartree-Fock + 1.0000 wB97X-V + LR-HF
 Correlation:  1.0000 wB97X-V
 Using SG-2 standard quadrature grid
 Nonlocal Correlation:  VV10 with C = 0.0100 and b = 6.00
 Grid used for NLC:  SG-1 standard quadrature
 SCF converges when DIIS error is below 1.0E-08
Using Q-Chem read-in guess as SCF_GUESS READ specified.

 using 4 threads for integral computing
 -------------------------------------------------------
 OpenMP Integral computing Module                
 Release: version 1.0, May 2013, Q-Chem Inc. Pittsburgh 
 -------------------------------------------------------
 using 4 threads for integral computing
 -------------------------------------------------------
 OpenMP Integral computing Module                
 Release: version 1.0, May 2013, Q-Chem Inc. Pittsburgh 
 -------------------------------------------------------
 -------------------------------------------------------
 OpenMP BLAS3 based DFT computing Module                
 Release: version 1.0, May 2013, Q-Chem Inc. Pittsburgh 
 -------------------------------------------------------
 -------------------------------------------------------
 OpenMP BLAS3 based DFT computing Module                
 Release: version 1.0, May 2013, Q-Chem Inc. Pittsburgh 
 -------------------------------------------------------
 -------------------------------------------------------
 OpenMP BLAS3 based DFT computing Module                
 Release: version 1.0, May 2013, Q-Chem Inc. Pittsburgh 
 -------------------------------------------------------
 ---------------------------------------
  Cycle       Energy         DIIS Error
 ---------------------------------------
    1    -646.5666849448      2.56E-04
    2    -646.8614277452      2.62E-04
    3    -646.8646337791      1.25E-04
    4    -646.8651580481      9.25E-05
    5    -646.8654759704      7.18E-05
    6    -646.8656607065      5.68E-05
    7    -646.8658006546      4.22E-05
    8    -646.8658983365      2.76E-05
    9    -646.8659567412      1.25E-05
   10    -646.8659686461      5.77E-06
   11    -646.8659717261      1.06E-06
   12    -646.8659718290      1.72E-07
   13    -646.8659718318      2.47E-08
   14    -646.8659718318      2.60E-08
   15    -646.8659718319      7.69E-09 Convergence criterion met
 ---------------------------------------

************** Final PCM Free Energy Summary **************
 G_electrostatic  =      -0.29909816 hartree =    -187.68692768 kcal/mol
 G_cavitation     =       0.00000000 hartree =       0.00000000 kcal/mol
 G_dispersion     =       0.00000000 hartree =       0.00000000 kcal/mol
 G_repulsion      =       0.00000000 hartree =       0.00000000 kcal/mol
 --------------------------------------------------
 Non-electrostatic Free Energy =       0.00000000 hartree =       0.00000000 kcal/mol
 Total                         =      -0.29909816 hartree =    -187.68692768 kcal/mol
 --------------------------------------------------
 SCF Energy (H0 + V/2)                       =    -646.86597183 
 Solute Internal Energy (H0)                 =    -646.56687367 
 Total Free Energy (H0 + V/2 + non-elec)     =    -646.86597183 hartree
                                             = -405914.52379211 kcal/mol
***********************************************************

 SCF time:  CPU 4542.42 s  wall 1175.09 s
 SCF   energy in the final basis set = -646.86597183
 Total energy in the final basis set = -646.86597183
 
 --------------------------------------------------------------
 
                    Orbital Energies (a.u.)
 --------------------------------------------------------------
 
 Alpha MOs
 -- Occupied --
-19.217 -19.187 -19.169 -19.141 -19.139 -19.138 -10.370 -10.344
-10.316 -10.245 -10.241  -1.211  -1.145  -1.123  -1.056  -1.051
 -0.932  -0.873  -0.829  -0.733  -0.673  -0.611  -0.604  -0.575
 -0.553  -0.548  -0.538  -0.517  -0.500  -0.497  -0.481  -0.474
 -0.463  -0.448  -0.441  -0.420  -0.399  -0.363  -0.348  -0.342
 -0.332  -0.328  -0.310  -0.282
 -- Virtual --
  0.060   0.069   0.079   0.084   0.088   0.097   0.101   0.109
  0.116   0.122   0.129   0.138   0.141   0.147   0.150   0.161
  0.165   0.174   0.175   0.181   0.186   0.192   0.200   0.206
  0.213   0.222   0.228   0.239   0.246   0.252   0.257   0.259
  0.261   0.276   0.282   0.287   0.291   0.294   0.299   0.305
  0.314   0.319   0.327   0.329   0.330   0.339   0.345   0.352
  0.353   0.362   0.371   0.374   0.375   0.378   0.383   0.391
  0.399   0.402   0.406   0.409   0.411   0.416   0.420   0.425
  0.431   0.434   0.442   0.446   0.448   0.459   0.467   0.475
  0.481   0.489   0.495   0.497   0.503   0.505   0.510   0.516
  0.521   0.527   0.534   0.538   0.544   0.547   0.552   0.559
  0.564   0.569   0.578   0.583   0.591   0.596   0.606   0.609
  0.614   0.621   0.625   0.629   0.635   0.646   0.657   0.665
  0.674   0.679   0.683   0.688   0.691   0.699   0.707   0.715
  0.724   0.728   0.742   0.745   0.747   0.757   0.770   0.776
  0.778   0.783   0.792   0.794   0.800   0.806   0.811   0.821
  0.826   0.835   0.839   0.844   0.850   0.860   0.866   0.869
  0.877   0.884   0.888   0.890   0.901   0.907   0.920   0.930
  0.942   0.947   0.964   0.975   0.987   0.992   1.003   1.020
  1.024   1.029   1.041   1.058   1.071   1.080   1.091   1.098
  1.106   1.124   1.137   1.151   1.163   1.168   1.180   1.203
  1.211   1.215   1.223   1.233   1.247   1.264   1.265   1.286
  1.293   1.309   1.316   1.324   1.333   1.354   1.371   1.385
  1.395   1.400   1.416   1.431   1.439   1.456   1.462   1.473
  1.491   1.499   1.517   1.532   1.549   1.562   1.577   1.602
  1.606   1.623   1.696   1.729   1.753   1.791   1.823   1.847
  1.868   1.891   1.903   1.924   1.938   1.945   1.954   1.961
  1.970   1.977   1.984   1.989   1.996   2.007   2.023   2.036
  2.050   2.054   2.081   2.093   2.100   2.124   2.143   2.163
  2.184   2.214   2.218   2.233   2.245   2.276   2.283   2.299
  2.305   2.329   2.351   2.359   2.367   2.388   2.410   2.429
  2.451   2.461   2.468   2.480   2.487   2.504   2.518   2.539
  2.553   2.567   2.603   2.622   2.638   2.646   2.663   2.681
  2.697   2.723   2.737   2.764   2.773   2.801   2.822   2.832
  2.852   2.869   2.893   2.917   2.946   2.949   2.957   2.982
  2.988   3.019   3.026   3.060   3.084   3.091   3.103   3.119
  3.147   3.170   3.170   3.199   3.212   3.248   3.258   3.261
  3.303   3.318   3.342   3.346   3.362   3.384   3.394   3.398
  3.415   3.441   3.443   3.452   3.483   3.492   3.507   3.524
  3.533   3.562   3.568   3.574   3.586   3.593   3.605   3.641
  3.646   3.659   3.664   3.703   3.710   3.726   3.733   3.761
  3.763   3.776   3.787   3.807   3.822   3.841   3.850   3.880
  3.902   3.914   3.944   3.977   4.004   4.041   4.101   4.115
  4.163   4.191   4.203   4.230   4.249   4.286   4.301   4.311
  4.424   4.464   4.576   4.591   4.631   4.648   4.666   4.683
  4.770   4.821   4.829   4.874   4.886   4.924   4.986   4.998
  5.048   5.100   5.132   5.235   5.264   5.290   5.325   5.362
  5.363   5.373   5.376   5.454   5.459   5.489   5.504   5.510
  5.552   5.557   5.591   5.644   5.669   5.712   5.721   5.729
  5.777   5.792   5.822   5.858   5.933   6.010   6.135   6.189
  6.249   6.264   6.288   6.312   6.328   6.369   6.441   6.480
  6.506   6.626   6.637   6.680   6.697   6.704   6.751   6.767
  6.789   6.815   6.851   6.875   6.894   6.942   6.967   6.971
  6.995   7.045   7.055   7.144   7.176   7.216   7.253   7.275
  7.300   7.362   7.400   7.410   7.413   7.514   7.529   7.600
  7.638   8.448  22.704  22.827  22.934  23.202  23.735  44.270
 44.324  44.418  44.444  44.572  44.748
 --------------------------------------------------------------
 
          Ground-State Mulliken Net Atomic Charges

     Atom                 Charge (a.u.)
  ----------------------------------------
      1 C                    -1.215338
      2 H                     0.218921
      3 H                     0.274459
      4 H                     0.246132
      5 C                     0.797914
      6 C                     0.344901
      7 H                     0.166261
      8 H                     0.178426
      9 C                    -0.170213
     10 H                     0.201171
     11 H                     0.149076
     12 C                     0.023812
     13 O                    -0.257609
     14 O                    -0.547762
     15 H                     0.341653
     16 O                    -0.703701
     17 O                    -0.701824
     18 O                    -0.689215
     19 O                    -0.657066
  ----------------------------------------
  Sum of atomic charges =    -2.000000

 -----------------------------------------------------------------
                    Cartesian Multipole Moments
 -----------------------------------------------------------------
    Charge (ESU x 10^10)
                -9.6064
    Dipole Moment (Debye)
         X     -12.4833      Y       2.1637      Z      -3.9332
       Tot      13.2659
    Quadrupole Moments (Debye-Ang)
        XX    -161.9022     XY     -10.0059     YY     -79.2471
        XZ     -12.5395     YZ      -2.4555     ZZ     -85.1797
    Octopole Moments (Debye-Ang^2)
       XXX    -362.5286    XXY       3.0575    XYY     -56.9107
       YYY      16.1004    XXZ     -57.4441    XYZ     -15.1979
       YYZ     -22.3078    XZZ     -26.6804    YZZ      12.0027
       ZZZ     -33.7560
    Hexadecapole Moments (Debye-Ang^3)
      XXXX   -3796.4007   XXXY    -139.8587   XXYY    -588.3401
      XYYY     -38.3155   YYYY    -428.3028   XXXZ    -447.4624
      XXYZ     -73.9139   XYYZ     -92.9658   YYYZ       2.6603
      XXZZ    -526.0120   XYZZ     -43.8341   YYZZ    -152.7534
      XZZZ    -219.7724   YZZZ      -1.9615   ZZZZ    -392.5028
 -----------------------------------------------------------------
 Calculating analytic gradient of the SCF energy
 Gradient of SCF Energy
            1           2           3           4           5           6
    1  -0.0386673  -0.0551130   0.0151277   0.0605374   0.0594837   0.0911430
    2   0.1056309  -0.0573825  -0.0002820  -0.0023947  -0.1105694  -0.0821731
    3  -0.0003273  -0.0181033   0.0726778  -0.0454325  -0.0012372  -0.0252727
            7           8           9          10          11          12
    1  -0.0032768   0.0000168  -0.1117700   0.0155967   0.0162906   0.0641086
    2   0.0074234   0.0717218   0.0654391   0.0013443  -0.0426934  -0.0100641
    3   0.0718752  -0.0323186   0.0136072  -0.0523420   0.0297139   0.0000628
           13          14          15          16          17          18
    1  -0.0250884   0.0127805  -0.0218110  -0.0328483  -0.0348427  -0.0300765
    2   0.0470041  -0.0399280   0.0639922   0.0186333  -0.0429320   0.0464300
    3  -0.0176196   0.0097067  -0.0151149  -0.0123917  -0.0187331   0.0200101
           19
    1   0.0184089
    2  -0.0391999
    3   0.0212393
 Max gradient component =       1.118E-01
 RMS gradient           =       4.610E-02
 Computing fast CPCM-ISWIG gradient
 Updating gradient with PCM contributions...
 -- total gradient after adding PCM contribution --
---------------------------------------------------
  Atom         X              Y              Z     
---------------------------------------------------
   1       0.001078       0.000082       0.000007
   2      -0.000307      -0.000239      -0.000049
   3      -0.000131       0.000012      -0.000113
   4      -0.000427       0.000042       0.000258
   5      -0.000172       0.000112      -0.000015
   6       0.000005      -0.000004       0.000011
   7      -0.000009       0.000006      -0.000018
   8       0.000005      -0.000000      -0.000016
   9       0.000003      -0.000004      -0.000005
  10       0.000010      -0.000003      -0.000008
  11       0.000002      -0.000001      -0.000008
  12       0.000005      -0.000004      -0.000017
  13      -0.000005       0.000015      -0.000010
  14       0.000009      -0.000051       0.000019
  15      -0.000013      -0.000001       0.000004
  16      -0.000079       0.000052       0.000010
  17       0.000006      -0.000006      -0.000018
  18       0.000001      -0.000002      -0.000025
  19       0.000018      -0.000005      -0.000008
---------------------------------------------------
 Number of fixed atoms: 0
 Gradient time:  CPU 1023.18 s  wall 264.86 s
 ----------------------------------------------------------------
             Standard Nuclear Orientation (Angstroms)
    I     Atom           X                Y                Z
 ----------------------------------------------------------------
    1      C      -2.3009631103     1.2845490739    -0.7292864459
    2      H      -1.6006830988     2.0958927248    -0.5158228370
    3      H      -2.5876909470     1.3290535632    -1.7825004692
    4      H      -3.1947059998     1.4064560263    -0.1116586307
    5      C      -1.6275156365    -0.0490838183    -0.4423541990
    6      C       1.0234322233    -0.9495757257    -0.0250846185
    7      H       1.3469185648    -1.0634512688    -1.0574342648
    8      H       1.1933708211    -1.8868358301     0.5017248618
    9      C       1.6404901007     0.2493972078     0.6289161089
   10      H       1.3078527159     0.3431876915     1.6652273745
   11      H       1.3388191441     1.1622611643     0.1088229335
   12      C       3.1816530258     0.1993001539     0.6318533706
   13      O      -1.4147828499    -0.0864849544     0.9771659219
   14      O      -2.6022112916    -1.0726940031    -0.7549111003
   15      H      -2.1663816754    -1.8953701569    -0.4920416073
   16      O      -0.4791395934    -0.2496955850    -1.0847853561
   17      O       3.7645720142     1.2195478893     1.0828850371
   18      O       3.7472754795    -0.8386797493     0.2016367438
   19      O      -0.5713098870    -1.1977744036     1.1976471766
 ----------------------------------------------------------------
 Nuclear Repulsion Energy =   652.2585004321 hartrees
 There are       44 alpha and       44 beta electrons
 Discretize the solute cavity surface with Lebedev spheres
	Using 110 Lebedev grid points for each H atom
	Using 110 Lebedev grid points for other atoms
	Atomic van der Waals radii will be scaled by 1.20
 Remove points where switching function is < 1.0e-08
 Keep 1108 surface tesserae and discard 982 interior tesserae
 Molecular Surface Area = 195.818 Angst**2
 Requested basis set is def2-TZVPD
 There are 189 shells and 497 basis functions
 A cutoff of  1.0D-14 yielded  16151 shell pairs
 There are    111885 function pairs (    142622 Cartesian)
 Smallest overlap matrix eigenvalue = 2.95E-06
 Guess MOs from SCF MO coefficient file
 Reading MOs from coefficient file
 Reading MOs from coefficient file
 Long-range K will be added via erf
 Coulomb attenuation parameter = 0.3 bohr**(-1)
 A restricted hybrid HF-DFT SCF calculation will be
 performed using Pulay DIIS extrapolation
 Polarizable Continuum solvation model will be applied
 Exchange:     0.1670 Hartree-Fock + 1.0000 wB97X-V + LR-HF
 Correlation:  1.0000 wB97X-V
 Using SG-2 standard quadrature grid
 Nonlocal Correlation:  VV10 with C = 0.0100 and b = 6.00
 Grid used for NLC:  SG-1 standard quadrature
 SCF converges when DIIS error is below 1.0E-08
Using Q-Chem read-in guess as SCF_GUESS READ specified.

 using 4 threads for integral computing
 -------------------------------------------------------
 OpenMP Integral computing Module                
 Release: version 1.0, May 2013, Q-Chem Inc. Pittsburgh 
 -------------------------------------------------------
 using 4 threads for integral computing
 -------------------------------------------------------
 OpenMP Integral computing Module                
 Release: version 1.0, May 2013, Q-Chem Inc. Pittsburgh 
 -------------------------------------------------------
 -------------------------------------------------------
 OpenMP BLAS3 based DFT computing Module                
 Release: version 1.0, May 2013, Q-Chem Inc. Pittsburgh 
 -------------------------------------------------------
 -------------------------------------------------------
 OpenMP BLAS3 based DFT computing Module                
 Release: version 1.0, May 2013, Q-Chem Inc. Pittsburgh 
 -------------------------------------------------------
 -------------------------------------------------------
 OpenMP BLAS3 based DFT computing Module                
 Release: version 1.0, May 2013, Q-Chem Inc. Pittsburgh 
 -------------------------------------------------------
 ---------------------------------------
  Cycle       Energy         DIIS Error
 ---------------------------------------
    1    -646.5672624087      2.56E-04
    2    -646.8614397133      2.61E-04
    3    -646.8646378850      1.24E-04
    4    -646.8651613656      9.23E-05
    5    -646.8654826036      7.12E-05
    6    -646.8656883590      5.42E-05
    7    -646.8658615539      3.38E-05
    8    -646.8659462287      1.63E-05
    9    -646.8659701238      4.22E-06
   10    -646.8659716488      1.33E-06
   11    -646.8659718150      2.00E-07
   12    -646.8659718184      5.35E-08
   13    -646.8659718187      2.00E-08
   14    -646.8659718188      1.07E-08
   15    -646.8659718188      2.73E-09 Convergence criterion met
 ---------------------------------------

************** Final PCM Free Energy Summary **************
 G_electrostatic  =      -0.29908934 hartree =    -187.68139139 kcal/mol
 G_cavitation     =       0.00000000 hartree =       0.00000000 kcal/mol
 G_dispersion     =       0.00000000 hartree =       0.00000000 kcal/mol
 G_repulsion      =       0.00000000 hartree =       0.00000000 kcal/mol
 --------------------------------------------------
 Non-electrostatic Free Energy =       0.00000000 hartree =       0.00000000 kcal/mol
 Total                         =      -0.29908934 hartree =    -187.68139139 kcal/mol
 --------------------------------------------------
 SCF Energy (H0 + V/2)                       =    -646.86597182 
 Solute Internal Energy (H0)                 =    -646.56688248 
 Total Free Energy (H0 + V/2 + non-elec)     =    -646.86597182 hartree
                                             = -405914.52378391 kcal/mol
***********************************************************

 SCF time:  CPU 4539.93 s  wall 1173.09 s
 SCF   energy in the final basis set = -646.86597182
 Total energy in the final basis set = -646.86597182
 
 --------------------------------------------------------------
 
                    Orbital Energies (a.u.)
 --------------------------------------------------------------
 
 Alpha MOs
 -- Occupied --
-19.217 -19.187 -19.169 -19.141 -19.139 -19.138 -10.370 -10.344
-10.316 -10.245 -10.241  -1.211  -1.145  -1.123  -1.056  -1.051
 -0.932  -0.873  -0.829  -0.733  -0.673  -0.611  -0.604  -0.575
 -0.553  -0.548  -0.538  -0.518  -0.500  -0.497  -0.481  -0.474
 -0.463  -0.448  -0.441  -0.420  -0.399  -0.363  -0.348  -0.342
 -0.332  -0.328  -0.310  -0.282
 -- Virtual --
  0.060   0.069   0.079   0.084   0.088   0.097   0.101   0.109
  0.116   0.122   0.129   0.138   0.141   0.147   0.150   0.161
  0.165   0.174   0.175   0.181   0.186   0.192   0.200   0.206
  0.213   0.222   0.228   0.239   0.246   0.252   0.257   0.259
  0.261   0.276   0.282   0.287   0.291   0.294   0.299   0.305
  0.314   0.319   0.327   0.329   0.330   0.339   0.345   0.352
  0.353   0.362   0.371   0.374   0.375   0.378   0.383   0.391
  0.399   0.402   0.406   0.409   0.411   0.416   0.420   0.425
  0.431   0.434   0.442   0.446   0.448   0.459   0.467   0.475
  0.481   0.489   0.495   0.497   0.502   0.505   0.510   0.516
  0.521   0.527   0.534   0.538   0.544   0.547   0.551   0.559
  0.564   0.569   0.578   0.583   0.591   0.596   0.606   0.609
  0.614   0.621   0.625   0.629   0.635   0.646   0.657   0.665
  0.674   0.679   0.683   0.688   0.691   0.699   0.707   0.715
  0.724   0.728   0.742   0.745   0.747   0.757   0.770   0.776
  0.778   0.783   0.792   0.794   0.800   0.806   0.811   0.821
  0.827   0.835   0.839   0.844   0.850   0.860   0.866   0.869
  0.877   0.884   0.888   0.890   0.901   0.907   0.920   0.930
  0.942   0.947   0.964   0.975   0.987   0.992   1.003   1.020
  1.024   1.029   1.041   1.058   1.071   1.080   1.091   1.098
  1.106   1.124   1.137   1.151   1.163   1.168   1.180   1.203
  1.211   1.215   1.223   1.233   1.246   1.264   1.265   1.286
  1.293   1.309   1.316   1.324   1.333   1.354   1.371   1.385
  1.395   1.400   1.416   1.431   1.439   1.456   1.462   1.473
  1.490   1.499   1.517   1.532   1.549   1.562   1.577   1.602
  1.606   1.623   1.695   1.729   1.753   1.791   1.823   1.847
  1.868   1.891   1.903   1.924   1.938   1.945   1.954   1.961
  1.970   1.977   1.984   1.989   1.996   2.007   2.023   2.036
  2.050   2.054   2.081   2.093   2.100   2.124   2.143   2.163
  2.184   2.214   2.218   2.233   2.245   2.276   2.283   2.299
  2.305   2.329   2.351   2.359   2.367   2.388   2.410   2.429
  2.451   2.461   2.468   2.480   2.487   2.504   2.518   2.539
  2.553   2.567   2.603   2.622   2.638   2.646   2.662   2.682
  2.697   2.723   2.737   2.764   2.773   2.801   2.822   2.832
  2.852   2.869   2.894   2.917   2.946   2.949   2.958   2.982
  2.987   3.019   3.026   3.060   3.084   3.091   3.103   3.119
  3.147   3.170   3.170   3.199   3.212   3.248   3.258   3.261
  3.303   3.318   3.342   3.346   3.362   3.384   3.394   3.398
  3.415   3.441   3.443   3.452   3.483   3.492   3.507   3.524
  3.533   3.562   3.568   3.574   3.586   3.593   3.605   3.641
  3.646   3.659   3.664   3.703   3.710   3.726   3.733   3.761
  3.763   3.776   3.787   3.807   3.822   3.841   3.850   3.880
  3.902   3.914   3.944   3.977   4.004   4.041   4.101   4.115
  4.163   4.190   4.203   4.230   4.249   4.285   4.301   4.311
  4.424   4.464   4.576   4.591   4.632   4.648   4.666   4.683
  4.770   4.821   4.829   4.873   4.886   4.924   4.986   4.998
  5.048   5.100   5.132   5.235   5.264   5.290   5.325   5.362
  5.363   5.373   5.376   5.454   5.459   5.489   5.504   5.510
  5.552   5.556   5.591   5.644   5.668   5.712   5.721   5.729
  5.777   5.791   5.822   5.858   5.933   6.010   6.135   6.189
  6.249   6.264   6.288   6.312   6.328   6.369   6.441   6.480
  6.506   6.626   6.637   6.680   6.697   6.704   6.751   6.767
  6.789   6.815   6.851   6.875   6.894   6.941   6.967   6.971
  6.995   7.045   7.055   7.143   7.176   7.216   7.253   7.275
  7.300   7.362   7.399   7.410   7.413   7.514   7.529   7.600
  7.638   8.448  22.704  22.827  22.934  23.201  23.735  44.270
 44.324  44.418  44.444  44.572  44.748
 --------------------------------------------------------------
 
          Ground-State Mulliken Net Atomic Charges

     Atom                 Charge (a.u.)
  ----------------------------------------
      1 C                    -1.214129
      2 H                     0.218283
      3 H                     0.274502
      4 H                     0.246693
      5 C                     0.796583
      6 C                     0.344909
      7 H                     0.166282
      8 H                     0.178430
      9 C                    -0.170222
     10 H                     0.201175
     11 H                     0.149172
     12 C                     0.023804
     13 O                    -0.257601
     14 O                    -0.547669
     15 H                     0.341513
     16 O                    -0.703719
     17 O                    -0.701817
     18 O                    -0.689214
     19 O                    -0.656974
  ----------------------------------------
  Sum of atomic charges =    -2.000000

 -----------------------------------------------------------------
                    Cartesian Multipole Moments
 -----------------------------------------------------------------
    Charge (ESU x 10^10)
                -9.6064
    Dipole Moment (Debye)
         X     -12.4828      Y       2.1620      Z      -3.9323
       Tot      13.2649
    Quadrupole Moments (Debye-Ang)
        XX    -161.8964     XY     -10.0071     YY     -79.2550
        XZ     -12.5439     YZ      -2.4541     ZZ     -85.1767
    Octopole Moments (Debye-Ang^2)
       XXX    -362.5182    XXY       3.0672    XYY     -56.8870
       YYY      16.0779    XXZ     -57.4278    XYZ     -15.2023
       YYZ     -22.3008    XZZ     -26.6727    YZZ      12.0037
       ZZZ     -33.7599
    Hexadecapole Moments (Debye-Ang^3)
      XXXX   -3796.5274   XXXY    -139.8725   XXYY    -588.3949
      XYYY     -38.2559   YYYY    -428.3954   XXXZ    -447.5376
      XXYZ     -73.8945   XYYZ     -92.9914   YYYZ       2.6740
      XXZZ    -526.0517   XYZZ     -43.8258   YYZZ    -152.7535
      XZZZ    -219.7920   YZZZ      -1.9678   ZZZZ    -392.4767
 -----------------------------------------------------------------
 Calculating analytic gradient of the SCF energy
 Gradient of SCF Energy
            1           2           3           4           5           6
    1  -0.0402767  -0.0545572   0.0152447   0.0614389   0.0594043   0.0911479
    2   0.1053233  -0.0567138  -0.0002881  -0.0024779  -0.1107783  -0.0821769
    3  -0.0003211  -0.0179523   0.0730003  -0.0460259  -0.0011501  -0.0252676
            7           8           9          10          11          12
    1  -0.0032859   0.0000220  -0.1117693   0.0155965   0.0162973   0.0641129
    2   0.0074283   0.0717262   0.0654370   0.0013574  -0.0426943  -0.0100790
    3   0.0718723  -0.0323141   0.0136064  -0.0523446   0.0297145   0.0000616
           13          14          15          16          17          18
    1  -0.0250434   0.0127578  -0.0217975  -0.0327784  -0.0348423  -0.0300753
    2   0.0469919  -0.0399083   0.0639721   0.0185821  -0.0429302   0.0464292
    3  -0.0175931   0.0096812  -0.0151089  -0.0123823  -0.0187328   0.0200098
           19
    1   0.0184038
    2  -0.0392008
    3   0.0212467
 Max gradient component =       1.118E-01
 RMS gradient           =       4.613E-02
 Computing fast CPCM-ISWIG gradient
 Updating gradient with PCM contributions...
 -- total gradient after adding PCM contribution --
---------------------------------------------------
  Atom         X              Y              Z     
---------------------------------------------------
   1      -0.001086      -0.000079       0.000026
   2       0.000303       0.000243       0.000082
   3       0.000112       0.000003       0.000150
   4       0.000427      -0.000039      -0.000214
   5       0.000171      -0.000081       0.000036
   6      -0.000007      -0.000002      -0.000015
   7       0.000000       0.000006      -0.000016
   8       0.000004      -0.000001      -0.000016
   9       0.000004      -0.000005      -0.000005
  10       0.000009      -0.000003      -0.000007
  11       0.000001      -0.000001      -0.000008
  12       0.000003      -0.000005      -0.000017
  13       0.000007      -0.000023       0.000025
  14      -0.000013       0.000051       0.000010
  15      -0.000005       0.000016       0.000008
  16       0.000056      -0.000071       0.000002
  17       0.000008      -0.000005      -0.000018
  18       0.000002      -0.000002      -0.000024
  19       0.000002      -0.000003       0.000002
---------------------------------------------------
 Number of fixed atoms: 0
 Gradient time:  CPU 1017.00 s  wall 262.30 s
 ----------------------------------------------------------------
             Standard Nuclear Orientation (Angstroms)
    I     Atom           X                Y                Z
 ----------------------------------------------------------------
    1      C      -2.2999631103     1.2855490739    -0.7292864459
    2      H      -1.6006830988     2.0958927248    -0.5158228370
    3      H      -2.5876909470     1.3290535632    -1.7825004692
    4      H      -3.1947059998     1.4064560263    -0.1116586307
    5      C      -1.6275156365    -0.0490838183    -0.4423541990
    6      C       1.0234322233    -0.9495757257    -0.0250846185
    7      H       1.3469185648    -1.0634512688    -1.0574342648
    8      H       1.1933708211    -1.8868358301     0.5017248618
    9      C       1.6404901007     0.2493972078     0.6289161089
   10      H       1.3078527159     0.3431876915     1.6652273745
   11      H       1.3388191441     1.1622611643     0.1088229335
   12      C       3.1816530258     0.1993001539     0.6318533706
   13      O      -1.4147828499    -0.0864849544     0.9771659219
   14      O      -2.6022112916    -1.0726940031    -0.7549111003
   15      H      -2.1663816754    -1.8953701569    -0.4920416073
   16      O      -0.4791395934    -0.2496955850    -1.0847853561
   17      O       3.7645720142     1.2195478893     1.0828850371
   18      O       3.7472754795    -0.8386797493     0.2016367438
   19      O      -0.5713098870    -1.1977744036     1.1976471766
 ----------------------------------------------------------------
 Nuclear Repulsion Energy =   652.2527662676 hartrees
 There are       44 alpha and       44 beta electrons
 Discretize the solute cavity surface with Lebedev spheres
	Using 110 Lebedev grid points for each H atom
	Using 110 Lebedev grid points for other atoms
	Atomic van der Waals radii will be scaled by 1.20
 Remove points where switching function is < 1.0e-08
 Keep 1108 surface tesserae and discard 982 interior tesserae
 Molecular Surface Area = 195.826 Angst**2
 Requested basis set is def2-TZVPD
 There are 189 shells and 497 basis functions
 A cutoff of  1.0D-14 yielded  16152 shell pairs
 There are    111886 function pairs (    142623 Cartesian)
 Smallest overlap matrix eigenvalue = 2.95E-06
 Guess MOs from SCF MO coefficient file
 Reading MOs from coefficient file
 Reading MOs from coefficient file
 Long-range K will be added via erf
 Coulomb attenuation parameter = 0.3 bohr**(-1)
 A restricted hybrid HF-DFT SCF calculation will be
 performed using Pulay DIIS extrapolation
 Polarizable Continuum solvation model will be applied
 Exchange:     0.1670 Hartree-Fock + 1.0000 wB97X-V + LR-HF
 Correlation:  1.0000 wB97X-V
 Using SG-2 standard quadrature grid
 Nonlocal Correlation:  VV10 with C = 0.0100 and b = 6.00
 Grid used for NLC:  SG-1 standard quadrature
 SCF converges when DIIS error is below 1.0E-08
Using Q-Chem read-in guess as SCF_GUESS READ specified.

 using 4 threads for integral computing
 -------------------------------------------------------
 OpenMP Integral computing Module                
 Release: version 1.0, May 2013, Q-Chem Inc. Pittsburgh 
 -------------------------------------------------------
 using 4 threads for integral computing
 -------------------------------------------------------
 OpenMP Integral computing Module                
 Release: version 1.0, May 2013, Q-Chem Inc. Pittsburgh 
 -------------------------------------------------------
 -------------------------------------------------------
 OpenMP BLAS3 based DFT computing Module                
 Release: version 1.0, May 2013, Q-Chem Inc. Pittsburgh 
 -------------------------------------------------------
 -------------------------------------------------------
 OpenMP BLAS3 based DFT computing Module                
 Release: version 1.0, May 2013, Q-Chem Inc. Pittsburgh 
 -------------------------------------------------------
 -------------------------------------------------------
 OpenMP BLAS3 based DFT computing Module                
 Release: version 1.0, May 2013, Q-Chem Inc. Pittsburgh 
 -------------------------------------------------------
 ---------------------------------------
  Cycle       Energy         DIIS Error
 ---------------------------------------
    1    -646.5670877319      2.56E-04
    2    -646.8614307700      2.62E-04
    3    -646.8646350977      1.24E-04
    4    -646.8651593111      9.25E-05
    5    -646.8654787724      7.16E-05
    6    -646.8656705049      5.59E-05
    7    -646.8658242863      3.91E-05
    8    -646.8659217387      2.28E-05
    9    -646.8659657963      7.99E-06
   10    -646.8659710611      3.00E-06
   11    -646.8659719035      4.19E-07
   12    -646.8659719194      6.06E-08
   13    -646.8659719198      2.57E-08
   14    -646.8659719198      1.66E-08
   15    -646.8659719199      2.96E-09 Convergence criterion met
 ---------------------------------------

************** Final PCM Free Energy Summary **************
 G_electrostatic  =      -0.29908777 hartree =    -187.68040703 kcal/mol
 G_cavitation     =       0.00000000 hartree =       0.00000000 kcal/mol
 G_dispersion     =       0.00000000 hartree =       0.00000000 kcal/mol
 G_repulsion      =       0.00000000 hartree =       0.00000000 kcal/mol
 --------------------------------------------------
 Non-electrostatic Free Energy =       0.00000000 hartree =       0.00000000 kcal/mol
 Total                         =      -0.29908777 hartree =    -187.68040703 kcal/mol
 --------------------------------------------------
 SCF Energy (H0 + V/2)                       =    -646.86597192 
 Solute Internal Energy (H0)                 =    -646.56688415 
 Total Free Energy (H0 + V/2 + non-elec)     =    -646.86597192 hartree
                                             = -405914.52384733 kcal/mol
***********************************************************

 SCF time:  CPU 4536.11 s  wall 1172.65 s
 SCF   energy in the final basis set = -646.86597192
 Total energy in the final basis set = -646.86597192
 
 --------------------------------------------------------------
 
                    Orbital Energies (a.u.)
 --------------------------------------------------------------
 
 Alpha MOs
 -- Occupied --
-19.217 -19.187 -19.169 -19.141 -19.139 -19.138 -10.370 -10.344
-10.316 -10.245 -10.241  -1.211  -1.145  -1.123  -1.056  -1.051
 -0.932  -0.873  -0.829  -0.733  -0.673  -0.611  -0.604  -0.575
 -0.553  -0.548  -0.538  -0.518  -0.500  -0.497  -0.482  -0.474
 -0.463  -0.448  -0.441  -0.420  -0.399  -0.363  -0.348  -0.342
 -0.332  -0.328  -0.310  -0.282
 -- Virtual --
  0.060   0.069   0.079   0.084   0.088   0.097   0.101   0.109
  0.116   0.122   0.129   0.138   0.141   0.147   0.150   0.161
  0.165   0.174   0.175   0.181   0.186   0.192   0.200   0.206
  0.213   0.222   0.228   0.239   0.246   0.252   0.257   0.259
  0.261   0.276   0.282   0.287   0.291   0.294   0.299   0.305
  0.314   0.319   0.327   0.329   0.330   0.339   0.345   0.352
  0.353   0.362   0.371   0.374   0.375   0.378   0.383   0.391
  0.399   0.402   0.406   0.409   0.411   0.416   0.420   0.425
  0.431   0.434   0.442   0.446   0.448   0.459   0.467   0.475
  0.481   0.489   0.495   0.497   0.502   0.505   0.510   0.516
  0.521   0.527   0.534   0.538   0.544   0.547   0.551   0.559
  0.564   0.569   0.578   0.583   0.591   0.596   0.606   0.609
  0.614   0.621   0.625   0.629   0.635   0.646   0.657   0.665
  0.674   0.679   0.683   0.688   0.691   0.699   0.707   0.715
  0.724   0.728   0.742   0.745   0.747   0.757   0.770   0.776
  0.778   0.783   0.792   0.794   0.800   0.806   0.811   0.821
  0.827   0.835   0.839   0.844   0.850   0.860   0.866   0.869
  0.877   0.884   0.888   0.890   0.901   0.907   0.920   0.930
  0.942   0.947   0.964   0.975   0.987   0.992   1.003   1.020
  1.024   1.029   1.041   1.058   1.071   1.080   1.091   1.098
  1.106   1.124   1.137   1.151   1.163   1.168   1.180   1.203
  1.211   1.215   1.223   1.233   1.246   1.264   1.265   1.286
  1.293   1.308   1.316   1.324   1.333   1.354   1.371   1.385
  1.395   1.400   1.416   1.431   1.439   1.456   1.462   1.473
  1.490   1.499   1.517   1.532   1.549   1.562   1.577   1.602
  1.606   1.623   1.695   1.729   1.753   1.791   1.823   1.847
  1.868   1.891   1.903   1.924   1.938   1.945   1.954   1.961
  1.970   1.977   1.984   1.989   1.996   2.007   2.023   2.036
  2.050   2.054   2.081   2.093   2.100   2.124   2.143   2.163
  2.184   2.214   2.218   2.233   2.245   2.276   2.283   2.299
  2.305   2.329   2.351   2.359   2.367   2.388   2.410   2.429
  2.451   2.461   2.468   2.480   2.487   2.504   2.518   2.539
  2.553   2.567   2.603   2.622   2.638   2.646   2.662   2.681
  2.697   2.723   2.737   2.764   2.773   2.801   2.822   2.832
  2.852   2.869   2.893   2.917   2.946   2.949   2.958   2.982
  2.988   3.019   3.025   3.060   3.084   3.091   3.103   3.119
  3.147   3.170   3.170   3.199   3.212   3.248   3.258   3.261
  3.303   3.318   3.342   3.346   3.362   3.384   3.394   3.398
  3.415   3.441   3.443   3.452   3.483   3.492   3.507   3.524
  3.533   3.562   3.568   3.574   3.586   3.593   3.605   3.641
  3.646   3.659   3.664   3.703   3.710   3.726   3.733   3.761
  3.762   3.776   3.787   3.807   3.822   3.841   3.850   3.880
  3.902   3.913   3.944   3.977   4.003   4.041   4.101   4.115
  4.163   4.190   4.202   4.230   4.249   4.285   4.301   4.311
  4.424   4.464   4.576   4.591   4.631   4.648   4.666   4.684
  4.770   4.821   4.829   4.873   4.886   4.924   4.986   4.998
  5.048   5.100   5.132   5.235   5.264   5.290   5.325   5.362
  5.363   5.373   5.376   5.454   5.459   5.489   5.504   5.510
  5.552   5.556   5.591   5.643   5.668   5.712   5.721   5.729
  5.777   5.791   5.822   5.858   5.933   6.010   6.134   6.189
  6.249   6.264   6.288   6.312   6.328   6.369   6.441   6.480
  6.506   6.626   6.637   6.680   6.697   6.704   6.751   6.767
  6.789   6.815   6.851   6.875   6.894   6.941   6.967   6.971
  6.994   7.045   7.055   7.143   7.176   7.216   7.253   7.275
  7.300   7.362   7.400   7.410   7.413   7.514   7.529   7.600
  7.638   8.448  22.704  22.827  22.934  23.201  23.735  44.270
 44.324  44.418  44.444  44.572  44.748
 --------------------------------------------------------------
 
          Ground-State Mulliken Net Atomic Charges

     Atom                 Charge (a.u.)
  ----------------------------------------
      1 C                    -1.213632
      2 H                     0.218857
      3 H                     0.274421
      4 H                     0.246359
      5 C                     0.795854
      6 C                     0.344897
      7 H                     0.166259
      8 H                     0.178423
      9 C                    -0.170140
     10 H                     0.201164
     11 H                     0.149074
     12 C                     0.023818
     13 O                    -0.257587
     14 O                    -0.547664
     15 H                     0.341609
     16 O                    -0.703660
     17 O                    -0.701821
     18 O                    -0.689214
     19 O                    -0.657016
  ----------------------------------------
  Sum of atomic charges =    -2.000000

 -----------------------------------------------------------------
                    Cartesian Multipole Moments
 -----------------------------------------------------------------
    Charge (ESU x 10^10)
                -9.6064
    Dipole Moment (Debye)
         X     -12.4825      Y       2.1620      Z      -3.9325
       Tot      13.2646
    Quadrupole Moments (Debye-Ang)
        XX    -161.9015     XY     -10.0017     YY     -79.2524
        XZ     -12.5429     YZ      -2.4531     ZZ     -85.1787
    Octopole Moments (Debye-Ang^2)
       XXX    -362.5185    XXY       3.0418    XYY     -56.8899
       YYY      16.0692    XXZ     -57.4326    XYZ     -15.2057
       YYZ     -22.3010    XZZ     -26.6751    YZZ      11.9961
       ZZZ     -33.7573
    Hexadecapole Moments (Debye-Ang^3)
      XXXX   -3796.4785   XXXY    -139.7807   XXYY    -588.4141
      XYYY     -38.2223   YYYY    -428.4314   XXXZ    -447.5102
      XXYZ     -73.8844   XYYZ     -92.9905   YYYZ       2.6882
      XXZZ    -526.0366   XYZZ     -43.8098   YYZZ    -152.7724
      XZZZ    -219.7856   YZZZ      -1.9474   ZZZZ    -392.4930
 -----------------------------------------------------------------
 Calculating analytic gradient of the SCF energy
 Gradient of SCF Energy
            1           2           3           4           5           6
    1  -0.0393604  -0.0551430   0.0151829   0.0610336   0.0595608   0.0911610
    2   0.1060912  -0.0574102  -0.0002845  -0.0024543  -0.1108296  -0.0821793
    3  -0.0003296  -0.0181329   0.0728473  -0.0457653  -0.0010671  -0.0252698
            7           8           9          10          11          12
    1  -0.0032778   0.0000201  -0.1117760   0.0155969   0.0162917   0.0641166
    2   0.0074281   0.0717276   0.0654313   0.0013497  -0.0426896  -0.0100693
    3   0.0718747  -0.0323153   0.0136069  -0.0523441   0.0297102   0.0000637
           13          14          15          16          17          18
    1  -0.0250649   0.0127682  -0.0218094  -0.0327868  -0.0348425  -0.0300755
    2   0.0469889  -0.0399681   0.0639765   0.0185921  -0.0429305   0.0464288
    3  -0.0175734   0.0096969  -0.0151105  -0.0124070  -0.0187329   0.0200096
           19
    1   0.0184046
    2  -0.0391988
    3   0.0212385
 Max gradient component =       1.118E-01
 RMS gradient           =       4.617E-02
 Computing fast CPCM-ISWIG gradient
 Updating gradient with PCM contributions...
 -- total gradient after adding PCM contribution --
---------------------------------------------------
  Atom         X              Y              Z     
---------------------------------------------------
   1       0.000079       0.000981       0.000043
   2      -0.000253      -0.000369      -0.000061
   3      -0.000004      -0.000081       0.000039
   4       0.000045      -0.000096      -0.000008
   5       0.000083      -0.000312       0.000058
   6      -0.000002      -0.000002      -0.000004
   7      -0.000004       0.000006      -0.000017
   8       0.000004      -0.000001      -0.000016
   9       0.000004      -0.000005      -0.000005
  10       0.000010      -0.000003      -0.000007
  11       0.000002      -0.000001      -0.000008
  12       0.000004      -0.000004      -0.000017
  13       0.000011      -0.000016       0.000023
  14       0.000005      -0.000077       0.000023
  15      -0.000014       0.000002       0.000004
  16       0.000015      -0.000016       0.000001
  17       0.000007      -0.000005      -0.000018
  18       0.000001      -0.000002      -0.000025
  19       0.000007       0.000002      -0.000005
---------------------------------------------------
 Number of fixed atoms: 0
 Gradient time:  CPU 1020.38 s  wall 263.02 s
 ----------------------------------------------------------------
             Standard Nuclear Orientation (Angstroms)
    I     Atom           X                Y                Z
 ----------------------------------------------------------------
    1      C      -2.2999631103     1.2835490739    -0.7292864459
    2      H      -1.6006830988     2.0958927248    -0.5158228370
    3      H      -2.5876909470     1.3290535632    -1.7825004692
    4      H      -3.1947059998     1.4064560263    -0.1116586307
    5      C      -1.6275156365    -0.0490838183    -0.4423541990
    6      C       1.0234322233    -0.9495757257    -0.0250846185
    7      H       1.3469185648    -1.0634512688    -1.0574342648
    8      H       1.1933708211    -1.8868358301     0.5017248618
    9      C       1.6404901007     0.2493972078     0.6289161089
   10      H       1.3078527159     0.3431876915     1.6652273745
   11      H       1.3388191441     1.1622611643     0.1088229335
   12      C       3.1816530258     0.1993001539     0.6318533706
   13      O      -1.4147828499    -0.0864849544     0.9771659219
   14      O      -2.6022112916    -1.0726940031    -0.7549111003
   15      H      -2.1663816754    -1.8953701569    -0.4920416073
   16      O      -0.4791395934    -0.2496955850    -1.0847853561
   17      O       3.7645720142     1.2195478893     1.0828850371
   18      O       3.7472754795    -0.8386797493     0.2016367438
   19      O      -0.5713098870    -1.1977744036     1.1976471766
 ----------------------------------------------------------------
 Nuclear Repulsion Energy =   652.2884291797 hartrees
 There are       44 alpha and       44 beta electrons
 Discretize the solute cavity surface with Lebedev spheres
	Using 110 Lebedev grid points for each H atom
	Using 110 Lebedev grid points for other atoms
	Atomic van der Waals radii will be scaled by 1.20
 Remove points where switching function is < 1.0e-08
 Keep 1109 surface tesserae and discard 981 interior tesserae
 Molecular Surface Area = 195.806 Angst**2
 Requested basis set is def2-TZVPD
 There are 189 shells and 497 basis functions
 A cutoff of  1.0D-14 yielded  16152 shell pairs
 There are    111886 function pairs (    142623 Cartesian)
 Smallest overlap matrix eigenvalue = 2.95E-06
 Guess MOs from SCF MO coefficient file
 Reading MOs from coefficient file
 Reading MOs from coefficient file
 Long-range K will be added via erf
 Coulomb attenuation parameter = 0.3 bohr**(-1)
 A restricted hybrid HF-DFT SCF calculation will be
 performed using Pulay DIIS extrapolation
 Polarizable Continuum solvation model will be applied
 Exchange:     0.1670 Hartree-Fock + 1.0000 wB97X-V + LR-HF
 Correlation:  1.0000 wB97X-V
 Using SG-2 standard quadrature grid
 Nonlocal Correlation:  VV10 with C = 0.0100 and b = 6.00
 Grid used for NLC:  SG-1 standard quadrature
 SCF converges when DIIS error is below 1.0E-08
Using Q-Chem read-in guess as SCF_GUESS READ specified.

 using 4 threads for integral computing
 -------------------------------------------------------
 OpenMP Integral computing Module                
 Release: version 1.0, May 2013, Q-Chem Inc. Pittsburgh 
 -------------------------------------------------------
 using 4 threads for integral computing
 -------------------------------------------------------
 OpenMP Integral computing Module                
 Release: version 1.0, May 2013, Q-Chem Inc. Pittsburgh 
 -------------------------------------------------------
 -------------------------------------------------------
 OpenMP BLAS3 based DFT computing Module                
 Release: version 1.0, May 2013, Q-Chem Inc. Pittsburgh 
 -------------------------------------------------------
 -------------------------------------------------------
 OpenMP BLAS3 based DFT computing Module                
 Release: version 1.0, May 2013, Q-Chem Inc. Pittsburgh 
 -------------------------------------------------------
 -------------------------------------------------------
 OpenMP BLAS3 based DFT computing Module                
 Release: version 1.0, May 2013, Q-Chem Inc. Pittsburgh 
 -------------------------------------------------------
 ---------------------------------------
  Cycle       Energy         DIIS Error
 ---------------------------------------
    1    -646.5660924710      2.57E-04
    2    -646.8614293936      2.62E-04
    3    -646.8646370908      1.25E-04
    4    -646.8651626436      9.23E-05
    5    -646.8654915898      7.06E-05
    6    -646.8656995484      5.31E-05
    7    -646.8658712127      3.24E-05
    8    -646.8659506472      1.48E-05
    9    -646.8659706662      3.63E-06
   10    -646.8659717850      1.20E-06
   11    -646.8659719198      1.86E-07
   12    -646.8659719228      4.61E-08
   13    -646.8659719230      2.28E-08
   14    -646.8659719231      1.04E-08
   15    -646.8659719231      2.51E-09 Convergence criterion met
 ---------------------------------------

************** Final PCM Free Energy Summary **************
 G_electrostatic  =      -0.29909970 hartree =    -187.68789169 kcal/mol
 G_cavitation     =       0.00000000 hartree =       0.00000000 kcal/mol
 G_dispersion     =       0.00000000 hartree =       0.00000000 kcal/mol
 G_repulsion      =       0.00000000 hartree =       0.00000000 kcal/mol
 --------------------------------------------------
 Non-electrostatic Free Energy =       0.00000000 hartree =       0.00000000 kcal/mol
 Total                         =      -0.29909970 hartree =    -187.68789169 kcal/mol
 --------------------------------------------------
 SCF Energy (H0 + V/2)                       =    -646.86597192 
 Solute Internal Energy (H0)                 =    -646.56687223 
 Total Free Energy (H0 + V/2 + non-elec)     =    -646.86597192 hartree
                                             = -405914.52384935 kcal/mol
***********************************************************

 SCF time:  CPU 4545.16 s  wall 1175.70 s
 SCF   energy in the final basis set = -646.86597192
 Total energy in the final basis set = -646.86597192
 
 --------------------------------------------------------------
 
                    Orbital Energies (a.u.)
 --------------------------------------------------------------
 
 Alpha MOs
 -- Occupied --
-19.217 -19.187 -19.169 -19.141 -19.139 -19.138 -10.370 -10.344
-10.316 -10.245 -10.241  -1.211  -1.145  -1.123  -1.056  -1.051
 -0.932  -0.873  -0.829  -0.733  -0.673  -0.611  -0.604  -0.575
 -0.553  -0.548  -0.538  -0.518  -0.500  -0.497  -0.481  -0.474
 -0.463  -0.448  -0.441  -0.420  -0.399  -0.363  -0.348  -0.342
 -0.332  -0.328  -0.310  -0.282
 -- Virtual --
  0.060   0.069   0.079   0.084   0.088   0.097   0.101   0.109
  0.116   0.122   0.129   0.138   0.141   0.147   0.150   0.161
  0.165   0.174   0.175   0.181   0.186   0.192   0.200   0.206
  0.213   0.222   0.228   0.239   0.246   0.252   0.257   0.259
  0.261   0.276   0.282   0.287   0.291   0.294   0.299   0.305
  0.314   0.319   0.327   0.329   0.330   0.339   0.345   0.352
  0.353   0.362   0.371   0.374   0.375   0.378   0.383   0.391
  0.399   0.402   0.406   0.409   0.411   0.416   0.420   0.425
  0.431   0.434   0.442   0.446   0.448   0.459   0.467   0.475
  0.481   0.489   0.495   0.497   0.503   0.505   0.510   0.516
  0.521   0.527   0.534   0.538   0.544   0.547   0.552   0.559
  0.564   0.569   0.578   0.583   0.591   0.596   0.606   0.609
  0.614   0.621   0.625   0.629   0.635   0.646   0.657   0.665
  0.674   0.679   0.683   0.688   0.691   0.699   0.707   0.715
  0.724   0.728   0.742   0.745   0.747   0.757   0.770   0.776
  0.778   0.783   0.792   0.794   0.800   0.806   0.811   0.821
  0.826   0.835   0.839   0.844   0.850   0.860   0.866   0.869
  0.877   0.884   0.888   0.890   0.901   0.907   0.920   0.930
  0.943   0.947   0.964   0.975   0.987   0.992   1.003   1.020
  1.024   1.029   1.041   1.058   1.071   1.080   1.091   1.098
  1.106   1.124   1.137   1.151   1.163   1.168   1.180   1.203
  1.211   1.215   1.223   1.233   1.246   1.264   1.265   1.286
  1.293   1.309   1.316   1.324   1.333   1.354   1.371   1.385
  1.395   1.400   1.416   1.431   1.439   1.456   1.462   1.473
  1.491   1.499   1.517   1.532   1.549   1.562   1.577   1.602
  1.606   1.624   1.696   1.729   1.753   1.791   1.823   1.847
  1.868   1.891   1.903   1.924   1.938   1.945   1.954   1.961
  1.971   1.977   1.984   1.989   1.996   2.007   2.023   2.036
  2.050   2.054   2.081   2.093   2.100   2.124   2.143   2.163
  2.184   2.214   2.218   2.233   2.245   2.276   2.283   2.299
  2.305   2.329   2.351   2.359   2.367   2.388   2.410   2.429
  2.451   2.461   2.468   2.480   2.487   2.504   2.518   2.539
  2.553   2.567   2.603   2.622   2.638   2.646   2.663   2.682
  2.697   2.723   2.737   2.765   2.773   2.801   2.822   2.832
  2.852   2.869   2.893   2.917   2.946   2.949   2.958   2.982
  2.988   3.019   3.026   3.060   3.084   3.091   3.103   3.119
  3.147   3.170   3.170   3.199   3.212   3.248   3.258   3.261
  3.303   3.318   3.342   3.346   3.362   3.384   3.394   3.398
  3.415   3.440   3.443   3.452   3.483   3.492   3.507   3.524
  3.533   3.562   3.568   3.574   3.586   3.593   3.605   3.641
  3.646   3.659   3.664   3.703   3.710   3.726   3.733   3.761
  3.763   3.776   3.787   3.807   3.822   3.841   3.850   3.880
  3.903   3.914   3.944   3.977   4.004   4.041   4.101   4.115
  4.164   4.191   4.204   4.230   4.250   4.286   4.301   4.311
  4.424   4.464   4.576   4.591   4.632   4.648   4.666   4.682
  4.770   4.821   4.829   4.874   4.886   4.924   4.986   4.998
  5.048   5.100   5.132   5.235   5.264   5.290   5.325   5.362
  5.363   5.373   5.376   5.454   5.459   5.489   5.504   5.510
  5.552   5.557   5.591   5.644   5.669   5.712   5.721   5.729
  5.777   5.792   5.822   5.858   5.933   6.010   6.135   6.189
  6.249   6.264   6.288   6.312   6.328   6.369   6.441   6.480
  6.506   6.626   6.637   6.680   6.697   6.704   6.751   6.767
  6.789   6.815   6.851   6.875   6.895   6.942   6.967   6.971
  6.995   7.045   7.055   7.144   7.176   7.216   7.253   7.275
  7.300   7.362   7.400   7.410   7.413   7.514   7.529   7.600
  7.638   8.448  22.703  22.827  22.934  23.202  23.735  44.270
 44.324  44.418  44.444  44.572  44.748
 --------------------------------------------------------------
 
          Ground-State Mulliken Net Atomic Charges

     Atom                 Charge (a.u.)
  ----------------------------------------
      1 C                    -1.215833
      2 H                     0.218347
      3 H                     0.274539
      4 H                     0.246464
      5 C                     0.798645
      6 C                     0.344915
      7 H                     0.166283
      8 H                     0.178433
      9 C                    -0.170294
     10 H                     0.201182
     11 H                     0.149174
     12 C                     0.023798
     13 O                    -0.257623
     14 O                    -0.547768
     15 H                     0.341557
     16 O                    -0.703761
     17 O                    -0.701819
     18 O                    -0.689215
     19 O                    -0.657024
  ----------------------------------------
  Sum of atomic charges =    -2.000000

[...]
 IR Active:          YES                    YES                    YES
 IR Intens:       72.310                 13.787                 34.735
 Raman Active:       YES                    YES                    YES
               X      Y      Z        X      Y      Z        X      Y      Z
 C         -0.022 -0.058  0.112    0.002 -0.011 -0.023   -0.065 -0.042  0.002
 H          0.155 -0.150 -0.149    0.015 -0.044  0.050    0.179 -0.250  0.030
 H          0.291 -0.403  0.009   -0.040  0.078 -0.004    0.103  0.093 -0.036
 H         -0.148  0.226 -0.151    0.044 -0.047  0.045   -0.014  0.226  0.013
 C         -0.068  0.089 -0.135   -0.007  0.015  0.027    0.089  0.066 -0.005
 C         -0.007  0.010  0.011   -0.002 -0.122  0.016   -0.027 -0.142 -0.110
 H          0.061  0.058  0.023    0.143  0.039  0.030   -0.372 -0.247 -0.202
 H          0.016 -0.010 -0.034   -0.483 -0.343 -0.243    0.189 -0.122 -0.101
 C         -0.000 -0.007 -0.026    0.023  0.176 -0.061    0.011  0.123  0.142
 H          0.036 -0.039 -0.011    0.515  0.052  0.117   -0.076  0.277  0.101
 H         -0.058 -0.011  0.006   -0.347  0.184  0.181    0.498  0.282  0.124
 C          0.001 -0.007  0.017   -0.009 -0.057  0.127   -0.008  0.029 -0.079
 O          0.004  0.009  0.043    0.004 -0.006 -0.010   -0.002 -0.019  0.006
 O         -0.078 -0.008 -0.017   -0.004  0.002 -0.005   -0.012 -0.006 -0.001
 H          0.575  0.380  0.186    0.064  0.045  0.021   -0.002  0.001 -0.002
 O          0.080 -0.021 -0.008   -0.015  0.006 -0.000    0.009 -0.017  0.013
 O          0.002  0.003 -0.002   -0.016 -0.003 -0.028   -0.013 -0.010  0.011
 O         -0.001  0.002 -0.003    0.014  0.004 -0.026    0.011 -0.012  0.012
 O          0.008 -0.008  0.011    0.017 -0.004 -0.006   -0.024  0.023  0.002
 TransDip   0.019  0.250 -0.106    0.081  0.030  0.082    0.170  0.082 -0.010

 Mode:                31                     32                     33
 Frequency:      1119.29                1187.48                1251.56
 Force Cnst:      1.6403                 1.2804                 1.5822
 Red. Mass:       2.2222                 1.5411                 1.7143
 IR Active:          YES                    YES                    YES
 IR Intens:      274.714                173.353                112.231
 Raman Active:       YES                    YES                    YES
               X      Y      Z        X      Y      Z        X      Y      Z
 C         -0.102 -0.100 -0.081    0.021  0.000 -0.050   -0.022 -0.007  0.040
 H          0.337 -0.545  0.232   -0.045  0.012  0.108    0.093 -0.071 -0.092
 H          0.021  0.429 -0.078   -0.127  0.102  0.001    0.145 -0.101 -0.012
 H          0.135  0.205  0.189    0.082 -0.135  0.077   -0.048  0.052 -0.030
 C          0.130  0.166  0.110   -0.099  0.000  0.115    0.093  0.053 -0.119
 C          0.013  0.083  0.053   -0.048 -0.062 -0.028   -0.010 -0.018 -0.023
 H          0.018  0.126  0.058    0.419  0.104  0.075    0.614  0.076  0.137
 H         -0.075  0.073  0.038    0.667  0.069  0.042    0.043  0.093  0.146
 C         -0.008 -0.074 -0.058   -0.031 -0.023 -0.008   -0.086 -0.058 -0.042
 H         -0.038 -0.148 -0.063    0.300  0.164  0.085    0.407  0.122  0.097
 H         -0.175 -0.140 -0.074    0.150  0.065  0.043    0.327  0.137  0.065
 C          0.008 -0.006  0.021   -0.011 -0.011  0.008   -0.008 -0.015  0.007
 O          0.009 -0.042 -0.024    0.021 -0.030 -0.000   -0.015  0.013 -0.000
 O         -0.034 -0.013 -0.019   -0.024  0.002 -0.020    0.029 -0.009  0.020
 H          0.125  0.090  0.043    0.235  0.161  0.085   -0.282 -0.197 -0.103
 O         -0.020 -0.022 -0.011    0.046  0.009 -0.048   -0.098  0.010  0.058
 O          0.007  0.001 -0.004    0.013  0.020  0.007    0.022  0.027  0.010
 O         -0.007  0.008 -0.001   -0.003 -0.003 -0.003   -0.005  0.002 -0.001
 O         -0.008  0.010  0.004   -0.032  0.041  0.005    0.011 -0.016  0.004
 TransDip   0.405  0.262  0.222   -0.378  0.022  0.185    0.206 -0.075 -0.259

 Mode:                34                     35                     36
 Frequency:      1264.03                1312.11                1359.33
 Force Cnst:      1.1302                 1.5738                 1.6539
 Red. Mass:       1.2006                 1.5515                 1.5191
 IR Active:          YES                    YES                    YES
 IR Intens:       11.212                 96.848                105.470
 Raman Active:       YES                    YES                    YES
               X      Y      Z        X      Y      Z        X      Y      Z
 C          0.005  0.001 -0.008   -0.008  0.007  0.008    0.021 -0.086  0.024
 H         -0.017  0.013  0.019    0.092 -0.080 -0.000   -0.319  0.282 -0.186
 H         -0.029  0.019  0.002    0.075 -0.113 -0.018   -0.117  0.483  0.072
 H          0.011 -0.011  0.007    0.006 -0.086  0.037   -0.071  0.457 -0.202
 C         -0.016 -0.010  0.023   -0.004  0.065 -0.035    0.117 -0.113 -0.010
 C          0.003 -0.036  0.091   -0.077 -0.049 -0.020   -0.028 -0.013 -0.016
 H          0.183  0.266  0.109    0.509  0.015  0.118    0.204  0.017  0.043
 H         -0.149 -0.222 -0.191    0.313 -0.008 -0.018    0.082  0.033  0.038
 C         -0.016  0.014 -0.064    0.151  0.076  0.034    0.030  0.011  0.007
 H         -0.398 -0.385 -0.152   -0.507 -0.120 -0.152   -0.087 -0.001 -0.028
 H          0.504  0.346  0.221   -0.417 -0.113  0.014   -0.093 -0.026  0.009
 C         -0.001  0.014 -0.042    0.011  0.018 -0.000    0.017  0.004  0.002
 O          0.001  0.001 -0.004   -0.001 -0.004  0.001   -0.012  0.019 -0.003
 O         -0.003  0.003 -0.004    0.018 -0.011  0.010   -0.033  0.022 -0.013
 H          0.048  0.035  0.020   -0.186 -0.133 -0.065    0.317  0.226  0.107
 O          0.007  0.003 -0.008   -0.031  0.002  0.008   -0.054  0.023  0.023
 O          0.005  0.004  0.008   -0.027 -0.032 -0.013   -0.009 -0.012 -0.005
 O         -0.002 -0.001  0.006    0.002  0.001  0.001   -0.005  0.007  0.003
 O          0.002 -0.000 -0.001   -0.007 -0.002  0.009   -0.000 -0.002 -0.001
 TransDip  -0.019 -0.052  0.092   -0.283  0.132 -0.039    0.327  0.032  0.006

 Mode:                37                     38                     39
 Frequency:      1415.59                1427.85                1459.45
 Force Cnst:     10.3177                 2.8391                 1.4291
 Red. Mass:       8.7389                 2.3635                 1.1388
 IR Active:          YES                    YES                    YES
 IR Intens:      573.768                 93.307                 31.229
 Raman Active:       YES                    YES                    YES
               X      Y      Z        X      Y      Z        X      Y      Z
 C         -0.043  0.085 -0.020    0.099 -0.159  0.038    0.006 -0.003 -0.001
 H          0.187 -0.140  0.076   -0.322  0.237 -0.108   -0.008 -0.003  0.038
 H          0.092 -0.231 -0.070   -0.232  0.367  0.150   -0.043 -0.018  0.012
 H          0.026 -0.222  0.138   -0.060  0.348 -0.284   -0.007  0.023 -0.023
 C          0.043 -0.085  0.008   -0.153  0.211 -0.013   -0.007  0.008  0.001
 C         -0.018 -0.018 -0.012    0.011  0.003  0.009    0.020  0.007  0.006
 H          0.062 -0.061  0.005   -0.058 -0.042 -0.010   -0.046  0.025 -0.011
 H          0.087 -0.028 -0.032   -0.010 -0.037 -0.047   -0.044  0.007  0.015
 C         -0.144  0.022  0.010   -0.031  0.005  0.001    0.008 -0.083 -0.045
 H          0.145 -0.182  0.119    0.061 -0.066  0.036   -0.202  0.647 -0.163
 H          0.147 -0.003 -0.200    0.064 -0.004 -0.068   -0.199  0.247  0.626
 C          0.610 -0.007  0.013    0.069 -0.004  0.000    0.034  0.017  0.007
 O          0.000  0.004  0.003    0.012 -0.021 -0.003   -0.000 -0.000 -0.000
 O         -0.012  0.012 -0.006    0.041 -0.029  0.017    0.001 -0.001  0.001
 H          0.139  0.099  0.046   -0.404 -0.287 -0.137   -0.015 -0.010 -0.005
 O         -0.008  0.012  0.009    0.050 -0.027 -0.019    0.005 -0.002 -0.001
 O         -0.184 -0.241 -0.108   -0.019 -0.025 -0.011   -0.012 -0.019 -0.008
 O         -0.189  0.251  0.102   -0.022  0.029  0.012   -0.005  0.005  0.002
 O          0.001  0.012 -0.005    0.003 -0.001  0.007    0.001 -0.001  0.000
 TransDip   0.765 -0.046  0.033   -0.214  0.214 -0.067    0.000  0.159  0.082

 Mode:                40                     41                     42
 Frequency:      1467.14                1470.53                1532.97
 Force Cnst:      1.3379                 1.3361                 1.5714
 Red. Mass:       1.0550                 1.0486                 1.1349
 IR Active:          YES                    YES                    YES
 IR Intens:        3.427                  2.924                  8.143
 Raman Active:       YES                    YES                    YES
               X      Y      Z        X      Y      Z        X      Y      Z
 C          0.036  0.011 -0.035   -0.025 -0.030 -0.036    0.001 -0.002  0.000
 H         -0.065 -0.088  0.639   -0.387  0.228  0.230   -0.003  0.002 -0.008
 H         -0.484 -0.418  0.095    0.426 -0.153 -0.151    0.006  0.008  0.001
 H         -0.037  0.345 -0.179    0.394  0.325  0.501    0.004 -0.006  0.002
 C          0.030 -0.003 -0.022   -0.021 -0.000 -0.020   -0.010  0.005  0.004
 C         -0.004 -0.002 -0.005    0.001  0.001 -0.000   -0.009 -0.090 -0.041
 H          0.031  0.009  0.003    0.003 -0.004  0.000   -0.135  0.693 -0.129
 H         -0.000  0.011  0.014   -0.005 -0.001 -0.002   -0.188  0.280  0.598
 C          0.002  0.005  0.003   -0.001 -0.001 -0.000    0.017  0.016  0.006
 H          0.009 -0.035  0.009    0.001  0.006 -0.001   -0.020 -0.031 -0.001
 H          0.004 -0.017 -0.037   -0.001  0.002  0.005   -0.004 -0.004 -0.018
 C         -0.003 -0.001  0.000    0.002 -0.000  0.000    0.008  0.016  0.006
 O         -0.002  0.003  0.002    0.001  0.001  0.002    0.001 -0.001 -0.000
 O         -0.003  0.001  0.001    0.003 -0.001  0.002    0.001 -0.001  0.000
 H          0.014  0.011  0.008   -0.027 -0.019 -0.006   -0.010 -0.006 -0.004
 O         -0.008  0.001  0.006    0.004 -0.000  0.002    0.014 -0.003 -0.003
 O          0.001  0.001  0.000   -0.001 -0.001 -0.000   -0.007 -0.010 -0.004
 O          0.001 -0.001 -0.000   -0.001  0.001  0.000    0.001 -0.003 -0.001
 O         -0.000 -0.002  0.000    0.001 -0.001  0.000    0.008 -0.001 -0.002
 TransDip   0.008 -0.036  0.047   -0.001  0.035  0.042   -0.019  0.082  0.035

 Mode:                43                     44                     45
 Frequency:      1585.72                3062.30                3090.10
 Force Cnst:     14.9858                 5.7246                 5.9690
 Red. Mass:      10.1153                 1.0361                 1.0610
 IR Active:          YES                    YES                    YES
 IR Intens:     1289.553                 30.019                 24.133
 Raman Active:       YES                    YES                    YES
               X      Y      Z        X      Y      Z        X      Y      Z
 C          0.000  0.000 -0.000   -0.030  0.040 -0.003   -0.000  0.001 -0.001
 H          0.000  0.000 -0.000   -0.334 -0.373 -0.101   -0.009 -0.010 -0.003
 H          0.001 -0.000 -0.000    0.132 -0.014  0.513    0.007 -0.001  0.022
 H          0.001 -0.001  0.001    0.550 -0.066 -0.384    0.005 -0.000 -0.004
 C          0.000 -0.001 -0.000    0.001 -0.003  0.001    0.000 -0.000  0.000
 C         -0.017  0.026  0.013   -0.000  0.002  0.000    0.001  0.005  0.002
 H          0.039 -0.110  0.050    0.001 -0.003 -0.011    0.010 -0.002 -0.041
 H          0.055 -0.028 -0.111    0.004 -0.018  0.011    0.003 -0.040  0.024
 C         -0.036 -0.053 -0.023   -0.001  0.002  0.000    0.032 -0.058 -0.020
 H          0.257 -0.117  0.082    0.002 -0.002 -0.013   -0.186  0.041  0.602
 H          0.311  0.008 -0.137    0.006 -0.017  0.010   -0.206  0.638 -0.376
 C         -0.009  0.705  0.301    0.000  0.000  0.000   -0.001 -0.001 -0.000
 O          0.001  0.000  0.000   -0.000  0.000  0.000   -0.000  0.000 -0.000
 O          0.000  0.000  0.000   -0.000  0.000 -0.000   -0.000 -0.000  0.000
 H          0.000  0.000  0.000    0.002 -0.001  0.001    0.001  0.000  0.000
 O         -0.001 -0.000 -0.001   -0.000  0.000 -0.000   -0.000  0.000  0.000
 O         -0.120 -0.238 -0.105   -0.000 -0.000 -0.000    0.000  0.000  0.000
 O          0.126 -0.253 -0.105   -0.000 -0.000  0.000   -0.000  0.000  0.000
 O         -0.001 -0.001  0.001   -0.000  0.000 -0.000    0.000 -0.000  0.000
 TransDip   0.047  1.057  0.452   -0.112  0.134 -0.016   -0.052 -0.139 -0.052

 Mode:                46                     47                     48
 Frequency:      3105.74                3133.19                3138.92
 Force Cnst:      6.0063                 6.3765                 6.3987
 Red. Mass:       1.0569                 1.1025                 1.1023
 IR Active:          YES                    YES                    YES
 IR Intens:      118.663                  1.507                 36.843
 Raman Active:       YES                    YES                    YES
               X      Y      Z        X      Y      Z        X      Y      Z
 C         -0.002  0.001  0.002    0.003  0.001 -0.003   -0.052 -0.016  0.075
 H         -0.004 -0.004 -0.001   -0.014 -0.017 -0.005    0.210  0.249  0.080
 H         -0.002  0.000 -0.002    0.008 -0.001  0.025   -0.170  0.020 -0.579
 H          0.028 -0.004 -0.019   -0.031  0.004  0.021    0.587 -0.079 -0.400
 C         -0.001  0.000  0.000    0.000 -0.000  0.000   -0.002  0.000  0.001
 C          0.018 -0.060 -0.024   -0.004 -0.017  0.035   -0.000  0.001  0.001
 H         -0.166  0.040  0.650    0.080 -0.031 -0.288    0.004 -0.001 -0.020
 H         -0.077  0.620 -0.384   -0.036  0.235 -0.132    0.002 -0.015  0.009
 C          0.003 -0.001 -0.000    0.004  0.034 -0.077    0.001  0.001 -0.005
 H         -0.015  0.003  0.040   -0.220  0.063  0.666   -0.015  0.004  0.047
 H         -0.013  0.040 -0.023    0.164 -0.481  0.267    0.007 -0.020  0.011
 C          0.001 -0.001 -0.001    0.000  0.000 -0.001   -0.000  0.000 -0.000
 O         -0.000  0.000  0.000   -0.000  0.000  0.000    0.000 -0.000 -0.000
 O          0.000  0.000 -0.000   -0.000 -0.000 -0.000    0.000 -0.000 -0.000
 H         -0.001 -0.001 -0.001    0.000  0.000  0.000    0.000  0.000 -0.001
 O          0.001 -0.000  0.001    0.000 -0.000 -0.000    0.000  0.000 -0.000
 O         -0.000  0.000  0.000    0.000 -0.000  0.000    0.000  0.000  0.000
 O          0.000  0.001  0.000   -0.000  0.000 -0.000    0.000 -0.000 -0.000
 O          0.001  0.001 -0.001    0.000  0.000  0.000    0.000  0.000 -0.000
 TransDip   0.222 -0.249 -0.102   -0.033 -0.015 -0.015   -0.130 -0.015  0.144

 Mode:                49                     50                     51
 Frequency:      3150.91                3158.80                3793.67
 Force Cnst:      6.4568                 6.5331                 9.0282
 Red. Mass:       1.1038                 1.1113                 1.0647
 IR Active:          YES                    YES                    YES
 IR Intens:       35.708                113.809                 59.286
 Raman Active:       YES                    YES                    YES
               X      Y      Z        X      Y      Z        X      Y      Z
 C         -0.062 -0.045 -0.053    0.000 -0.001 -0.002   -0.000  0.000 -0.000
 H          0.508  0.586  0.149    0.005  0.005  0.001   -0.000 -0.000  0.000
 H          0.147 -0.029  0.572    0.004 -0.001  0.015    0.000  0.001  0.002
 H          0.098 -0.021 -0.083   -0.014  0.003  0.009    0.001  0.001 -0.000
 C         -0.002 -0.001 -0.001    0.000  0.000 -0.001    0.000 -0.003  0.000
 C         -0.000 -0.001  0.001    0.009  0.039 -0.079   -0.000  0.000 -0.000
 H          0.003 -0.001 -0.010   -0.176  0.071  0.644    0.000 -0.001  0.001
 H         -0.002  0.009 -0.005    0.077 -0.529  0.297    0.000  0.000 -0.000
 C         -0.000  0.000 -0.000    0.002  0.015 -0.035    0.000  0.000 -0.000
 H          0.000  0.000 -0.001   -0.096  0.029  0.298   -0.001 -0.000 -0.000
 H          0.001 -0.003  0.002    0.071 -0.217  0.119    0.000  0.000  0.000
 C          0.000  0.000 -0.000   -0.000 -0.000 -0.000   -0.000 -0.000  0.000
 O          0.000  0.000  0.000    0.001 -0.000 -0.000    0.000  0.000  0.000
 O          0.000  0.000  0.000   -0.000 -0.000  0.000    0.027 -0.053  0.016
 H          0.000 -0.000  0.000    0.000 -0.001 -0.000   -0.429  0.863 -0.259
 O          0.000  0.000  0.000   -0.001  0.000  0.001    0.000  0.000 -0.000
 O         -0.000 -0.000  0.000    0.000  0.000  0.000    0.000 -0.000 -0.000
 O         -0.000  0.000 -0.000    0.000 -0.000  0.000    0.000 -0.000  0.000
 O          0.000  0.000  0.000    0.001 -0.000  0.000   -0.000 -0.000 -0.000
 TransDip  -0.137 -0.088 -0.101    0.055  0.140 -0.307   -0.076  0.224 -0.070

 STANDARD THERMODYNAMIC QUANTITIES AT   298.15 K  AND     1.00 ATM

   This Molecule has  1 Imaginary Frequencies
   Zero point vibrational energy:       85.408 kcal/mol

   Atom    1 Element C  Has Mass   12.00000
   Atom    2 Element H  Has Mass    1.00783
   Atom    3 Element H  Has Mass    1.00783
   Atom    4 Element H  Has Mass    1.00783
   Atom    5 Element C  Has Mass   12.00000
   Atom    6 Element C  Has Mass   12.00000
   Atom    7 Element H  Has Mass    1.00783
   Atom    8 Element H  Has Mass    1.00783
   Atom    9 Element C  Has Mass   12.00000
   Atom   10 Element H  Has Mass    1.00783
   Atom   11 Element H  Has Mass    1.00783
   Atom   12 Element C  Has Mass   12.00000
   Atom   13 Element O  Has Mass   15.99491
   Atom   14 Element O  Has Mass   15.99491
   Atom   15 Element H  Has Mass    1.00783
   Atom   16 Element O  Has Mass   15.99491
   Atom   17 Element O  Has Mass   15.99491
   Atom   18 Element O  Has Mass   15.99491
   Atom   19 Element O  Has Mass   15.99491
   Molecular Mass:   164.032100 amu
   Principal axes and moments of inertia in amu*Bohr^2:
                             1           2           3
    Eigenvalues --      716.03796  3513.10050  3658.57586
          X               0.98098    -0.04828    -0.18800
          Y               0.06299     0.99533     0.07308
          Z               0.18359    -0.08354     0.97945
   Rotational Symmetry Number is   1
   The Molecule is an Asymmetric Top
   Translational Enthalpy:        0.889 kcal/mol
   Rotational Enthalpy:           0.889 kcal/mol
   Vibrational Enthalpy:         90.887 kcal/mol
   gas constant (RT):             0.592 kcal/mol
   Translational Entropy:        41.193  cal/mol.K
   Rotational Entropy:           30.599  cal/mol.K
   Vibrational Entropy:          37.018  cal/mol.K

   Total Enthalpy:               93.257 kcal/mol
   Total Entropy:               108.810  cal/mol.K
Archival summary:
1\1\c4-86\FREQ\ProcedureUnspecified\BasisUnspecified\658(2-,1)\alotsuki\FriApr2023:27:282018FriApr2023:27:282018\0\\#,FREQ,ProcedureUnspecified,BasisUnspecified,\\-2,1\O\O,1,1.41245\C,1,1.43586,2,105.265\O,3,1.33106,1,110.206,2,-44.1691,0\O,3,1.44758,1,107.145,2,77.5862,0\H,5,0.96739,3,103.846,1,-62.5222,0\C,3,1.52089,1,105.954,2,-169.166,0\H,7,1.09217,3,109.357,1,66.6296,0\H,7,1.09272,3,109.51,1,-173.907,0\H,7,1.09402,3,110.659,1,-53.8252,0\C,4,1.96736,3,116.909,1,14.2073,0\H,11,1.08782,4,75.7108,3,167.022,0\H,11,1.08851,4,133.333,3,64.456,0\C,11,1.49867,4,105.362,3,-83.5991,0\H,14,1.09242,11,110.934,4,99.7953,0\H,14,1.09308,11,110.295,4,-18.821,0\C,14,1.54198,11,112.728,4,-139.23,0\O,17,1.25794,14,118.396,11,-5.24308,0\O,17,1.25862,14,115.928,11,175.239,0\\\@

 Total job time:  165746.69s(wall), 640727.45s(cpu) 
 Fri Apr 20 23:27:28 2018

        *************************************************************
        *                                                           *
        *  Thank you very much for using Q-Chem.  Have a nice day.  *
        *                                                           *
        *************************************************************


