19   
From 2-transition-freq.out: Frame 1 / 115, Energy=    -646.8659728479
C       -2.2999631103    1.2845490739   -0.7292864459
H       -1.6006830988    2.0958927248   -0.5158228370
H       -2.5876909470    1.3290535632   -1.7825004692
H       -3.1947059998    1.4064560263   -0.1116586307
C       -1.6275156365   -0.0490838183   -0.4423541990
C        1.0234322233   -0.9495757257   -0.0250846185
H        1.3469185648   -1.0634512688   -1.0574342648
H        1.1933708211   -1.8868358301    0.5017248618
C        1.6404901007    0.2493972078    0.6289161089
H        1.3078527159    0.3431876915    1.6652273745
H        1.3388191441    1.1622611643    0.1088229335
C        3.1816530258    0.1993001539    0.6318533706
O       -1.4147828499   -0.0864849544    0.9771659219
O       -2.6022112916   -1.0726940031   -0.7549111003
H       -2.1663816754   -1.8953701569   -0.4920416073
O       -0.4791395934   -0.2496955850   -1.0847853561
O        3.7645720142    1.2195478893    1.0828850371
O        3.7472754795   -0.8386797493    0.2016367438
O       -0.5713098870   -1.1977744036    1.1976471766
