
Running Job 1 of 1 qc-freq2.in
qchem qc-freq2.in_27580.0 /scratch/leeping/1862737/qc-freq2.d/ 1
/home/leeping/opt/qchem/5.0.2-openmp/exe/qcprog.exe_s qc-freq2.in_27580.0 /scratch/leeping/1862737/qc-freq2.d/
Check license passed

                  Welcome to Q-Chem
     A Quantum Leap Into The Future Of Chemistry


 Q-Chem 5.0, Q-Chem, Inc., Pleasanton, CA (2017)

 Yihan Shao,  Zhengting Gan,  E. Epifanovsky,  A. T. B. Gilbert,  M. Wormit,  
 J. Kussmann,  A. W. Lange,  A. Behn,  Jia Deng,  Xintian Feng,  D. Ghosh,  
 M. Goldey,  P. R. Horn,  L. D. Jacobson,  I. Kaliman,  T. Kus,  A. Landau,  
 Jie Liu,  E. I. Proynov,  R. M. Richard,  R. P. Steele,  E. J. Sundstrom,  
 H. L. Woodcock III,  P. M. Zimmerman,  D. Zuev,  B. Albrecht,  E. Alguire,  
 S. A. Baeppler,  D. Barton,  Z. Benda,  Y. A. Bernard,  E. J. Berquist,  
 K. B. Bravaya,  H. Burton,  D. Casanova,  Chun-Min Chang,  Yunqing Chen,  
 A. Chien,  K. D. Closser,  M. P. Coons,  S. Dasgupta,  A. L. Dempwolff,  
 M. Diedenhofen,  Hainam Do,  R. G. Edgar,  Po-Tung Fang,  S. Fatehi,  
 Qingguo Feng,  J. Fosso-Tande,  Qinghui Ge,  A. Ghysels,  G. Gidofalvi,  
 J. Gomes,  J. Gonthier,  A. Gunina,  M. W. D. Hanson-Heine,  
 P. H. P. Harbach,  A. W. Hauser,  J. E. Herr,  E. G. Hohenstein,  
 Z. C. Holden,  Kerwin Hui,  T.-C. Jagau,  Hyunjun Ji,  B. Kaduk,  
 K. Khistyaev,  Jaehoon Kim,  P. Klunzinger,  K. Koh,  D. Kosenkov,  
 L. Koulias,  T. Kowalczyk,  C. M. Krauter,  A. Kunitsa,  Ka Un Lao,  
 A. Laurent,  K. V. Lawler,  Joonho Lee,  D. Lefrancois,  S. Lehtola,  
 D. S. Levine,  Yi-Pei Li,  You-Sheng Lin,  Fenglai Liu,  E. Livshits,  
 A. Luenser,  P. Manohar,  E. Mansoor,  S. F. Manzer,  Shan-Ping Mao,  
 Yuezhi Mao,  N. Mardirossian,  A. V. Marenich,  T. Markovich,  
 L. A. Martinez-Martinez,  S. A. Maurer,  N. J. Mayhall,  S. C. McKenzie,  
 J.-M. Mewes,  A. F. Morrison,  J. W. Mullinax,  K. Nanda,  
 T. S. Nguyen-Beck,  R. Olivares-Amaya,  J. A. Parkhill,  T. M. Perrine,  
 F. Plasser,  S. Prager,  A. Prociuk,  E. Ramos,  D. R. Rehn,  F. Rob,  
 M. Schneider,  N. Sergueev,  S. M. Sharada,  S. Sharma,  D. W. Small,  
 T. Stauch,  T. Stein,  Yu-Chuan Su,  A. J. W. Thom,  A. Tkatchenko,  
 T. Tsuchimochi,  L. Vogt,  O. Vydrov,  M. A. Watson,  J. Wenzel,  
 M. de Wergifosse,  T. A. Wesolowski,  A. White,  J. Witte,  A. Yamada,  
 Jun Yang,  K. Yao,  S. Yeganeh,  S. R. Yost,  Zhi-Qiang You,  A. Zech,  
 Igor Ying Zhang,  Xing Zhang,  Yan Zhao,  Ying Zhu,  B. R. Brooks,  
 G. K. L. Chan,  C. J. Cramer,  M. S. Gordon,  W. J. Hehre,  A. Klamt,  
 M. W. Schmidt,  C. D. Sherrill,  D. G. Truhlar,  A. Aspuru-Guzik,  R. Baer,  
 A. T. Bell,  N. A. Besley,  Jeng-Da Chai,  R. A. DiStasio Jr.,  A. Dreuw,  
 B. D. Dunietz,  T. R. Furlani,  Chao-Ping Hsu,  Yousung Jung,  Jing Kong,  
 D. S. Lambrecht,  WanZhen Liang,  C. Ochsenfeld,  V. A. Rassolov,  
 L. V. Slipchenko,  J. E. Subotnik,  T. Van Voorhis,  J. M. Herbert,  
 A. I. Krylov,  P. M. W. Gill,  M. Head-Gordon

 Contributors to earlier versions of Q-Chem not listed above: 
 R. D. Adamson,  B. Austin,  J. Baker,  G. J. O. Beran,  K. Brandhorst,  
 S. T. Brown,  E. F. C. Byrd,  A. K. Chakraborty,  C.-L. Cheng,  
 Siu Hung Chien,  D. M. Chipman,  D. L. Crittenden,  H. Dachsel,  
 R. J. Doerksen,  A. D. Dutoi,  L. Fusti-Molnar,  W. A. Goddard III,  
 A. Golubeva-Zadorozhnaya,  S. R. Gwaltney,  G. Hawkins,  A. Heyden,  
 S. Hirata,  G. Kedziora,  F. J. Keil,  C. Kelley,  Jihan Kim,  R. A. King,  
 R. Z. Khaliullin,  P. P. Korambath,  W. Kurlancheek,  A. M. Lee,  M. S. Lee,  
 S. V. Levchenko,  Ching Yeh Lin,  D. Liotard,  R. C. Lochan,  I. Lotan,  
 P. E. Maslen,  N. Nair,  D. P. O'Neill,  D. Neuhauser,  E. Neuscamman,  
 C. M. Oana,  R. Olson,  B. Peters,  R. Peverati,  P. A. Pieniazek,  
 Y. M. Rhee,  J. Ritchie,  M. A. Rohrdanz,  E. Rosta,  N. J. Russ,  
 H. F. Schaefer III,  N. E. Schultz,  N. Shenvi,  A. C. Simmonett,  A. Sodt,  
 D. Stuck,  K. S. Thanthiriwatte,  V. Vanovschi,  Tao Wang,  A. Warshel,  
 C. F. Williams,  Q. Wu,  X. Xu,  W. Zhang

 Please cite Q-Chem as follows:
 Y. Shao et al., Mol. Phys. 113, 184-215 (2015)
 DOI: 10.1080/00268976.2014.952696

 Q-Chem 5.0.2 for Intel X86 EM64T Linux

 Parts of Q-Chem use Armadillo 5.200.1 (Boston Tea Smuggler).
 http://arma.sourceforge.net/

 Q-Chem begins on Fri Mar 20 20:00:35 2020  

Host: 
0

     Scratch files written to /scratch/leeping/1862737/qc-freq2.d//
 Dec517 15110_ 26548  26544 5633   
Processing $rem in /home/leeping/opt/qchem/5.0.2-openmp/config/preferences.
 MEM_STATIC 2000
 MEM_TOTAL  8000
 SYMMETRY   OFF
 SYM_IGNORE TRUE 
Symmetry turned off for PCM/SM12/SMD calculation

Checking the input file for inconsistencies... 	...done.

--------------------------------------------------------------
User input:
--------------------------------------------------------------
$molecule
-2 1
C       -2.6789969502    0.9766734932   -0.9087165815
H       -2.0287318318    1.7883805570   -1.2440821134
H       -3.4459154986    0.8031331201   -1.6676498011
H       -3.1644714512    1.2672408383    0.0270070661
C       -1.8577507274   -0.3087167476   -0.7572009318
C        1.2207340169   -0.7593837065    0.2601844391
H        1.2041294179   -0.5200145138   -0.8060079335
H        1.7294449816   -1.7187134956    0.3967779024
C        1.9035057068    0.3302576388    1.0699873610
H        1.8641254168    0.0749638759    2.1360974610
H        1.3692591379    1.2779480781    0.9549557548
C        3.3779500008    0.5633401942    0.7050149350
O       -0.9223032825    0.1016131918    0.3513430279
O       -2.7387143788   -1.2895665326   -0.1596743544
H       -2.3385606605   -2.1348334705   -0.3998045347
O       -1.2502113578   -0.7560728050   -1.8112542904
O        3.9400710278    1.5470398758    1.2563181874
O        3.9245828999   -0.2367821770   -0.0971130857
O       -0.1123143695   -1.0158051368    0.7005821710
$end

$rem
jobtype               freq
method                wb97x-v
basis                 def2-tzvpd
symmetry              off
sym_ignore            true
incdft                false
incfock               0
!scf_algorithm        diis_gdm
scf_convergence       8
thresh                14
!purecart             112
max_scf_cycles        1000
geom_opt_max_cycles   500
geom_opt_dmax         100
geom_opt_tol_gradient 10
solvent_method        pcm
ideriv                1
rpath_tol_displacement 1000
rpath_max_cycles      100
rpath_direction       1
!scf_guess            read
scf_guess             read
$end

$pcm
theory              cosmo
method              iswig
Radii               bondi
vdwScale            1.20
hpoints             110
heavypoints         110
$end

$solvent
dielectric 78.400000
$end

--------------------------------------------------------------
 ----------------------------------------------------------------
             Standard Nuclear Orientation (Angstroms)
    I     Atom           X                Y                Z
 ----------------------------------------------------------------
    1      C      -2.6789969502     0.9766734932    -0.9087165815
    2      H      -2.0287318318     1.7883805570    -1.2440821134
    3      H      -3.4459154986     0.8031331201    -1.6676498011
    4      H      -3.1644714512     1.2672408383     0.0270070661
    5      C      -1.8577507274    -0.3087167476    -0.7572009318
    6      C       1.2207340169    -0.7593837065     0.2601844391
    7      H       1.2041294179    -0.5200145138    -0.8060079335
    8      H       1.7294449816    -1.7187134956     0.3967779024
    9      C       1.9035057068     0.3302576388     1.0699873610
   10      H       1.8641254168     0.0749638759     2.1360974610
   11      H       1.3692591379     1.2779480781     0.9549557548
   12      C       3.3779500008     0.5633401942     0.7050149350
   13      O      -0.9223032825     0.1016131918     0.3513430279
   14      O      -2.7387143788    -1.2895665326    -0.1596743544
   15      H      -2.3385606605    -2.1348334705    -0.3998045347
   16      O      -1.2502113578    -0.7560728050    -1.8112542904
   17      O       3.9400710278     1.5470398758     1.2563181874
   18      O       3.9245828999    -0.2367821770    -0.0971130857
   19      O      -0.1123143695    -1.0158051368     0.7005821710
 ----------------------------------------------------------------
 Nuclear Repulsion Energy =   636.3525474841 hartrees
 There are       44 alpha and       44 beta electrons
 Requested basis set is def2-TZVPD
 There are 189 shells and 497 basis functions

 Total QAlloc Memory Limit   8000 MB
 Mega-Array Size      1956 MB
 MEM_STATIC part      2000 MB
 Discretize the solute cavity surface with Lebedev spheres
	Using 110 Lebedev grid points for each H atom
	Using 110 Lebedev grid points for other atoms
	Atomic van der Waals radii will be scaled by 1.20
 Remove points where switching function is < 1.0e-08
 Keep 1134 surface tesserae and discard 956 interior tesserae
 Molecular Surface Area = 202.969 Angst**2
 A cutoff of  1.0D-14 yielded  15842 shell pairs
 There are    109304 function pairs (    139117 Cartesian)
 
 -------------------------------------------------------
 OpenMP Integral Computing Module                       
 Release: version 1.0, May 2013, Q-Chem Inc. Pittsburgh 
 -------------------------------------------------------
 Integral Job Info:
 Integral job number is                      11
 Integral operator is                         1
 short-range coefficients              16700000
 long-range coefficients              100000000
 Omega coefficients                         300
 if combine SR and LR in K                    1
 Integral screening is                        0
 Integral computing path is                   2
 max size of driver memory is            800000
 size of driver memory is                776718
 size of scratch memory is              4473992
 max col of scratch BK array              10000
 max len of scratch array in speh3          662
 max len of scratch index in speh4           32
 max int batch size is                      520
 min int batch size is                       52
 fixed nKL is                                52
 max L of basis functions is                  3
 order of int derivative is                   0
 number of shells is                        189
 number of basis is                         563
 number of cartesian basis is               563
 number of contracted shell pairs         15842
 number of primitive shell pairs          31767
 maxK2 (contraction) of shell pair           36
 max number of K2 of shell pair               1
 max number of CS2 of shell pair           2627
 max number of PS2 of shell pair           3636
 mem total for path MDJ                  818596
 -------------------------------------------------------
 Smallest overlap matrix eigenvalue = 4.25E-06
 Guess MOs from SCF MO coefficient file
 Reading MOs from coefficient file
 Reading MOs from coefficient file
 Long-range K will be added via erf
 Coulomb attenuation parameter = 0.3 bohr**(-1)
 A restricted hybrid HF-DFT SCF calculation will be
 performed using Pulay DIIS extrapolation
 Polarizable Continuum solvation model will be applied
 Exchange:     0.1670 Hartree-Fock + 1.0000 wB97X-V + LR-HF
 Correlation:  1.0000 wB97X-V
 Using SG-2 standard quadrature grid
 Nonlocal Correlation:  VV10 with C = 0.0100 and b = 6.00
 Grid used for NLC:  SG-1 standard quadrature
 SCF converges when DIIS error is below 1.0E-08
Using Q-Chem read-in guess as SCF_GUESS READ specified.

 using 16 threads for integral computing
 -------------------------------------------------------
 OpenMP Integral computing Module                
 Release: version 1.0, May 2013, Q-Chem Inc. Pittsburgh 
 -------------------------------------------------------
 using 16 threads for integral computing
 -------------------------------------------------------
 OpenMP Integral computing Module                
 Release: version 1.0, May 2013, Q-Chem Inc. Pittsburgh 
 -------------------------------------------------------
 -------------------------------------------------------
 OpenMP BLAS3 based DFT computing Module                
 Release: version 1.0, May 2013, Q-Chem Inc. Pittsburgh 
 -------------------------------------------------------
 -------------------------------------------------------
 OpenMP BLAS3 based DFT computing Module                
 Release: version 1.0, May 2013, Q-Chem Inc. Pittsburgh 
 -------------------------------------------------------
 -------------------------------------------------------
 OpenMP BLAS3 based DFT computing Module                
 Release: version 1.0, May 2013, Q-Chem Inc. Pittsburgh 
 -------------------------------------------------------
 ---------------------------------------
  Cycle       Energy         DIIS Error
 ---------------------------------------
    1    -646.6663351935      2.99E-04
    2    -646.9599951462      3.23E-04
    3    -646.9645039963      1.47E-04
    4    -646.9652262713      1.09E-04
    5    -646.9656678268      8.33E-05
    6    -646.9659029093      6.63E-05
    7    -646.9660699186      5.11E-05
    8    -646.9661649634      3.98E-05
    9    -646.9662336803      2.92E-05
   10    -646.9662650943      2.26E-05
   11    -646.9662855508      1.71E-05
   12    -646.9662958748      1.35E-05
   13    -646.9663029081      1.02E-05
   14    -646.9663071313      7.71E-06
   15    -646.9663092318      6.06E-06
   16    -646.9663107182      4.55E-06
   17    -646.9663126300      2.68E-09 Convergence criterion met
 ---------------------------------------

************** Final PCM Free Energy Summary **************
 G_electrostatic  =      -0.29997922 hartree =    -188.23980012 kcal/mol
 G_cavitation     =       0.00000000 hartree =       0.00000000 kcal/mol
 G_dispersion     =       0.00000000 hartree =       0.00000000 kcal/mol
 G_repulsion      =       0.00000000 hartree =       0.00000000 kcal/mol
 --------------------------------------------------
 Non-electrostatic Free Energy =       0.00000000 hartree =       0.00000000 kcal/mol
 Total                         =      -0.29997922 hartree =    -188.23980012 kcal/mol
 --------------------------------------------------
 SCF Energy (H0 + V/2)                       =    -646.96631263 
 Solute Internal Energy (H0)                 =    -646.66633341 
 Total Free Energy (H0 + V/2 + non-elec)     =    -646.96631263 hartree
                                             = -405977.48859325 kcal/mol
***********************************************************

 SCF time:  CPU 5161.63 s  wall 368.25 s
 SCF   energy in the final basis set = -646.96631263
 Total energy in the final basis set = -646.96631263
 
 --------------------------------------------------------------
 
                    Orbital Energies (a.u.)
 --------------------------------------------------------------
 
 Alpha MOs
 -- Occupied --
-19.245 -19.228 -19.187 -19.141 -19.139 -19.107 -10.371 -10.343
-10.294 -10.246 -10.237  -1.234  -1.145  -1.143  -1.050  -1.046
 -0.999  -0.868  -0.833  -0.736  -0.674  -0.618  -0.607  -0.579
 -0.574  -0.547  -0.535  -0.529  -0.515  -0.508  -0.486  -0.476
 -0.473  -0.460  -0.445  -0.419  -0.409  -0.368  -0.366  -0.348
 -0.335  -0.331  -0.314  -0.311
 -- Virtual --
  0.060   0.070   0.081   0.082   0.097   0.100   0.105   0.117
  0.122   0.125   0.131   0.136   0.142   0.149   0.159   0.161
  0.165   0.170   0.178   0.183   0.185   0.191   0.201   0.213
  0.216   0.228   0.229   0.238   0.245   0.248   0.250   0.259
  0.268   0.269   0.283   0.289   0.292   0.297   0.303   0.305
  0.313   0.319   0.324   0.329   0.330   0.342   0.346   0.350
  0.356   0.359   0.360   0.373   0.375   0.378   0.383   0.388
  0.390   0.394   0.398   0.401   0.406   0.411   0.415   0.418
  0.422   0.429   0.433   0.440   0.450   0.456   0.460   0.468
  0.471   0.478   0.484   0.486   0.491   0.496   0.500   0.509
  0.512   0.518   0.525   0.530   0.531   0.543   0.544   0.549
  0.551   0.556   0.569   0.577   0.581   0.588   0.592   0.601
  0.603   0.606   0.618   0.630   0.633   0.639   0.641   0.648
  0.656   0.670   0.676   0.685   0.686   0.700   0.702   0.707
  0.716   0.717   0.722   0.729   0.740   0.746   0.758   0.763
  0.773   0.789   0.790   0.793   0.796   0.803   0.806   0.809
  0.815   0.824   0.826   0.828   0.837   0.844   0.849   0.851
  0.856   0.864   0.874   0.883   0.896   0.898   0.908   0.914
  0.922   0.934   0.946   0.954   0.959   0.974   0.981   0.996
  1.000   1.008   1.037   1.041   1.053   1.066   1.070   1.083
  1.088   1.110   1.112   1.129   1.144   1.157   1.173   1.179
  1.186   1.197   1.203   1.214   1.215   1.250   1.258   1.270
  1.275   1.286   1.302   1.315   1.337   1.349   1.360   1.378
  1.393   1.408   1.410   1.431   1.442   1.454   1.465   1.473
  1.490   1.501   1.516   1.518   1.547   1.557   1.579   1.588
  1.623   1.639   1.694   1.734   1.772   1.789   1.805   1.831
  1.853   1.882   1.910   1.915   1.926   1.945   1.950   1.966
  1.970   1.978   1.980   1.997   2.003   2.014   2.028   2.037
  2.047   2.072   2.082   2.107   2.108   2.122   2.131   2.165
  2.190   2.206   2.216   2.232   2.241   2.245   2.261   2.273
  2.289   2.310   2.316   2.349   2.355   2.380   2.392   2.403
  2.428   2.446   2.453   2.481   2.489   2.493   2.510   2.525
  2.539   2.557   2.599   2.608   2.619   2.651   2.668   2.671
  2.698   2.707   2.739   2.759   2.768   2.772   2.807   2.826
  2.860   2.893   2.899   2.930   2.947   2.950   2.953   2.972
  2.992   2.996   3.006   3.049   3.059   3.085   3.103   3.108
  3.121   3.142   3.157   3.209   3.225   3.258   3.272   3.278
  3.289   3.316   3.333   3.356   3.373   3.402   3.412   3.423
  3.432   3.445   3.459   3.468   3.482   3.488   3.506   3.514
  3.533   3.545   3.551   3.572   3.583   3.593   3.612   3.618
  3.644   3.645   3.669   3.673   3.688   3.708   3.721   3.728
  3.746   3.772   3.775   3.784   3.801   3.809   3.818   3.850
  3.870   3.897   3.932   3.984   3.991   4.040   4.094   4.122
  4.162   4.172   4.179   4.206   4.235   4.255   4.294   4.383
  4.436   4.518   4.574   4.600   4.631   4.654   4.675   4.727
  4.790   4.795   4.814   4.842   4.889   4.895   4.914   5.051
  5.064   5.096   5.186   5.252   5.259   5.319   5.325   5.359
  5.371   5.376   5.398   5.419   5.423   5.481   5.500   5.510
  5.595   5.614   5.666   5.699   5.712   5.724   5.727   5.754
  5.774   5.813   5.906   5.945   6.039   6.073   6.170   6.237
  6.250   6.280   6.293   6.311   6.337   6.400   6.424   6.475
  6.529   6.623   6.635   6.679   6.693   6.715   6.741   6.753
  6.766   6.790   6.840   6.848   6.927   6.952   6.966   6.969
  6.980   7.009   7.052   7.158   7.197   7.250   7.254   7.291
  7.326   7.360   7.404   7.411   7.435   7.490   7.538   7.576
  7.644   8.415  22.677  22.849  22.883  23.183  23.721  44.251
 44.367  44.408  44.429  44.494  44.808
 --------------------------------------------------------------
 
          Ground-State Mulliken Net Atomic Charges

     Atom                 Charge (a.u.)
  ----------------------------------------
      1 C                    -1.012326
      2 H                     0.232956
      3 H                     0.240963
      4 H                     0.220824
      5 C                     0.658613
      6 C                    -0.021305
      7 H                     0.122655
      8 H                     0.192936
      9 C                    -0.093671
     10 H                     0.206348
     11 H                     0.143393
     12 C                     0.123296
     13 O                    -0.248895
     14 O                    -0.535906
     15 H                     0.333680
     16 O                    -0.852946
     17 O                    -0.708969
     18 O                    -0.693096
     19 O                    -0.308550
  ----------------------------------------
  Sum of atomic charges =    -2.000000

 -----------------------------------------------------------------
                    Cartesian Multipole Moments
 -----------------------------------------------------------------
    Charge (ESU x 10^10)
                -9.6064
    Dipole Moment (Debye)
         X     -12.3088      Y      -0.3075      Z       1.8461
       Tot      12.4503
    Quadrupole Moments (Debye-Ang)
        XX    -169.6453     XY     -21.8990     YY     -79.0416
        XZ     -14.9306     YZ     -10.9393     ZZ     -89.1230
    Octopole Moments (Debye-Ang^2)
       XXX    -406.1969    XXY     -46.5963    XYY     -60.6522
       YYY     -10.3995    XXZ     -41.9228    XYZ     -24.3439
       YYZ     -11.7796    XZZ     -28.1412    YZZ       6.5180
       ZZZ      17.0466
    Hexadecapole Moments (Debye-Ang^3)
      XXXX   -4395.2198   XXXY    -480.7893   XXYY    -669.6082
      XYYY    -200.0832   YYYY    -417.8415   XXXZ    -498.5946
      XXYZ    -134.2904   XYYZ    -148.7618   YYYZ     -73.5068
      XXZZ    -622.6111   XYZZ    -107.8470   YYZZ    -173.1248
      XZZZ    -363.2117   YZZZ     -89.3503   ZZZZ    -514.8975
 -----------------------------------------------------------------
 Calculating analytic gradient of the SCF energy
 Gradient of SCF Energy
            1           2           3           4           5           6
    1  -0.0505176  -0.0538235   0.0548978   0.0298128   0.0610792   0.0465695
    2   0.0918110  -0.0577396   0.0153953  -0.0192584  -0.0826760  -0.0560494
    3  -0.0406970   0.0250075   0.0570385  -0.0655339   0.0260198  -0.0949282
            7           8           9          10          11          12
    1  -0.0041236  -0.0254278  -0.0629269   0.0028169   0.0322072   0.0528101
    2  -0.0134006   0.0566103   0.0688675   0.0138243  -0.0600747  -0.0048196
    3   0.0758212   0.0043412   0.0577965  -0.0468321   0.0102693  -0.0182971
           13          14          15          16          17          18
    1  -0.0030267   0.0114575  -0.0235795  -0.0196163  -0.0338783  -0.0293185
    2   0.0319093  -0.0434210   0.0610409   0.0261869  -0.0411374   0.0340725
    3  -0.0089700  -0.0252136   0.0117761   0.0119384  -0.0205948   0.0344308
           19
    1   0.0145876
    2  -0.0211410
    3   0.0066277
 Max gradient component =       9.493E-02
 RMS gradient           =       4.309E-02
 Computing fast CPCM-ISWIG gradient
 Updating gradient with PCM contributions...
 -- total gradient after adding PCM contribution --
---------------------------------------------------
  Atom         X              Y              Z     
---------------------------------------------------
   1      -0.000003       0.000011       0.000013
   2       0.000001      -0.000003      -0.000024
   3      -0.000002      -0.000003      -0.000007
   4       0.000007       0.000010      -0.000008
   5       0.000074       0.000024      -0.000048
   6      -0.000049      -0.000004       0.000045
   7      -0.000001      -0.000011      -0.000002
   8       0.000010       0.000008      -0.000014
   9      -0.000080       0.000022       0.000032
  10       0.000025      -0.000012      -0.000013
  11       0.000033      -0.000007      -0.000038
  12       0.000009      -0.000060      -0.000084
  13      -0.000059       0.000004      -0.000004
  14      -0.000032      -0.000007       0.000011
  15       0.000007      -0.000005       0.000031
  16      -0.000015      -0.000015       0.000030
  17       0.000048       0.000029       0.000001
  18      -0.000023       0.000031       0.000067
  19       0.000050      -0.000013       0.000013
---------------------------------------------------
 Number of fixed atoms: 0
 Gradient time:  CPU 1041.47 s  wall 75.80 s
 ######################################################
 ######################################################
 # Starting finite difference calculation for IDERIV  #
 Finite diff step size:  1.88973e-03 a.u.
 ----------------------------------------------------------------
             Standard Nuclear Orientation (Angstroms)
    I     Atom           X                Y                Z
 ----------------------------------------------------------------
    1      C      -2.6779969502     0.9766734932    -0.9087165815
    2      H      -2.0287318318     1.7883805570    -1.2440821134
    3      H      -3.4459154986     0.8031331201    -1.6676498011
    4      H      -3.1644714512     1.2672408383     0.0270070661
    5      C      -1.8577507274    -0.3087167476    -0.7572009318
    6      C       1.2207340169    -0.7593837065     0.2601844391
    7      H       1.2041294179    -0.5200145138    -0.8060079335
    8      H       1.7294449816    -1.7187134956     0.3967779024
    9      C       1.9035057068     0.3302576388     1.0699873610
   10      H       1.8641254168     0.0749638759     2.1360974610
   11      H       1.3692591379     1.2779480781     0.9549557548
   12      C       3.3779500008     0.5633401942     0.7050149350
   13      O      -0.9223032825     0.1016131918     0.3513430279
   14      O      -2.7387143788    -1.2895665326    -0.1596743544
   15      H      -2.3385606605    -2.1348334705    -0.3998045347
   16      O      -1.2502113578    -0.7560728050    -1.8112542904
   17      O       3.9400710278     1.5470398758     1.2563181874
   18      O       3.9245828999    -0.2367821770    -0.0971130857
   19      O      -0.1123143695    -1.0158051368     0.7005821710
 ----------------------------------------------------------------
 Nuclear Repulsion Energy =   636.3663301424 hartrees
 There are       44 alpha and       44 beta electrons
 Discretize the solute cavity surface with Lebedev spheres
	Using 110 Lebedev grid points for each H atom
	Using 110 Lebedev grid points for other atoms
	Atomic van der Waals radii will be scaled by 1.20
 Remove points where switching function is < 1.0e-08
 Keep 1134 surface tesserae and discard 956 interior tesserae
 Molecular Surface Area = 202.964 Angst**2
 Requested basis set is def2-TZVPD
 There are 189 shells and 497 basis functions
 A cutoff of  1.0D-14 yielded  15842 shell pairs
 There are    109304 function pairs (    139117 Cartesian)
 Smallest overlap matrix eigenvalue = 4.25E-06
 Guess MOs from SCF MO coefficient file
 Reading MOs from coefficient file
 Reading MOs from coefficient file
 Long-range K will be added via erf
 Coulomb attenuation parameter = 0.3 bohr**(-1)
 A restricted hybrid HF-DFT SCF calculation will be
 performed using Pulay DIIS extrapolation
 Polarizable Continuum solvation model will be applied
 Exchange:     0.1670 Hartree-Fock + 1.0000 wB97X-V + LR-HF
 Correlation:  1.0000 wB97X-V
 Using SG-2 standard quadrature grid
 Nonlocal Correlation:  VV10 with C = 0.0100 and b = 6.00
 Grid used for NLC:  SG-1 standard quadrature
 SCF converges when DIIS error is below 1.0E-08
Using Q-Chem read-in guess as SCF_GUESS READ specified.

 using 16 threads for integral computing
 -------------------------------------------------------
 OpenMP Integral computing Module                
 Release: version 1.0, May 2013, Q-Chem Inc. Pittsburgh 
 -------------------------------------------------------
 using 16 threads for integral computing
 -------------------------------------------------------
 OpenMP Integral computing Module                
 Release: version 1.0, May 2013, Q-Chem Inc. Pittsburgh 
 -------------------------------------------------------
 -------------------------------------------------------
 OpenMP BLAS3 based DFT computing Module                
 Release: version 1.0, May 2013, Q-Chem Inc. Pittsburgh 
 -------------------------------------------------------
 -------------------------------------------------------
 OpenMP BLAS3 based DFT computing Module                
 Release: version 1.0, May 2013, Q-Chem Inc. Pittsburgh 
 -------------------------------------------------------
 -------------------------------------------------------
 OpenMP BLAS3 based DFT computing Module                
 Release: version 1.0, May 2013, Q-Chem Inc. Pittsburgh 
 -------------------------------------------------------
 ---------------------------------------
  Cycle       Energy         DIIS Error
 ---------------------------------------
    1    -646.6661627777      3.00E-04
    2    -646.9599897311      3.24E-04
    3    -646.9645031246      1.48E-04
    4    -646.9652264798      1.09E-04
    5    -646.9656728059      8.29E-05
    6    -646.9659181738      6.50E-05
    7    -646.9661130596      4.62E-05
    8    -646.9662283142      2.99E-05
    9    -646.9662931322      1.41E-05
   10    -646.9663090544      5.31E-06
   11    -646.9663114822      1.33E-06
   12    -646.9663116340      3.07E-07
   13    -646.9663116424      3.24E-08
   14    -646.9663116425      4.62E-09 Convergence criterion met
 ---------------------------------------

************** Final PCM Free Energy Summary **************
 G_electrostatic  =      -0.29998615 hartree =    -188.24415275 kcal/mol
 G_cavitation     =       0.00000000 hartree =       0.00000000 kcal/mol
 G_dispersion     =       0.00000000 hartree =       0.00000000 kcal/mol
 G_repulsion      =       0.00000000 hartree =       0.00000000 kcal/mol
 --------------------------------------------------
 Non-electrostatic Free Energy =       0.00000000 hartree =       0.00000000 kcal/mol
 Total                         =      -0.29998615 hartree =    -188.24415275 kcal/mol
 --------------------------------------------------
 SCF Energy (H0 + V/2)                       =    -646.96631164 
 Solute Internal Energy (H0)                 =    -646.66632549 
 Total Free Energy (H0 + V/2 + non-elec)     =    -646.96631164 hartree
                                             = -405977.48797360 kcal/mol
***********************************************************

 SCF time:  CPU 4254.05 s  wall 303.74 s
 SCF   energy in the final basis set = -646.96631164
 Total energy in the final basis set = -646.96631164
 
 --------------------------------------------------------------
 
                    Orbital Energies (a.u.)
 --------------------------------------------------------------
 
 Alpha MOs
 -- Occupied --
-19.245 -19.228 -19.187 -19.141 -19.139 -19.107 -10.371 -10.343
-10.294 -10.246 -10.237  -1.233  -1.145  -1.143  -1.050  -1.046
 -0.999  -0.868  -0.833  -0.736  -0.674  -0.618  -0.607  -0.579
 -0.574  -0.547  -0.535  -0.529  -0.515  -0.508  -0.485  -0.476
 -0.473  -0.460  -0.445  -0.419  -0.409  -0.368  -0.366  -0.348
 -0.335  -0.331  -0.314  -0.311
 -- Virtual --
  0.060   0.070   0.081   0.082   0.097   0.100   0.105   0.117
  0.122   0.125   0.131   0.136   0.142   0.149   0.159   0.161
  0.165   0.170   0.178   0.183   0.185   0.191   0.201   0.213
  0.216   0.228   0.229   0.238   0.245   0.248   0.250   0.259
  0.268   0.269   0.283   0.289   0.292   0.297   0.303   0.305
  0.313   0.319   0.324   0.329   0.330   0.342   0.346   0.350
  0.356   0.359   0.360   0.373   0.375   0.378   0.383   0.388
  0.390   0.394   0.398   0.401   0.406   0.411   0.415   0.418
  0.422   0.429   0.433   0.440   0.450   0.456   0.460   0.468
  0.471   0.478   0.484   0.486   0.491   0.496   0.500   0.509
  0.512   0.518   0.525   0.530   0.531   0.543   0.544   0.549
  0.551   0.556   0.569   0.577   0.581   0.588   0.592   0.601
  0.603   0.606   0.618   0.630   0.633   0.639   0.641   0.648
  0.656   0.670   0.676   0.685   0.686   0.700   0.702   0.707
  0.716   0.717   0.722   0.729   0.740   0.746   0.758   0.763
  0.773   0.789   0.790   0.793   0.797   0.803   0.806   0.809
  0.816   0.824   0.826   0.828   0.837   0.844   0.849   0.851
  0.856   0.864   0.874   0.883   0.896   0.898   0.908   0.914
  0.922   0.934   0.946   0.954   0.959   0.974   0.981   0.996
  1.000   1.008   1.037   1.041   1.053   1.066   1.070   1.083
  1.088   1.110   1.112   1.129   1.144   1.157   1.173   1.179
  1.186   1.197   1.203   1.214   1.215   1.250   1.258   1.270
  1.275   1.286   1.302   1.315   1.337   1.349   1.360   1.378
  1.394   1.408   1.410   1.431   1.442   1.454   1.465   1.473
  1.491   1.501   1.516   1.518   1.547   1.558   1.579   1.588
  1.623   1.639   1.694   1.734   1.772   1.789   1.805   1.831
  1.853   1.882   1.910   1.915   1.926   1.945   1.950   1.966
  1.970   1.978   1.980   1.997   2.003   2.014   2.028   2.037
  2.047   2.072   2.082   2.107   2.108   2.122   2.131   2.165
  2.190   2.206   2.216   2.232   2.241   2.245   2.261   2.273
  2.289   2.310   2.316   2.349   2.355   2.380   2.393   2.404
  2.428   2.446   2.453   2.481   2.489   2.493   2.510   2.525
  2.539   2.557   2.599   2.608   2.620   2.651   2.669   2.672
  2.698   2.707   2.739   2.759   2.768   2.772   2.807   2.826
  2.860   2.893   2.899   2.929   2.947   2.950   2.953   2.972
  2.992   2.996   3.006   3.049   3.059   3.085   3.103   3.108
  3.121   3.142   3.157   3.209   3.225   3.257   3.272   3.278
  3.289   3.316   3.333   3.356   3.373   3.402   3.412   3.423
  3.432   3.445   3.459   3.468   3.482   3.488   3.506   3.514
  3.533   3.545   3.551   3.572   3.583   3.593   3.612   3.618
  3.644   3.645   3.669   3.673   3.688   3.708   3.721   3.728
  3.746   3.772   3.775   3.784   3.801   3.809   3.818   3.850
  3.870   3.897   3.932   3.985   3.991   4.040   4.094   4.122
  4.162   4.172   4.179   4.207   4.235   4.255   4.294   4.383
  4.436   4.518   4.574   4.600   4.631   4.654   4.675   4.727
  4.790   4.795   4.814   4.842   4.889   4.895   4.914   5.051
  5.064   5.096   5.186   5.252   5.259   5.319   5.325   5.359
  5.371   5.376   5.398   5.419   5.423   5.481   5.500   5.510
  5.595   5.614   5.666   5.699   5.712   5.724   5.727   5.754
  5.774   5.813   5.906   5.945   6.039   6.073   6.170   6.237
  6.250   6.280   6.293   6.311   6.337   6.400   6.424   6.475
  6.529   6.623   6.635   6.679   6.693   6.714   6.741   6.753
  6.766   6.790   6.840   6.848   6.927   6.952   6.966   6.969
  6.980   7.009   7.052   7.158   7.197   7.250   7.254   7.291
  7.326   7.360   7.404   7.411   7.435   7.490   7.538   7.576
  7.644   8.415  22.677  22.849  22.883  23.184  23.721  44.251
 44.367  44.408  44.429  44.494  44.808
 --------------------------------------------------------------
 
          Ground-State Mulliken Net Atomic Charges

     Atom                 Charge (a.u.)
  ----------------------------------------
      1 C                    -1.012787
      2 H                     0.233286
      3 H                     0.240701
      4 H                     0.220698
      5 C                     0.659164
      6 C                    -0.021296
      7 H                     0.122660
      8 H                     0.192951
      9 C                    -0.093683
     10 H                     0.206353
     11 H                     0.143390
     12 C                     0.123291
     13 O                    -0.248862
     14 O                    -0.535907
     15 H                     0.333745
     16 O                    -0.852982
     17 O                    -0.708970
     18 O                    -0.693096
     19 O                    -0.308655
  ----------------------------------------
  Sum of atomic charges =    -2.000000

 -----------------------------------------------------------------
                    Cartesian Multipole Moments
 -----------------------------------------------------------------
    Charge (ESU x 10^10)
                -9.6064
    Dipole Moment (Debye)
         X     -12.3094      Y      -0.3064      Z       1.8459
       Tot      12.4508
    Quadrupole Moments (Debye-Ang)
        XX    -169.6451     XY     -21.9004     YY     -79.0381
        XZ     -14.9309     YZ     -10.9420     ZZ     -89.1252
    Octopole Moments (Debye-Ang^2)
       XXX    -406.2123    XXY     -46.5929    XYY     -60.6672
       YYY     -10.3912    XXZ     -41.9195    XYZ     -24.3384
       YYZ     -11.7854    XZZ     -28.1395    YZZ       6.5212
       ZZZ      17.0516
    Hexadecapole Moments (Debye-Ang^3)
      XXXX   -4395.0819   XXXY    -480.8125   XXYY    -669.5586
      XYYY    -200.1127   YYYY    -417.8071   XXXZ    -498.6023
      XXYZ    -134.3029   XYYZ    -148.7446   YYYZ     -73.5255
      XXZZ    -622.6119   XYZZ    -107.8549   YYZZ    -173.1191
      XZZZ    -363.2184   YZZZ     -89.3569   ZZZZ    -514.9186
 -----------------------------------------------------------------
 Calculating analytic gradient of the SCF energy
 Gradient of SCF Energy
            1           2           3           4           5           6
    1  -0.0496601  -0.0540539   0.0545396   0.0296706   0.0610107   0.0465713
    2   0.0919810  -0.0580480   0.0153126  -0.0191838  -0.0825729  -0.0560451
    3  -0.0407147   0.0251300   0.0567298  -0.0652964   0.0259811  -0.0949281
            7           8           9          10          11          12
    1  -0.0041203  -0.0254277  -0.0629320   0.0028174   0.0322080   0.0528101
    2  -0.0134010   0.0566085   0.0688674   0.0138254  -0.0600748  -0.0048219
    3   0.0758216   0.0043416   0.0577975  -0.0468327   0.0102685  -0.0182984
           13          14          15          16          17          18
    1  -0.0030506   0.0114644  -0.0235818  -0.0196449  -0.0338787  -0.0293188
    2   0.0319270  -0.0434278   0.0610498   0.0262041  -0.0411381   0.0340727
    3  -0.0089806  -0.0252119   0.0117776   0.0119540  -0.0205948   0.0344313
           19
    1   0.0145770
    2  -0.0211351
    3   0.0066247
 Max gradient component =       9.493E-02
 RMS gradient           =       4.306E-02
 Computing fast CPCM-ISWIG gradient
 Updating gradient with PCM contributions...
 -- total gradient after adding PCM contribution --
---------------------------------------------------
  Atom         X              Y              Z     
---------------------------------------------------
   1       0.001049       0.000108      -0.000003
   2      -0.000272      -0.000227       0.000072
   3      -0.000341      -0.000064      -0.000259
   4      -0.000181       0.000067       0.000187
   5      -0.000113       0.000124      -0.000067
   6      -0.000047      -0.000002       0.000043
   7      -0.000001      -0.000012      -0.000001
   8       0.000009       0.000008      -0.000014
   9      -0.000080       0.000023       0.000032
  10       0.000025      -0.000012      -0.000013
  11       0.000033      -0.000007      -0.000038
  12       0.000010      -0.000060      -0.000084
  13      -0.000102       0.000045      -0.000036
  14      -0.000021      -0.000052       0.000020
  15       0.000005      -0.000013       0.000036
  16      -0.000038       0.000028       0.000052
  17       0.000047       0.000029       0.000001
  18      -0.000024       0.000030       0.000067
  19       0.000040      -0.000013       0.000006
---------------------------------------------------
 Number of fixed atoms: 0
 Gradient time:  CPU 1038.37 s  wall 75.07 s
 ----------------------------------------------------------------
             Standard Nuclear Orientation (Angstroms)
    I     Atom           X                Y                Z
 ----------------------------------------------------------------
    1      C      -2.6799969502     0.9766734932    -0.9087165815
    2      H      -2.0287318318     1.7883805570    -1.2440821134
    3      H      -3.4459154986     0.8031331201    -1.6676498011
    4      H      -3.1644714512     1.2672408383     0.0270070661
    5      C      -1.8577507274    -0.3087167476    -0.7572009318
    6      C       1.2207340169    -0.7593837065     0.2601844391
    7      H       1.2041294179    -0.5200145138    -0.8060079335
    8      H       1.7294449816    -1.7187134956     0.3967779024
    9      C       1.9035057068     0.3302576388     1.0699873610
   10      H       1.8641254168     0.0749638759     2.1360974610
   11      H       1.3692591379     1.2779480781     0.9549557548
   12      C       3.3779500008     0.5633401942     0.7050149350
   13      O      -0.9223032825     0.1016131918     0.3513430279
   14      O      -2.7387143788    -1.2895665326    -0.1596743544
   15      H      -2.3385606605    -2.1348334705    -0.3998045347
   16      O      -1.2502113578    -0.7560728050    -1.8112542904
   17      O       3.9400710278     1.5470398758     1.2563181874
   18      O       3.9245828999    -0.2367821770    -0.0971130857
   19      O      -0.1123143695    -1.0158051368     0.7005821710
 ----------------------------------------------------------------
 Nuclear Repulsion Energy =   636.3387653025 hartrees
 There are       44 alpha and       44 beta electrons
 Discretize the solute cavity surface with Lebedev spheres
	Using 110 Lebedev grid points for each H atom
	Using 110 Lebedev grid points for other atoms
	Atomic van der Waals radii will be scaled by 1.20
 Remove points where switching function is < 1.0e-08
 Keep 1134 surface tesserae and discard 956 interior tesserae
 Molecular Surface Area = 202.974 Angst**2
 Requested basis set is def2-TZVPD
 There are 189 shells and 497 basis functions
 A cutoff of  1.0D-14 yielded  15841 shell pairs
 There are    109289 function pairs (    139099 Cartesian)
 Smallest overlap matrix eigenvalue = 4.25E-06
 Guess MOs from SCF MO coefficient file
 Reading MOs from coefficient file
 Reading MOs from coefficient file
 Long-range K will be added via erf
 Coulomb attenuation parameter = 0.3 bohr**(-1)
 A restricted hybrid HF-DFT SCF calculation will be
 performed using Pulay DIIS extrapolation
 Polarizable Continuum solvation model will be applied
 Exchange:     0.1670 Hartree-Fock + 1.0000 wB97X-V + LR-HF
 Correlation:  1.0000 wB97X-V
 Using SG-2 standard quadrature grid
 Nonlocal Correlation:  VV10 with C = 0.0100 and b = 6.00
 Grid used for NLC:  SG-1 standard quadrature
 SCF converges when DIIS error is below 1.0E-08
Using Q-Chem read-in guess as SCF_GUESS READ specified.

 using 16 threads for integral computing
 -------------------------------------------------------
 OpenMP Integral computing Module                
 Release: version 1.0, May 2013, Q-Chem Inc. Pittsburgh 
 -------------------------------------------------------
 using 16 threads for integral computing
 -------------------------------------------------------
 OpenMP Integral computing Module                
 Release: version 1.0, May 2013, Q-Chem Inc. Pittsburgh 
 -------------------------------------------------------
 -------------------------------------------------------
 OpenMP BLAS3 based DFT computing Module                
 Release: version 1.0, May 2013, Q-Chem Inc. Pittsburgh 
 -------------------------------------------------------
 -------------------------------------------------------
 OpenMP BLAS3 based DFT computing Module                
 Release: version 1.0, May 2013, Q-Chem Inc. Pittsburgh 
 -------------------------------------------------------
 -------------------------------------------------------
 OpenMP BLAS3 based DFT computing Module                
 Release: version 1.0, May 2013, Q-Chem Inc. Pittsburgh 
 -------------------------------------------------------
 ---------------------------------------
  Cycle       Energy         DIIS Error
 ---------------------------------------
    1    -646.6666668279      3.00E-04
    2    -646.9600014020      3.23E-04
    3    -646.9645074865      1.47E-04
    4    -646.9652303760      1.09E-04
    5    -646.9656808591      8.23E-05
    6    -646.9659556603      6.18E-05
    7    -646.9661928206      3.57E-05
    8    -646.9662860094      1.66E-05
    9    -646.9663096420      4.65E-06
   10    -646.9663115273      1.08E-06
   11    -646.9663116266      1.87E-07
   12    -646.9663116291      5.08E-08
   13    -646.9663116293      9.13E-09 Convergence criterion met
 ---------------------------------------

************** Final PCM Free Energy Summary **************
 G_electrostatic  =      -0.29997235 hartree =    -188.23549362 kcal/mol
 G_cavitation     =       0.00000000 hartree =       0.00000000 kcal/mol
 G_dispersion     =       0.00000000 hartree =       0.00000000 kcal/mol
 G_repulsion      =       0.00000000 hartree =       0.00000000 kcal/mol
 --------------------------------------------------
 Non-electrostatic Free Energy =       0.00000000 hartree =       0.00000000 kcal/mol
 Total                         =      -0.29997235 hartree =    -188.23549362 kcal/mol
 --------------------------------------------------
 SCF Energy (H0 + V/2)                       =    -646.96631163 
 Solute Internal Energy (H0)                 =    -646.66633927 
 Total Free Energy (H0 + V/2 + non-elec)     =    -646.96631163 hartree
                                             = -405977.48796535 kcal/mol
***********************************************************

 SCF time:  CPU 3954.87 s  wall 281.99 s
 SCF   energy in the final basis set = -646.96631163
 Total energy in the final basis set = -646.96631163
 
 --------------------------------------------------------------
 
                    Orbital Energies (a.u.)
 --------------------------------------------------------------
 
 Alpha MOs
 -- Occupied --
-19.245 -19.228 -19.187 -19.141 -19.139 -19.107 -10.371 -10.343
-10.294 -10.246 -10.237  -1.234  -1.145  -1.143  -1.050  -1.046
 -0.999  -0.868  -0.833  -0.736  -0.674  -0.618  -0.607  -0.579
 -0.574  -0.547  -0.535  -0.529  -0.515  -0.508  -0.486  -0.476
 -0.473  -0.461  -0.445  -0.420  -0.409  -0.368  -0.366  -0.348
 -0.335  -0.331  -0.314  -0.311
 -- Virtual --
  0.060   0.070   0.081   0.082   0.097   0.100   0.105   0.117
  0.122   0.125   0.131   0.136   0.142   0.149   0.159   0.161
  0.165   0.170   0.178   0.183   0.185   0.191   0.201   0.213
  0.216   0.228   0.229   0.238   0.245   0.248   0.250   0.259
  0.268   0.269   0.283   0.289   0.292   0.297   0.303   0.305
  0.313   0.319   0.324   0.329   0.330   0.342   0.346   0.350
  0.356   0.359   0.360   0.373   0.375   0.378   0.383   0.388
  0.390   0.394   0.398   0.401   0.406   0.411   0.415   0.418
  0.422   0.429   0.433   0.440   0.450   0.456   0.460   0.468
  0.471   0.478   0.484   0.486   0.491   0.496   0.500   0.509
  0.512   0.518   0.525   0.530   0.531   0.543   0.544   0.549
  0.551   0.556   0.569   0.577   0.581   0.588   0.592   0.601
  0.603   0.606   0.618   0.630   0.633   0.639   0.641   0.648
  0.656   0.670   0.676   0.685   0.686   0.700   0.702   0.707
  0.716   0.717   0.722   0.729   0.740   0.746   0.758   0.763
  0.773   0.789   0.790   0.793   0.796   0.803   0.806   0.809
  0.815   0.824   0.826   0.828   0.837   0.844   0.849   0.851
  0.856   0.864   0.874   0.883   0.896   0.898   0.908   0.914
  0.922   0.934   0.946   0.954   0.959   0.974   0.981   0.996
  1.000   1.008   1.037   1.041   1.053   1.066   1.070   1.083
  1.088   1.110   1.112   1.129   1.144   1.157   1.173   1.179
  1.186   1.197   1.203   1.214   1.215   1.250   1.258   1.270
  1.275   1.286   1.302   1.315   1.337   1.349   1.360   1.378
  1.393   1.408   1.410   1.431   1.442   1.454   1.465   1.473
  1.490   1.501   1.516   1.518   1.547   1.557   1.579   1.588
  1.623   1.639   1.694   1.734   1.771   1.789   1.805   1.831
  1.853   1.882   1.910   1.915   1.926   1.945   1.950   1.966
  1.970   1.978   1.980   1.997   2.003   2.014   2.028   2.037
  2.046   2.072   2.082   2.107   2.108   2.122   2.131   2.165
  2.190   2.206   2.216   2.232   2.241   2.245   2.260   2.273
  2.289   2.310   2.316   2.349   2.355   2.380   2.392   2.403
  2.428   2.446   2.453   2.481   2.489   2.493   2.510   2.525
  2.539   2.557   2.599   2.608   2.619   2.651   2.668   2.671
  2.698   2.707   2.739   2.759   2.768   2.772   2.807   2.826
  2.860   2.894   2.899   2.930   2.947   2.950   2.953   2.972
  2.992   2.996   3.006   3.049   3.059   3.085   3.103   3.108
  3.121   3.142   3.157   3.209   3.225   3.258   3.272   3.278
  3.289   3.316   3.333   3.356   3.373   3.402   3.412   3.423
  3.432   3.445   3.459   3.468   3.482   3.488   3.506   3.514
  3.532   3.545   3.551   3.572   3.583   3.593   3.612   3.618
  3.644   3.645   3.669   3.673   3.688   3.708   3.721   3.728
  3.746   3.772   3.775   3.784   3.801   3.809   3.818   3.850
  3.870   3.897   3.932   3.984   3.991   4.040   4.094   4.122
  4.162   4.172   4.179   4.205   4.235   4.255   4.294   4.383
  4.436   4.518   4.574   4.600   4.631   4.654   4.676   4.727
  4.790   4.795   4.814   4.842   4.889   4.895   4.914   5.051
  5.064   5.096   5.186   5.252   5.259   5.319   5.325   5.359
  5.371   5.376   5.398   5.419   5.423   5.481   5.500   5.510
  5.595   5.614   5.666   5.699   5.712   5.724   5.727   5.754
  5.774   5.812   5.906   5.945   6.039   6.073   6.170   6.237
  6.250   6.280   6.293   6.311   6.337   6.400   6.424   6.475
  6.529   6.623   6.635   6.678   6.693   6.715   6.741   6.753
  6.766   6.790   6.840   6.848   6.927   6.952   6.966   6.969
  6.980   7.009   7.052   7.158   7.197   7.250   7.253   7.291
  7.326   7.360   7.404   7.411   7.435   7.490   7.538   7.576
  7.644   8.415  22.677  22.849  22.883  23.183  23.721  44.251
 44.367  44.408  44.429  44.494  44.808
 --------------------------------------------------------------
 
          Ground-State Mulliken Net Atomic Charges

     Atom                 Charge (a.u.)
  ----------------------------------------
      1 C                    -1.011870
      2 H                     0.232627
      3 H                     0.241228
      4 H                     0.220950
      5 C                     0.658062
      6 C                    -0.021314
      7 H                     0.122649
      8 H                     0.192922
      9 C                    -0.093659
     10 H                     0.206344
     11 H                     0.143396
     12 C                     0.123301
     13 O                    -0.248927
     14 O                    -0.535904
     15 H                     0.333615
     16 O                    -0.852911
     17 O                    -0.708968
     18 O                    -0.693095
     19 O                    -0.308445
  ----------------------------------------
  Sum of atomic charges =    -2.000000

 -----------------------------------------------------------------
                    Cartesian Multipole Moments
 -----------------------------------------------------------------
    Charge (ESU x 10^10)
                -9.6064
    Dipole Moment (Debye)
         X     -12.3082      Y      -0.3085      Z       1.8464
       Tot      12.4498
    Quadrupole Moments (Debye-Ang)
        XX    -169.6453     XY     -21.8975     YY     -79.0452
        XZ     -14.9302     YZ     -10.9365     ZZ     -89.1208
    Octopole Moments (Debye-Ang^2)
       XXX    -406.1813    XXY     -46.5997    XYY     -60.6373
       YYY     -10.4079    XXZ     -41.9260    XYZ     -24.3495
       YYZ     -11.7738    XZZ     -28.1428    YZZ       6.5148
       ZZZ      17.0415
    Hexadecapole Moments (Debye-Ang^3)
      XXXX   -4395.3546   XXXY    -480.7657   XXYY    -669.6576
      XYYY    -200.0537   YYYY    -417.8758   XXXZ    -498.5866
      XXYZ    -134.2779   XYYZ    -148.7790   YYYZ     -73.4880
      XXZZ    -622.6101   XYZZ    -107.8391   YYZZ    -173.1305
      XZZZ    -363.2050   YZZZ     -89.3437   ZZZZ    -514.8763
 -----------------------------------------------------------------
 Calculating analytic gradient of the SCF energy
 Gradient of SCF Energy
            1           2           3           4           5           6
    1  -0.0513756  -0.0535936   0.0552572   0.0299551   0.0611481   0.0465679
    2   0.0916420  -0.0574325   0.0154784  -0.0193332  -0.0827792  -0.0560543
    3  -0.0406805   0.0248854   0.0573487  -0.0657722   0.0260584  -0.0949287
            7           8           9          10          11          12
    1  -0.0041270  -0.0254281  -0.0629223   0.0028164   0.0322067   0.0528105
    2  -0.0134002   0.0566126   0.0688679   0.0138233  -0.0600749  -0.0048174
    3   0.0758212   0.0043406   0.0577959  -0.0468319   0.0102701  -0.0182962
           13          14          15          16          17          18
    1  -0.0030029   0.0114506  -0.0235772  -0.0195880  -0.0338780  -0.0293182
    2   0.0318917  -0.0434147   0.0610325   0.0261698  -0.0411371   0.0340726
    3  -0.0089594  -0.0252154   0.0117748   0.0119229  -0.0205949   0.0344306
           19
    1   0.0145984
    2  -0.0211471
    3   0.0066306
 Max gradient component =       9.493E-02
 RMS gradient           =       4.312E-02
 Computing fast CPCM-ISWIG gradient
 Updating gradient with PCM contributions...
 -- total gradient after adding PCM contribution --
---------------------------------------------------
  Atom         X              Y              Z     
---------------------------------------------------
   1      -0.001056      -0.000085       0.000027
   2       0.000274       0.000220      -0.000118
   3       0.000338       0.000060       0.000247
   4       0.000196      -0.000048      -0.000203
   5       0.000261      -0.000075      -0.000029
   6      -0.000051      -0.000006       0.000046
   7      -0.000001      -0.000011      -0.000002
   8       0.000011       0.000009      -0.000015
   9      -0.000080       0.000023       0.000032
  10       0.000025      -0.000012      -0.000014
  11       0.000033      -0.000008      -0.000038
  12       0.000009      -0.000060      -0.000084
  13      -0.000015      -0.000037       0.000027
  14      -0.000043       0.000038       0.000003
  15       0.000008       0.000003       0.000025
  16       0.000007      -0.000057       0.000007
  17       0.000048       0.000029       0.000001
  18      -0.000023       0.000031       0.000068
  19       0.000060      -0.000014       0.000020
---------------------------------------------------
 Number of fixed atoms: 0
 Gradient time:  CPU 1050.28 s  wall 76.01 s
 ----------------------------------------------------------------
             Standard Nuclear Orientation (Angstroms)
    I     Atom           X                Y                Z
 ----------------------------------------------------------------
    1      C      -2.6789969502     0.9776734932    -0.9087165815
    2      H      -2.0287318318     1.7883805570    -1.2440821134
    3      H      -3.4459154986     0.8031331201    -1.6676498011
    4      H      -3.1644714512     1.2672408383     0.0270070661
    5      C      -1.8577507274    -0.3087167476    -0.7572009318
    6      C       1.2207340169    -0.7593837065     0.2601844391
    7      H       1.2041294179    -0.5200145138    -0.8060079335
    8      H       1.7294449816    -1.7187134956     0.3967779024
    9      C       1.9035057068     0.3302576388     1.0699873610
   10      H       1.8641254168     0.0749638759     2.1360974610
   11      H       1.3692591379     1.2779480781     0.9549557548
   12      C       3.3779500008     0.5633401942     0.7050149350
   13      O      -0.9223032825     0.1016131918     0.3513430279
   14      O      -2.7387143788    -1.2895665326    -0.1596743544
   15      H      -2.3385606605    -2.1348334705    -0.3998045347
   16      O      -1.2502113578    -0.7560728050    -1.8112542904
   17      O       3.9400710278     1.5470398758     1.2563181874
   18      O       3.9245828999    -0.2367821770    -0.0971130857
   19      O      -0.1123143695    -1.0158051368     0.7005821710
 ----------------------------------------------------------------
 Nuclear Repulsion Energy =   636.3368575640 hartrees
 There are       44 alpha and       44 beta electrons
 Discretize the solute cavity surface with Lebedev spheres
	Using 110 Lebedev grid points for each H atom
	Using 110 Lebedev grid points for other atoms
	Atomic van der Waals radii will be scaled by 1.20
 Remove points where switching function is < 1.0e-08
 Keep 1134 surface tesserae and discard 956 interior tesserae
 Molecular Surface Area = 202.976 Angst**2
 Requested basis set is def2-TZVPD
 There are 189 shells and 497 basis functions
 A cutoff of  1.0D-14 yielded  15842 shell pairs
 There are    109304 function pairs (    139117 Cartesian)
 Smallest overlap matrix eigenvalue = 4.25E-06
 Guess MOs from SCF MO coefficient file
 Reading MOs from coefficient file
 Reading MOs from coefficient file
 Long-range K will be added via erf
 Coulomb attenuation parameter = 0.3 bohr**(-1)
 A restricted hybrid HF-DFT SCF calculation will be
 performed using Pulay DIIS extrapolation
 Polarizable Continuum solvation model will be applied
 Exchange:     0.1670 Hartree-Fock + 1.0000 wB97X-V + LR-HF
 Correlation:  1.0000 wB97X-V
 Using SG-2 standard quadrature grid
 Nonlocal Correlation:  VV10 with C = 0.0100 and b = 6.00
 Grid used for NLC:  SG-1 standard quadrature
 SCF converges when DIIS error is below 1.0E-08
Using Q-Chem read-in guess as SCF_GUESS READ specified.

 using 16 threads for integral computing
 -------------------------------------------------------
 OpenMP Integral computing Module                
 Release: version 1.0, May 2013, Q-Chem Inc. Pittsburgh 
 -------------------------------------------------------
 using 16 threads for integral computing
 -------------------------------------------------------
 OpenMP Integral computing Module                
 Release: version 1.0, May 2013, Q-Chem Inc. Pittsburgh 
 -------------------------------------------------------
 -------------------------------------------------------
 OpenMP BLAS3 based DFT computing Module                
 Release: version 1.0, May 2013, Q-Chem Inc. Pittsburgh 
 -------------------------------------------------------
 -------------------------------------------------------
 OpenMP BLAS3 based DFT computing Module                
 Release: version 1.0, May 2013, Q-Chem Inc. Pittsburgh 
 -------------------------------------------------------
 -------------------------------------------------------
 OpenMP BLAS3 based DFT computing Module                
 Release: version 1.0, May 2013, Q-Chem Inc. Pittsburgh 
 -------------------------------------------------------
 ---------------------------------------
  Cycle       Energy         DIIS Error
 ---------------------------------------
    1    -646.6664803480      3.00E-04
    2    -646.9599905167      3.24E-04
    3    -646.9645040801      1.47E-04
    4    -646.9652277184      1.09E-04
    5    -646.9656758461      8.27E-05
    6    -646.9659311935      6.39E-05
    7    -646.9661444429      4.24E-05
    8    -646.9662575574      2.41E-05
    9    -646.9663041528      9.04E-06
   10    -646.9663110721      2.62E-06
   11    -646.9663116736      5.14E-07
   12    -646.9663116957      1.14E-07
   13    -646.9663116968      1.15E-08
   14    -646.9663116968      4.82E-09 Convergence criterion met
 ---------------------------------------

************** Final PCM Free Energy Summary **************
 G_electrostatic  =      -0.29997152 hartree =    -188.23496980 kcal/mol
 G_cavitation     =       0.00000000 hartree =       0.00000000 kcal/mol
 G_dispersion     =       0.00000000 hartree =       0.00000000 kcal/mol
 G_repulsion      =       0.00000000 hartree =       0.00000000 kcal/mol
 --------------------------------------------------
 Non-electrostatic Free Energy =       0.00000000 hartree =       0.00000000 kcal/mol
 Total                         =      -0.29997152 hartree =    -188.23496980 kcal/mol
 --------------------------------------------------
 SCF Energy (H0 + V/2)                       =    -646.96631170 
 Solute Internal Energy (H0)                 =    -646.66634018 
 Total Free Energy (H0 + V/2 + non-elec)     =    -646.96631170 hartree
                                             = -405977.48800767 kcal/mol
***********************************************************

 SCF time:  CPU 4250.09 s  wall 302.90 s
 SCF   energy in the final basis set = -646.96631170
 Total energy in the final basis set = -646.96631170
 
 --------------------------------------------------------------
 
                    Orbital Energies (a.u.)
 --------------------------------------------------------------
 
 Alpha MOs
 -- Occupied --
-19.245 -19.228 -19.187 -19.141 -19.139 -19.107 -10.371 -10.343
-10.294 -10.246 -10.237  -1.233  -1.145  -1.143  -1.050  -1.046
 -0.999  -0.868  -0.833  -0.736  -0.674  -0.618  -0.607  -0.579
 -0.574  -0.546  -0.535  -0.529  -0.515  -0.508  -0.486  -0.476
 -0.473  -0.461  -0.445  -0.419  -0.409  -0.368  -0.366  -0.348
 -0.335  -0.331  -0.314  -0.311
 -- Virtual --
  0.060   0.070   0.081   0.082   0.097   0.100   0.105   0.117
  0.122   0.125   0.131   0.136   0.142   0.149   0.159   0.161
  0.165   0.170   0.178   0.183   0.185   0.191   0.201   0.213
  0.216   0.228   0.229   0.238   0.245   0.248   0.250   0.259
  0.268   0.269   0.283   0.289   0.292   0.297   0.303   0.305
  0.313   0.319   0.324   0.329   0.330   0.342   0.346   0.350
  0.356   0.359   0.360   0.373   0.375   0.378   0.383   0.388
  0.390   0.394   0.398   0.401   0.406   0.411   0.415   0.418
  0.422   0.429   0.433   0.440   0.450   0.456   0.460   0.468
  0.471   0.478   0.484   0.486   0.491   0.496   0.500   0.509
  0.512   0.518   0.525   0.530   0.531   0.543   0.544   0.549
  0.551   0.556   0.569   0.577   0.581   0.588   0.592   0.601
  0.603   0.606   0.618   0.630   0.633   0.639   0.641   0.648
  0.656   0.670   0.676   0.685   0.686   0.700   0.702   0.707
  0.716   0.717   0.722   0.729   0.740   0.746   0.758   0.763
  0.773   0.789   0.790   0.793   0.797   0.803   0.806   0.809
  0.815   0.824   0.826   0.828   0.837   0.844   0.849   0.851
  0.856   0.864   0.874   0.883   0.896   0.898   0.908   0.914
  0.922   0.934   0.946   0.954   0.959   0.974   0.981   0.996
  1.000   1.008   1.037   1.041   1.053   1.066   1.070   1.083
  1.088   1.110   1.112   1.129   1.144   1.157   1.173   1.179
  1.186   1.197   1.203   1.214   1.215   1.250   1.258   1.270
  1.275   1.286   1.302   1.315   1.337   1.349   1.360   1.378
  1.393   1.408   1.410   1.431   1.442   1.454   1.465   1.473
  1.490   1.501   1.516   1.518   1.547   1.557   1.579   1.587
  1.623   1.638   1.694   1.734   1.771   1.789   1.805   1.831
  1.853   1.882   1.910   1.915   1.926   1.945   1.950   1.966
  1.970   1.978   1.980   1.997   2.003   2.014   2.028   2.037
  2.047   2.072   2.082   2.107   2.108   2.122   2.131   2.165
  2.190   2.206   2.216   2.232   2.241   2.245   2.260   2.273
  2.289   2.310   2.316   2.349   2.355   2.380   2.392   2.403
  2.428   2.446   2.453   2.481   2.489   2.493   2.510   2.525
  2.539   2.557   2.600   2.608   2.619   2.651   2.668   2.671
  2.698   2.706   2.738   2.759   2.768   2.772   2.807   2.826
  2.860   2.893   2.899   2.930   2.947   2.950   2.953   2.972
  2.992   2.996   3.006   3.049   3.059   3.085   3.103   3.108
  3.121   3.142   3.157   3.209   3.225   3.257   3.272   3.278
  3.289   3.316   3.333   3.356   3.373   3.402   3.412   3.423
  3.433   3.445   3.459   3.468   3.482   3.488   3.506   3.514
  3.533   3.545   3.551   3.572   3.583   3.593   3.612   3.618
  3.644   3.645   3.669   3.673   3.688   3.708   3.721   3.728
  3.746   3.772   3.775   3.784   3.801   3.809   3.818   3.850
  3.870   3.897   3.932   3.984   3.991   4.040   4.094   4.122
  4.162   4.172   4.179   4.205   4.234   4.255   4.294   4.383
  4.436   4.518   4.574   4.600   4.631   4.654   4.676   4.727
  4.790   4.795   4.814   4.842   4.889   4.895   4.914   5.051
  5.064   5.096   5.186   5.252   5.259   5.319   5.325   5.359
  5.371   5.376   5.398   5.419   5.423   5.481   5.500   5.510
  5.595   5.614   5.666   5.699   5.712   5.724   5.727   5.754
  5.774   5.812   5.906   5.945   6.039   6.073   6.170   6.237
  6.250   6.280   6.293   6.311   6.337   6.400   6.424   6.475
  6.529   6.623   6.635   6.679   6.693   6.714   6.741   6.753
  6.766   6.790   6.840   6.848   6.927   6.951   6.966   6.969
  6.980   7.009   7.052   7.158   7.197   7.250   7.253   7.291
  7.326   7.360   7.404   7.411   7.435   7.490   7.538   7.576
  7.644   8.415  22.677  22.849  22.883  23.183  23.721  44.251
 44.367  44.408  44.429  44.494  44.808
 --------------------------------------------------------------
 
          Ground-State Mulliken Net Atomic Charges

     Atom                 Charge (a.u.)
  ----------------------------------------
      1 C                    -1.011598
      2 H                     0.233245
      3 H                     0.240790
      4 H                     0.220899
      5 C                     0.657639
      6 C                    -0.021276
      7 H                     0.122646
      8 H                     0.192938
      9 C                    -0.093697
     10 H                     0.206342
     11 H                     0.143398
     12 C                     0.123303
     13 O                    -0.248894
     14 O                    -0.535875
     15 H                     0.333690
     16 O                    -0.852893
     17 O                    -0.708969
     18 O                    -0.693096
     19 O                    -0.308591
  ----------------------------------------
  Sum of atomic charges =    -2.000000

 -----------------------------------------------------------------
                    Cartesian Multipole Moments
 -----------------------------------------------------------------
    Charge (ESU x 10^10)
                -9.6064
    Dipole Moment (Debye)
         X     -12.3081      Y      -0.3085      Z       1.8461
       Tot      12.4496
    Quadrupole Moments (Debye-Ang)
        XX    -169.6500     XY     -21.8938     YY     -79.0421
        XZ     -14.9334     YZ     -10.9383     ZZ     -89.1226
    Octopole Moments (Debye-Ang^2)
       XXX    -406.1799    XXY     -46.6204    XYY     -60.6465
       YYY     -10.4186    XXZ     -41.9096    XYZ     -24.3493
       YYZ     -11.7797    XZZ     -28.1382    YZZ       6.5121
       ZZZ      17.0450
    Hexadecapole Moments (Debye-Ang^3)
      XXXX   -4395.2972   XXXY    -480.6778   XXYY    -669.6475
      XYYY    -200.0213   YYYY    -417.8980   XXXZ    -498.6508
      XXYZ    -134.2626   XYYZ    -148.7699   YYYZ     -73.4923
      XXZZ    -622.6306   XYZZ    -107.8251   YYZZ    -173.1337
      XZZZ    -363.2207   YZZZ     -89.3350   ZZZZ    -514.8943
 -----------------------------------------------------------------
 Calculating analytic gradient of the SCF energy
 Gradient of SCF Energy
            1           2           3           4           5           6
    1  -0.0503167  -0.0541108   0.0547947   0.0298763   0.0611689   0.0465810
    2   0.0925125  -0.0581041   0.0153725  -0.0193151  -0.0828572  -0.0560475
    3  -0.0406197   0.0251487   0.0569584  -0.0656768   0.0260091  -0.0949259
            7           8           9          10          11          12
    1  -0.0041254  -0.0254284  -0.0629322   0.0028172   0.0322069   0.0528117
    2  -0.0133998   0.0566107   0.0688637   0.0138245  -0.0600723  -0.0048195
    3   0.0758192   0.0043382   0.0577976  -0.0468323   0.0102691  -0.0182974
           13          14          15          16          17          18
    1  -0.0030055   0.0114562  -0.0235795  -0.0195982  -0.0338786  -0.0293184
    2   0.0319042  -0.0434650   0.0610339   0.0261598  -0.0411375   0.0340725
    3  -0.0089389  -0.0252029   0.0117847   0.0119094  -0.0205947   0.0344310
           19
    1   0.0145807
    2  -0.0211362
    3   0.0066231
 Max gradient component =       9.493E-02
 RMS gradient           =       4.314E-02
 Computing fast CPCM-ISWIG gradient
 Updating gradient with PCM contributions...
 -- total gradient after adding PCM contribution --
---------------------------------------------------
  Atom         X              Y              Z     
---------------------------------------------------
   1       0.000094       0.000977       0.000031
   2      -0.000231      -0.000373       0.000094
   3      -0.000059      -0.000101      -0.000064
   4       0.000067      -0.000117      -0.000123
   5       0.000160      -0.000254      -0.000015
   6      -0.000047      -0.000002       0.000043
   7      -0.000002      -0.000012      -0.000001
   8       0.000010       0.000008      -0.000014
   9      -0.000080       0.000023       0.000032
  10       0.000025      -0.000012      -0.000014
  11       0.000033      -0.000008      -0.000038
  12       0.000010      -0.000060      -0.000084
  13      -0.000045       0.000005       0.000006
  14      -0.000022      -0.000080       0.000029
  15       0.000005      -0.000009       0.000037
  16       0.000018      -0.000037       0.000005
  17       0.000047       0.000029       0.000001
  18      -0.000024       0.000031       0.000067
  19       0.000040      -0.000007       0.000007
---------------------------------------------------
 Number of fixed atoms: 0
 Gradient time:  CPU 1051.14 s  wall 75.93 s
 ----------------------------------------------------------------
             Standard Nuclear Orientation (Angstroms)
    I     Atom           X                Y                Z
 ----------------------------------------------------------------
    1      C      -2.6789969502     0.9756734932    -0.9087165815
    2      H      -2.0287318318     1.7883805570    -1.2440821134
    3      H      -3.4459154986     0.8031331201    -1.6676498011
    4      H      -3.1644714512     1.2672408383     0.0270070661
    5      C      -1.8577507274    -0.3087167476    -0.7572009318
    6      C       1.2207340169    -0.7593837065     0.2601844391
    7      H       1.2041294179    -0.5200145138    -0.8060079335
    8      H       1.7294449816    -1.7187134956     0.3967779024
    9      C       1.9035057068     0.3302576388     1.0699873610
   10      H       1.8641254168     0.0749638759     2.1360974610
   11      H       1.3692591379     1.2779480781     0.9549557548
   12      C       3.3779500008     0.5633401942     0.7050149350
   13      O      -0.9223032825     0.1016131918     0.3513430279
   14      O      -2.7387143788    -1.2895665326    -0.1596743544
   15      H      -2.3385606605    -2.1348334705    -0.3998045347
   16      O      -1.2502113578    -0.7560728050    -1.8112542904
   17      O       3.9400710278     1.5470398758     1.2563181874
   18      O       3.9245828999    -0.2367821770    -0.0971130857
   19      O      -0.1123143695    -1.0158051368     0.7005821710
 ----------------------------------------------------------------
 Nuclear Repulsion Energy =   636.3682432590 hartrees
 There are       44 alpha and       44 beta electrons
 Discretize the solute cavity surface with Lebedev spheres
	Using 110 Lebedev grid points for each H atom
	Using 110 Lebedev grid points for other atoms
	Atomic van der Waals radii will be scaled by 1.20
 Remove points where switching function is < 1.0e-08
 Keep 1134 surface tesserae and discard 956 interior tesserae
 Molecular Surface Area = 202.962 Angst**2
 Requested basis set is def2-TZVPD
 There are 189 shells and 497 basis functions
 A cutoff of  1.0D-14 yielded  15842 shell pairs
 There are    109304 function pairs (    139117 Cartesian)
 Smallest overlap matrix eigenvalue = 4.25E-06
 Guess MOs from SCF MO coefficient file
 Reading MOs from coefficient file
 Reading MOs from coefficient file
 Long-range K will be added via erf
 Coulomb attenuation parameter = 0.3 bohr**(-1)
 A restricted hybrid HF-DFT SCF calculation will be
 performed using Pulay DIIS extrapolation
 Polarizable Continuum solvation model will be applied
 Exchange:     0.1670 Hartree-Fock + 1.0000 wB97X-V + LR-HF
 Correlation:  1.0000 wB97X-V
 Using SG-2 standard quadrature grid
 Nonlocal Correlation:  VV10 with C = 0.0100 and b = 6.00
 Grid used for NLC:  SG-1 standard quadrature
 SCF converges when DIIS error is below 1.0E-08
Using Q-Chem read-in guess as SCF_GUESS READ specified.

 using 16 threads for integral computing
 -------------------------------------------------------
 OpenMP Integral computing Module                
 Release: version 1.0, May 2013, Q-Chem Inc. Pittsburgh 
 -------------------------------------------------------
 using 16 threads for integral computing
 -------------------------------------------------------
 OpenMP Integral computing Module                
 Release: version 1.0, May 2013, Q-Chem Inc. Pittsburgh 
 -------------------------------------------------------
 -------------------------------------------------------
 OpenMP BLAS3 based DFT computing Module                
 Release: version 1.0, May 2013, Q-Chem Inc. Pittsburgh 
 -------------------------------------------------------
 -------------------------------------------------------
 OpenMP BLAS3 based DFT computing Module                
 Release: version 1.0, May 2013, Q-Chem Inc. Pittsburgh 
 -------------------------------------------------------
 -------------------------------------------------------
 OpenMP BLAS3 based DFT computing Module                
 Release: version 1.0, May 2013, Q-Chem Inc. Pittsburgh 
 -------------------------------------------------------
 ---------------------------------------
  Cycle       Energy         DIIS Error
 ---------------------------------------
    1    -646.6657222954      3.01E-04
    2    -646.9599967066      3.23E-04
    3    -646.9645074849      1.47E-04
    4    -646.9652314856      1.09E-04
    5    -646.9656880583      8.19E-05
    6    -646.9659625690      6.12E-05
    7    -646.9661991070      3.48E-05
    8    -646.9662890202      1.56E-05
    9    -646.9663100608      4.27E-06
   10    -646.9663116408      1.06E-06
   11    -646.9663117352      2.13E-07
   12    -646.9663117388      4.83E-08
   13    -646.9663117389      7.69E-09 Convergence criterion met
 ---------------------------------------

************** Final PCM Free Energy Summary **************
 G_electrostatic  =      -0.29998704 hartree =    -188.24470577 kcal/mol
 G_cavitation     =       0.00000000 hartree =       0.00000000 kcal/mol
 G_dispersion     =       0.00000000 hartree =       0.00000000 kcal/mol
 G_repulsion      =       0.00000000 hartree =       0.00000000 kcal/mol
 --------------------------------------------------
 Non-electrostatic Free Energy =       0.00000000 hartree =       0.00000000 kcal/mol
 Total                         =      -0.29998704 hartree =    -188.24470577 kcal/mol
 --------------------------------------------------
 SCF Energy (H0 + V/2)                       =    -646.96631174 
 Solute Internal Energy (H0)                 =    -646.66632470 
 Total Free Energy (H0 + V/2 + non-elec)     =    -646.96631174 hartree
                                             = -405977.48803413 kcal/mol
***********************************************************

 SCF time:  CPU 3956.09 s  wall 282.16 s
 SCF   energy in the final basis set = -646.96631174
 Total energy in the final basis set = -646.96631174
 
 --------------------------------------------------------------
 
                    Orbital Energies (a.u.)
 --------------------------------------------------------------
 
 Alpha MOs
 -- Occupied --
-19.245 -19.228 -19.187 -19.141 -19.139 -19.107 -10.371 -10.343
-10.294 -10.246 -10.237  -1.234  -1.145  -1.143  -1.050  -1.046
 -0.999  -0.868  -0.833  -0.736  -0.674  -0.618  -0.607  -0.579
 -0.574  -0.547  -0.535  -0.529  -0.515  -0.508  -0.486  -0.476
 -0.473  -0.460  -0.445  -0.420  -0.409  -0.368  -0.366  -0.348
 -0.335  -0.331  -0.314  -0.311
 -- Virtual --
  0.060   0.070   0.081   0.082   0.097   0.100   0.105   0.117
  0.122   0.125   0.131   0.136   0.142   0.149   0.159   0.161
  0.165   0.170   0.178   0.183   0.185   0.191   0.201   0.213
  0.216   0.228   0.229   0.238   0.245   0.248   0.250   0.259
  0.268   0.269   0.283   0.289   0.293   0.297   0.303   0.305
  0.313   0.319   0.324   0.329   0.330   0.342   0.346   0.350
  0.356   0.359   0.360   0.373   0.375   0.378   0.383   0.388
  0.390   0.394   0.398   0.401   0.406   0.411   0.415   0.418
  0.422   0.429   0.433   0.440   0.450   0.456   0.460   0.468
  0.471   0.478   0.484   0.486   0.491   0.496   0.500   0.509
  0.512   0.518   0.525   0.530   0.531   0.543   0.544   0.549
  0.551   0.556   0.569   0.577   0.581   0.588   0.592   0.601
  0.603   0.606   0.618   0.630   0.633   0.639   0.641   0.648
  0.656   0.670   0.676   0.685   0.686   0.700   0.702   0.707
  0.716   0.717   0.722   0.729   0.740   0.746   0.758   0.763
  0.773   0.789   0.790   0.793   0.796   0.803   0.806   0.809
  0.815   0.824   0.826   0.828   0.837   0.845   0.849   0.851
  0.856   0.864   0.874   0.883   0.896   0.898   0.908   0.914
  0.922   0.934   0.946   0.954   0.959   0.974   0.981   0.996
  1.000   1.008   1.037   1.041   1.053   1.066   1.070   1.083
  1.088   1.110   1.112   1.129   1.144   1.157   1.173   1.179
  1.186   1.197   1.203   1.214   1.215   1.250   1.258   1.270
  1.275   1.286   1.302   1.315   1.337   1.349   1.360   1.378
  1.393   1.408   1.410   1.431   1.442   1.454   1.465   1.473
  1.490   1.501   1.516   1.518   1.547   1.557   1.579   1.588
  1.623   1.639   1.694   1.734   1.772   1.789   1.805   1.831
  1.853   1.882   1.910   1.915   1.926   1.945   1.950   1.966
  1.970   1.978   1.980   1.997   2.003   2.014   2.028   2.037
  2.047   2.072   2.082   2.107   2.108   2.122   2.131   2.165
  2.190   2.206   2.216   2.232   2.241   2.245   2.261   2.273
  2.289   2.310   2.316   2.349   2.355   2.380   2.393   2.404
  2.428   2.446   2.453   2.481   2.489   2.493   2.510   2.525
  2.539   2.557   2.599   2.608   2.620   2.651   2.669   2.671
  2.698   2.707   2.739   2.759   2.768   2.772   2.807   2.826
  2.860   2.893   2.899   2.930   2.947   2.950   2.953   2.972
  2.992   2.996   3.006   3.049   3.059   3.085   3.103   3.108
  3.121   3.142   3.157   3.209   3.225   3.258   3.272   3.278
  3.289   3.316   3.333   3.356   3.373   3.402   3.412   3.423
  3.432   3.444   3.459   3.468   3.482   3.488   3.506   3.514
  3.532   3.545   3.551   3.572   3.583   3.593   3.612   3.618
  3.644   3.645   3.669   3.674   3.688   3.708   3.721   3.728
  3.746   3.772   3.775   3.784   3.801   3.809   3.818   3.850
  3.870   3.897   3.932   3.985   3.991   4.040   4.094   4.122
  4.162   4.172   4.180   4.207   4.235   4.255   4.294   4.383
  4.436   4.518   4.574   4.600   4.631   4.654   4.674   4.727
  4.791   4.795   4.814   4.842   4.889   4.895   4.914   5.051
  5.064   5.096   5.186   5.252   5.259   5.319   5.325   5.359
  5.371   5.376   5.398   5.419   5.423   5.481   5.500   5.510
  5.595   5.615   5.666   5.699   5.712   5.724   5.727   5.754
  5.774   5.813   5.906   5.945   6.039   6.073   6.170   6.237
  6.250   6.280   6.293   6.311   6.337   6.400   6.424   6.475
  6.529   6.623   6.635   6.679   6.693   6.715   6.741   6.753
  6.766   6.790   6.840   6.848   6.927   6.952   6.966   6.969
  6.980   7.009   7.052   7.158   7.197   7.251   7.254   7.291
  7.326   7.360   7.404   7.411   7.435   7.490   7.538   7.576
  7.644   8.415  22.677  22.849  22.883  23.184  23.721  44.251
 44.367  44.408  44.429  44.494  44.808
 --------------------------------------------------------------
 
          Ground-State Mulliken Net Atomic Charges

     Atom                 Charge (a.u.)
  ----------------------------------------
      1 C                    -1.013059
      2 H                     0.232669
      3 H                     0.241137
      4 H                     0.220750
      5 C                     0.659587
      6 C                    -0.021334
      7 H                     0.122663
      8 H                     0.192935
      9 C                    -0.093645
     10 H                     0.206356
     11 H                     0.143387
     12 C                     0.123290
     13 O                    -0.248896
     14 O                    -0.535936
     15 H                     0.333671
     16 O                    -0.853000
     17 O                    -0.708969
     18 O                    -0.693096
     19 O                    -0.308509
  ----------------------------------------
  Sum of atomic charges =    -2.000000

 -----------------------------------------------------------------
                    Cartesian Multipole Moments
 -----------------------------------------------------------------
    Charge (ESU x 10^10)
                -9.6064
    Dipole Moment (Debye)
[...]
 Red. Mass:       2.3537                 1.8601                 2.5700
 IR Active:          YES                    YES                    YES
 IR Intens:       27.438                210.257                 14.859
 Raman Active:       YES                    YES                    YES
               X      Y      Z        X      Y      Z        X      Y      Z
 C          0.039  0.019  0.026   -0.035 -0.075  0.110    0.024  0.028 -0.010
 H         -0.087  0.076 -0.068    0.295 -0.421 -0.094   -0.117  0.134 -0.023
 H          0.082 -0.190  0.026    0.228 -0.128 -0.139   -0.009 -0.063  0.040
 H         -0.085 -0.019 -0.029   -0.121  0.325 -0.075   -0.032 -0.061 -0.008
 C         -0.050 -0.018 -0.023   -0.030  0.156 -0.097   -0.021 -0.048  0.005
 C         -0.058 -0.033 -0.179    0.012  0.038  0.012    0.136  0.186  0.023
 H          0.078 -0.387 -0.261    0.029  0.005  0.006    0.213  0.053  0.004
 H         -0.076 -0.003  0.183    0.025  0.054  0.066    0.285  0.316  0.315
 C          0.064  0.009  0.200    0.001 -0.038 -0.012    0.014 -0.176 -0.050
 H         -0.275  0.244  0.236   -0.096 -0.048 -0.019   -0.515 -0.274 -0.103
 H          0.534  0.249 -0.090    0.017 -0.035 -0.058    0.125 -0.142 -0.279
 C         -0.053  0.086 -0.121   -0.003  0.012 -0.014   -0.016  0.063 -0.074
 O         -0.015  0.038 -0.012    0.013 -0.024  0.011    0.046 -0.022  0.010
 O          0.002 -0.001  0.006   -0.065 -0.010  0.056    0.019  0.001 -0.013
 H          0.022  0.013 -0.012    0.459  0.329 -0.311   -0.130 -0.094  0.085
 O          0.011  0.001 -0.003    0.049 -0.043 -0.044   -0.005  0.010  0.012
 O         -0.004 -0.024  0.020    0.005  0.000  0.003    0.017 -0.006  0.010
 O          0.013 -0.017  0.022   -0.002 -0.001  0.005   -0.011 -0.001  0.026
 O          0.023 -0.044  0.041   -0.010  0.002  0.009   -0.156 -0.012  0.030
 TransDip  -0.133 -0.021 -0.101    0.157  0.384 -0.209    0.120 -0.027 -0.012

 Mode:                31                     32                     33
 Frequency:      1203.12                1242.42                1277.01
 Force Cnst:      2.1390                 1.2309                 1.3945
 Red. Mass:       2.5081                 1.3534                 1.4514
 IR Active:          YES                    YES                    YES
 IR Intens:      222.852                  1.800                 31.665
 Raman Active:       YES                    YES                    YES
               X      Y      Z        X      Y      Z        X      Y      Z
 C          0.021  0.030 -0.064    0.003  0.000  0.004   -0.003 -0.001 -0.003
 H         -0.152  0.227  0.095   -0.003 -0.001 -0.011   -0.002  0.003  0.008
 H         -0.177  0.092  0.120    0.010 -0.014 -0.001   -0.009  0.018 -0.000
 H          0.032 -0.146  0.015   -0.006 -0.001 -0.001    0.004  0.008 -0.001
 C         -0.100 -0.117  0.229   -0.005  0.001 -0.008    0.007 -0.005  0.005
 C          0.007  0.012  0.002   -0.022  0.098 -0.091   -0.018 -0.041 -0.016
 H         -0.018  0.002  0.002    0.526  0.019 -0.122    0.293  0.165  0.025
 H         -0.054 -0.018  0.018   -0.334 -0.026  0.206    0.412  0.195 -0.000
 C         -0.000 -0.001 -0.004    0.002 -0.020  0.006   -0.135 -0.091 -0.032
 H          0.015 -0.001 -0.004    0.419  0.290  0.092    0.513  0.233  0.068
 H         -0.037 -0.023 -0.011   -0.405 -0.265 -0.144    0.496  0.267  0.025
 C          0.004 -0.002  0.003    0.016 -0.031  0.043   -0.035 -0.027  0.002
 O          0.021  0.017  0.013    0.009  0.015 -0.009   -0.002 -0.006  0.002
 O         -0.065  0.027  0.035    0.002 -0.001 -0.001   -0.003  0.001  0.001
 H          0.613  0.438 -0.379   -0.017 -0.013  0.010    0.028  0.020 -0.017
 O          0.088 -0.021 -0.157   -0.000  0.001  0.003   -0.001  0.001 -0.002
 O         -0.001 -0.002 -0.002   -0.003  0.004 -0.007    0.039  0.053  0.025
 O         -0.001  0.002  0.001   -0.002  0.004 -0.007    0.004 -0.011 -0.012
 O         -0.006  0.000 -0.006   -0.013 -0.058  0.054   -0.009  0.027  0.011
 TransDip  -0.097  0.065  0.464    0.017  0.031 -0.025   -0.046 -0.143 -0.100

 Mode:                34                     35                     36
 Frequency:      1310.59                1364.75                1391.42
 Force Cnst:      1.1029                 1.5528                 1.6850
 Red. Mass:       1.0898                 1.4150                 1.4771
 IR Active:          YES                    YES                    YES
 IR Intens:        1.927                122.440                  0.394
 Raman Active:       YES                    YES                    YES
               X      Y      Z        X      Y      Z        X      Y      Z
 C          0.001 -0.000  0.001    0.061 -0.106  0.034   -0.023  0.028 -0.010
 H         -0.005  0.003 -0.004   -0.445  0.273 -0.076    0.102 -0.058  0.029
 H          0.001  0.003 -0.000   -0.106  0.535  0.035    0.019 -0.106 -0.017
 H         -0.004  0.004 -0.002   -0.220  0.426 -0.266    0.058 -0.072  0.062
 C          0.000 -0.005 -0.004    0.065 -0.073 -0.067    0.017 -0.018  0.006
 C          0.012 -0.016  0.023   -0.018 -0.010 -0.003   -0.131 -0.079 -0.010
 H          0.531  0.315  0.084    0.063  0.012 -0.001    0.546  0.187  0.030
 H         -0.450 -0.289 -0.159    0.082  0.043 -0.010    0.554  0.274 -0.082
 C         -0.023  0.035 -0.042    0.017  0.006  0.002    0.090  0.031 -0.008
 H         -0.236 -0.254 -0.121   -0.045  0.003 -0.000   -0.304  0.050 -0.008
 H          0.286  0.233  0.149   -0.049 -0.028  0.012   -0.238 -0.122  0.164
 C         -0.007  0.009 -0.016    0.006  0.003 -0.000    0.050  0.022 -0.004
 O          0.000  0.008 -0.006   -0.008  0.006 -0.002   -0.001 -0.005  0.001
 O         -0.001  0.001  0.000   -0.018  0.015  0.011   -0.005  0.002  0.002
 H          0.011  0.008 -0.007    0.186  0.141 -0.125    0.044  0.031 -0.026
 O          0.000  0.002  0.002   -0.029  0.028  0.044   -0.001  0.003 -0.001
 O          0.003  0.002  0.004   -0.004 -0.006 -0.003   -0.027 -0.036 -0.018
 O          0.000 -0.001  0.002   -0.002  0.002  0.002   -0.014  0.015  0.016
 O          0.001 -0.030  0.029   -0.002  0.001 -0.000   -0.003  0.021  0.008
 TransDip   0.012 -0.003 -0.043    0.124  0.025 -0.331   -0.009  0.018  0.004

 Mode:                37                     38                     39
 Frequency:      1430.48                1438.73                1457.19
 Force Cnst:      8.6988                 3.3080                 1.4821
 Red. Mass:       7.2152                 2.7124                 1.1847
 IR Active:          YES                    YES                    YES
 IR Intens:      355.121                465.952                 22.524
 Raman Active:       YES                    YES                    YES
               X      Y      Z        X      Y      Z        X      Y      Z
 C          0.020 -0.021  0.002    0.096 -0.118 -0.012   -0.005  0.007  0.006
 H         -0.044  0.026 -0.003   -0.209  0.188  0.166   -0.009 -0.017 -0.062
 H         -0.029  0.052  0.034   -0.211  0.221  0.231    0.036  0.019 -0.040
 H         -0.044  0.026 -0.044   -0.168  0.238 -0.250    0.011 -0.040  0.026
 C         -0.034  0.043  0.012   -0.171  0.249  0.112    0.008 -0.015 -0.006
 C          0.016 -0.001  0.000   -0.025 -0.016  0.002    0.040  0.043  0.020
 H         -0.040 -0.071 -0.019    0.114  0.055  0.018   -0.035 -0.231 -0.042
 H         -0.048 -0.054 -0.072    0.097  0.047 -0.016   -0.097 -0.063 -0.182
 C         -0.207 -0.033  0.050    0.025 -0.004 -0.018   -0.017 -0.070 -0.063
 H          0.422 -0.217  0.027   -0.121  0.120  0.011   -0.232  0.607  0.107
 H          0.264  0.181 -0.349   -0.048 -0.018  0.168   -0.005  0.040  0.660
 C          0.530  0.085 -0.119   -0.019  0.001  0.007    0.038  0.016 -0.001
 O          0.001 -0.002  0.000    0.010 -0.020 -0.004    0.001  0.001  0.001
 O          0.009 -0.006 -0.004    0.041 -0.036 -0.024   -0.002  0.002  0.001
 H         -0.082 -0.060  0.051   -0.424 -0.319  0.284    0.021  0.016 -0.015
 O          0.010 -0.010 -0.011    0.060 -0.063 -0.083   -0.004  0.004  0.005
 O         -0.149 -0.199 -0.101    0.004  0.004  0.002   -0.010 -0.016 -0.009
 O         -0.160  0.159  0.177    0.007 -0.007 -0.007   -0.007  0.006  0.007
 O          0.020  0.010  0.003    0.012  0.004  0.009   -0.007 -0.004 -0.000
 TransDip   0.583  0.115 -0.108   -0.432  0.291  0.454    0.120  0.085  0.040

 Mode:                40                     41                     42
 Frequency:      1465.32                1470.96                1477.33
 Force Cnst:      1.3693                 1.3349                 1.4265
 Red. Mass:       1.0824                 1.0471                 1.1094
 IR Active:          YES                    YES                    YES
 IR Intens:       16.268                  3.728                 13.175
 Raman Active:       YES                    YES                    YES
               X      Y      Z        X      Y      Z        X      Y      Z
 C          0.016  0.012 -0.047   -0.037 -0.035 -0.021   -0.001  0.002 -0.001
 H          0.311 -0.003  0.520   -0.183  0.287  0.436    0.016 -0.003  0.019
 H         -0.390 -0.329  0.448    0.242 -0.261 -0.232   -0.012 -0.017  0.015
 H         -0.238  0.214 -0.222    0.535  0.455  0.127   -0.008  0.008 -0.006
 C          0.032 -0.024 -0.042   -0.019 -0.008 -0.009    0.006 -0.005 -0.006
 C          0.006  0.009  0.003    0.003  0.002  0.000    0.020 -0.057 -0.062
 H         -0.007 -0.050 -0.011   -0.007 -0.009 -0.002   -0.274  0.620  0.107
 H         -0.021 -0.013 -0.037   -0.011 -0.006 -0.004   -0.087  0.002  0.663
 C         -0.004 -0.005 -0.002   -0.002 -0.002 -0.001    0.005 -0.011 -0.017
 H         -0.003  0.031  0.007   -0.001  0.012  0.003   -0.084  0.158  0.025
 H          0.004  0.004  0.028    0.003  0.002  0.012   -0.004  0.015  0.193
 C          0.003  0.000 -0.001    0.003  0.001 -0.001    0.020  0.014  0.003
 O         -0.001  0.002  0.000    0.000  0.001  0.000   -0.004  0.004 -0.001
 O         -0.006  0.004  0.005    0.001  0.000  0.001   -0.001  0.001  0.001
 H          0.057  0.042 -0.037    0.001 -0.001  0.001    0.009  0.007 -0.007
 O         -0.010  0.008  0.017    0.003  0.001  0.001   -0.002  0.001  0.003
 O         -0.000 -0.001 -0.000   -0.001 -0.001 -0.000   -0.009 -0.013 -0.007
 O         -0.001  0.001  0.001   -0.001  0.001  0.001   -0.004  0.002  0.003
 O         -0.003 -0.002 -0.000   -0.000 -0.001 -0.000    0.010 -0.003 -0.001
 TransDip   0.082 -0.063 -0.077    0.042  0.039  0.022    0.010  0.089  0.075

 Mode:                43                     44                     45
 Frequency:      1585.34                3059.88                3061.41
 Force Cnst:     15.3056                 5.8519                 5.7404
 Red. Mass:      10.3361                 1.0608                 1.0396
 IR Active:          YES                    YES                    YES
 IR Intens:     1288.193                 21.858                 32.420
 Raman Active:       YES                    YES                    YES
               X      Y      Z        X      Y      Z        X      Y      Z
 C          0.000 -0.000 -0.000   -0.011  0.016 -0.001    0.025 -0.039  0.001
 H         -0.000  0.001 -0.000   -0.128 -0.153  0.064    0.315  0.378 -0.159
 H         -0.000 -0.000 -0.000    0.147  0.038  0.148   -0.346 -0.089 -0.348
 H         -0.000  0.000  0.000    0.104 -0.060 -0.206   -0.256  0.147  0.506
 C         -0.000 -0.000 -0.000    0.001 -0.001  0.000   -0.002  0.003 -0.000
 C         -0.015  0.011  0.020    0.001  0.001  0.006    0.001 -0.002  0.001
 H          0.037 -0.052  0.014   -0.002  0.016 -0.072    0.000  0.001 -0.005
 H          0.006  0.022 -0.063    0.005 -0.013  0.003   -0.011  0.021 -0.003
 C         -0.033 -0.053 -0.028    0.019 -0.013 -0.062    0.007 -0.005 -0.026
 H          0.258 -0.082 -0.020   -0.024 -0.201  0.799   -0.010 -0.082  0.329
 H          0.287  0.120 -0.191   -0.194  0.352 -0.058   -0.073  0.134 -0.022
 C         -0.019  0.615  0.473   -0.001 -0.001 -0.001   -0.001 -0.000 -0.000
 O          0.001  0.000  0.000    0.000  0.000  0.000   -0.000 -0.000 -0.000
 O         -0.000  0.000 -0.000   -0.000  0.000  0.000    0.000 -0.000 -0.000
 H          0.000 -0.000  0.000    0.001 -0.000 -0.001   -0.001 -0.001  0.002
 O          0.000 -0.000 -0.000   -0.000  0.000  0.000    0.000 -0.000 -0.000
 O         -0.113 -0.224 -0.130    0.000  0.000  0.000    0.000  0.000  0.000
 O          0.124 -0.204 -0.199    0.000  0.000  0.000    0.000  0.000  0.000
 O          0.002 -0.002 -0.003   -0.001 -0.000  0.000    0.000 -0.000  0.000
 TransDip   0.021  0.919  0.691   -0.032  0.000 -0.146    0.093 -0.143 -0.063

 Mode:                46                     47                     48
 Frequency:      3077.87                3110.83                3136.90
 Force Cnst:      5.9065                 6.2569                 6.4192
 Red. Mass:       1.0582                 1.0974                 1.1072
 IR Active:          YES                    YES                    YES
 IR Intens:       45.857                 10.379                 43.154
 Raman Active:       YES                    YES                    YES
               X      Y      Z        X      Y      Z        X      Y      Z
 C         -0.000  0.002  0.001   -0.000 -0.001 -0.000   -0.001  0.001  0.012
 H         -0.015 -0.018  0.008    0.005  0.006 -0.003    0.019  0.023 -0.008
 H          0.007  0.001  0.007   -0.000 -0.000 -0.000   -0.053 -0.013 -0.050
 H          0.012 -0.007 -0.024   -0.004  0.002  0.007    0.042 -0.025 -0.081
 C         -0.000 -0.000 -0.001   -0.000 -0.000 -0.000    0.000 -0.000  0.000
 C          0.027 -0.045 -0.042   -0.008  0.020 -0.026   -0.024  0.056 -0.064
 H          0.018 -0.148  0.607    0.005 -0.067  0.300    0.018 -0.151  0.689
 H         -0.364  0.675 -0.105    0.096 -0.176  0.024    0.272 -0.513  0.070
 C          0.000  0.003 -0.004    0.033 -0.067  0.037   -0.012  0.026 -0.019
 H         -0.002 -0.012  0.057    0.022  0.080 -0.366   -0.007 -0.042  0.196
 H          0.006 -0.010  0.001   -0.414  0.733 -0.087    0.148 -0.269  0.031
 C          0.001 -0.001 -0.001   -0.000 -0.001  0.000    0.000  0.000 -0.000
 O         -0.000  0.001  0.000    0.000  0.000  0.000    0.000 -0.000  0.000
 O          0.000 -0.000  0.000    0.000  0.000  0.000   -0.000 -0.000 -0.000
 H         -0.000  0.001 -0.000   -0.000  0.000  0.000    0.000  0.000 -0.000
 O         -0.000  0.000  0.000   -0.000  0.000 -0.000   -0.000  0.000 -0.000
 O         -0.000 -0.000  0.000   -0.000  0.000 -0.000   -0.000 -0.000 -0.000
 O          0.000  0.001  0.000    0.000  0.000  0.000   -0.000 -0.000  0.000
 O          0.002 -0.000 -0.001   -0.000  0.000 -0.000   -0.000  0.000 -0.001
 TransDip   0.126 -0.131 -0.119    0.051 -0.089 -0.001   -0.020  0.159 -0.136

 Mode:                49                     50                     51
 Frequency:      3138.66                3144.85                3819.13
 Force Cnst:      6.4043                 6.4303                 9.1526
 Red. Mass:       1.1034                 1.1035                 1.0650
 IR Active:          YES                    YES                    YES
 IR Intens:       55.498                 40.143                 57.259
 Raman Active:       YES                    YES                    YES
               X      Y      Z        X      Y      Z        X      Y      Z
 C          0.022  0.003 -0.090   -0.075 -0.051 -0.020   -0.000  0.000 -0.000
 H         -0.256 -0.319  0.117    0.421  0.525 -0.225    0.000  0.001  0.000
 H          0.333  0.079  0.311    0.484  0.108  0.490    0.001  0.000  0.001
 H         -0.338  0.201  0.653    0.001 -0.016 -0.030    0.000  0.001 -0.000
 C          0.001 -0.000 -0.002   -0.002 -0.001 -0.000    0.000 -0.002  0.000
 C         -0.003  0.006 -0.008   -0.000  0.001 -0.002   -0.000  0.000  0.000
 H          0.002 -0.019  0.088    0.001 -0.006  0.024    0.000  0.000 -0.001
 H          0.030 -0.058  0.008    0.003 -0.006  0.001    0.000 -0.001  0.000
 C         -0.002  0.004 -0.002   -0.001  0.001 -0.000    0.000 -0.000 -0.000
 H         -0.001 -0.005  0.022   -0.000 -0.000  0.002    0.000 -0.000  0.000
 H          0.020 -0.037  0.004    0.008 -0.014  0.002   -0.000  0.000 -0.000
 C          0.000  0.000 -0.000    0.000  0.000 -0.000   -0.000  0.000  0.000
 O          0.000  0.000  0.000    0.000  0.000  0.000    0.000  0.000  0.000
 O         -0.000 -0.000  0.000    0.000  0.000 -0.000    0.024 -0.055 -0.015
 H          0.000  0.000 -0.000    0.001 -0.001  0.000   -0.397  0.884  0.240
 O         -0.000 -0.000  0.000    0.000  0.000  0.000    0.000  0.000 -0.000
 O         -0.000 -0.000 -0.000   -0.000 -0.000 -0.000    0.000  0.000  0.000
 O         -0.000 -0.000  0.000   -0.000  0.000  0.000    0.000 -0.000 -0.000
 O         -0.000 -0.000  0.000    0.000  0.000 -0.000    0.000  0.000 -0.000
 TransDip   0.064  0.003 -0.230   -0.166 -0.109 -0.041   -0.047  0.232  0.053

 STANDARD THERMODYNAMIC QUANTITIES AT   298.15 K  AND     1.00 ATM

   This Molecule has  0 Imaginary Frequencies
   Zero point vibrational energy:       86.582 kcal/mol

   Atom    1 Element C  Has Mass   12.00000
   Atom    2 Element H  Has Mass    1.00783
   Atom    3 Element H  Has Mass    1.00783
   Atom    4 Element H  Has Mass    1.00783
   Atom    5 Element C  Has Mass   12.00000
   Atom    6 Element C  Has Mass   12.00000
   Atom    7 Element H  Has Mass    1.00783
   Atom    8 Element H  Has Mass    1.00783
   Atom    9 Element C  Has Mass   12.00000
   Atom   10 Element H  Has Mass    1.00783
   Atom   11 Element H  Has Mass    1.00783
   Atom   12 Element C  Has Mass   12.00000
   Atom   13 Element O  Has Mass   15.99491
   Atom   14 Element O  Has Mass   15.99491
   Atom   15 Element H  Has Mass    1.00783
   Atom   16 Element O  Has Mass   15.99491
   Atom   17 Element O  Has Mass   15.99491
   Atom   18 Element O  Has Mass   15.99491
   Atom   19 Element O  Has Mass   15.99491
   Molecular Mass:   164.032100 amu
   Principal axes and moments of inertia in amu*Bohr^2:
                             1           2           3
    Eigenvalues --      662.32387  4124.10687  4222.03452
          X               0.95832    -0.21553    -0.18755
          Y               0.16118     0.94984    -0.26800
          Z               0.23590     0.22660     0.94499
   Rotational Symmetry Number is   1
   The Molecule is an Asymmetric Top
   Translational Enthalpy:        0.889 kcal/mol
   Rotational Enthalpy:           0.889 kcal/mol
   Vibrational Enthalpy:         92.291 kcal/mol
   gas constant (RT):             0.592 kcal/mol
   Translational Entropy:        41.193  cal/mol.K
   Rotational Entropy:           30.823  cal/mol.K
   Vibrational Entropy:          38.196  cal/mol.K

   Total Enthalpy:               94.661 kcal/mol
   Total Entropy:               110.211  cal/mol.K
Archival summary:
1\1\c6-81\FREQ\ProcedureUnspecified\BasisUnspecified\658(2-,1)\leeping\SatMar2108:21:152020SatMar2108:21:152020\0\\#,FREQ,ProcedureUnspecified,BasisUnspecified,\\-2,1\O\O,1,1.42361\C,2,1.42714,1,108.344\H,3,1.09286,2,109.04,1,-54.3801,0\H,3,1.09442,2,103.778,1,-170.106,0\C,1,1.50742,2,108.652,3,109.552,0\O,6,1.29625,1,113.646,2,-57.499,0\O,6,1.44748,1,104.985,2,66.1854,0\H,8,0.965537,6,103.787,1,-96.2656,0\C,3,1.51963,2,112.586,1,70.1678,0\H,10,1.09397,3,110.225,2,-62.441,0\H,10,1.09696,3,109.567,2,54.6066,0\C,6,1.53285,1,100.189,2,176.411,0\H,13,1.09279,6,109.536,1,64.1159,0\H,13,1.09282,6,108.148,1,-177.438,0\H,13,1.09348,6,112.093,1,-57.3018,0\C,10,1.53672,3,114.412,2,175.378,0\O,17,1.25794,10,118.158,3,-7.65719,0\O,17,1.25999,10,116.267,3,173.019,0\\\@

 Total job time:  44439.44s(wall), 621168.77s(cpu) 
 Sat Mar 21 08:21:15 2020

        *************************************************************
        *                                                           *
        *  Thank you very much for using Q-Chem.  Have a nice day.  *
        *                                                           *
        *************************************************************


