
Running Job 1 of 1 qc-freq2.in
qchem qc-freq2.in_22712.0 /scratch/leeping/1862691/qc-freq2.d/ 1
/home/leeping/opt/qchem/5.0.2-openmp/exe/qcprog.exe_s qc-freq2.in_22712.0 /scratch/leeping/1862691/qc-freq2.d/
Check license passed

                  Welcome to Q-Chem
     A Quantum Leap Into The Future Of Chemistry


 Q-Chem 5.0, Q-Chem, Inc., Pleasanton, CA (2017)

 Yihan Shao,  Zhengting Gan,  E. Epifanovsky,  A. T. B. Gilbert,  M. Wormit,  
 J. Kussmann,  A. W. Lange,  A. Behn,  Jia Deng,  Xintian Feng,  D. Ghosh,  
 M. Goldey,  P. R. Horn,  L. D. Jacobson,  I. Kaliman,  T. Kus,  A. Landau,  
 Jie Liu,  E. I. Proynov,  R. M. Richard,  R. P. Steele,  E. J. Sundstrom,  
 H. L. Woodcock III,  P. M. Zimmerman,  D. Zuev,  B. Albrecht,  E. Alguire,  
 S. A. Baeppler,  D. Barton,  Z. Benda,  Y. A. Bernard,  E. J. Berquist,  
 K. B. Bravaya,  H. Burton,  D. Casanova,  Chun-Min Chang,  Yunqing Chen,  
 A. Chien,  K. D. Closser,  M. P. Coons,  S. Dasgupta,  A. L. Dempwolff,  
 M. Diedenhofen,  Hainam Do,  R. G. Edgar,  Po-Tung Fang,  S. Fatehi,  
 Qingguo Feng,  J. Fosso-Tande,  Qinghui Ge,  A. Ghysels,  G. Gidofalvi,  
 J. Gomes,  J. Gonthier,  A. Gunina,  M. W. D. Hanson-Heine,  
 P. H. P. Harbach,  A. W. Hauser,  J. E. Herr,  E. G. Hohenstein,  
 Z. C. Holden,  Kerwin Hui,  T.-C. Jagau,  Hyunjun Ji,  B. Kaduk,  
 K. Khistyaev,  Jaehoon Kim,  P. Klunzinger,  K. Koh,  D. Kosenkov,  
 L. Koulias,  T. Kowalczyk,  C. M. Krauter,  A. Kunitsa,  Ka Un Lao,  
 A. Laurent,  K. V. Lawler,  Joonho Lee,  D. Lefrancois,  S. Lehtola,  
 D. S. Levine,  Yi-Pei Li,  You-Sheng Lin,  Fenglai Liu,  E. Livshits,  
 A. Luenser,  P. Manohar,  E. Mansoor,  S. F. Manzer,  Shan-Ping Mao,  
 Yuezhi Mao,  N. Mardirossian,  A. V. Marenich,  T. Markovich,  
 L. A. Martinez-Martinez,  S. A. Maurer,  N. J. Mayhall,  S. C. McKenzie,  
 J.-M. Mewes,  A. F. Morrison,  J. W. Mullinax,  K. Nanda,  
 T. S. Nguyen-Beck,  R. Olivares-Amaya,  J. A. Parkhill,  T. M. Perrine,  
 F. Plasser,  S. Prager,  A. Prociuk,  E. Ramos,  D. R. Rehn,  F. Rob,  
 M. Schneider,  N. Sergueev,  S. M. Sharada,  S. Sharma,  D. W. Small,  
 T. Stauch,  T. Stein,  Yu-Chuan Su,  A. J. W. Thom,  A. Tkatchenko,  
 T. Tsuchimochi,  L. Vogt,  O. Vydrov,  M. A. Watson,  J. Wenzel,  
 M. de Wergifosse,  T. A. Wesolowski,  A. White,  J. Witte,  A. Yamada,  
 Jun Yang,  K. Yao,  S. Yeganeh,  S. R. Yost,  Zhi-Qiang You,  A. Zech,  
 Igor Ying Zhang,  Xing Zhang,  Yan Zhao,  Ying Zhu,  B. R. Brooks,  
 G. K. L. Chan,  C. J. Cramer,  M. S. Gordon,  W. J. Hehre,  A. Klamt,  
 M. W. Schmidt,  C. D. Sherrill,  D. G. Truhlar,  A. Aspuru-Guzik,  R. Baer,  
 A. T. Bell,  N. A. Besley,  Jeng-Da Chai,  R. A. DiStasio Jr.,  A. Dreuw,  
 B. D. Dunietz,  T. R. Furlani,  Chao-Ping Hsu,  Yousung Jung,  Jing Kong,  
 D. S. Lambrecht,  WanZhen Liang,  C. Ochsenfeld,  V. A. Rassolov,  
 L. V. Slipchenko,  J. E. Subotnik,  T. Van Voorhis,  J. M. Herbert,  
 A. I. Krylov,  P. M. W. Gill,  M. Head-Gordon

 Contributors to earlier versions of Q-Chem not listed above: 
 R. D. Adamson,  B. Austin,  J. Baker,  G. J. O. Beran,  K. Brandhorst,  
 S. T. Brown,  E. F. C. Byrd,  A. K. Chakraborty,  C.-L. Cheng,  
 Siu Hung Chien,  D. M. Chipman,  D. L. Crittenden,  H. Dachsel,  
 R. J. Doerksen,  A. D. Dutoi,  L. Fusti-Molnar,  W. A. Goddard III,  
 A. Golubeva-Zadorozhnaya,  S. R. Gwaltney,  G. Hawkins,  A. Heyden,  
 S. Hirata,  G. Kedziora,  F. J. Keil,  C. Kelley,  Jihan Kim,  R. A. King,  
 R. Z. Khaliullin,  P. P. Korambath,  W. Kurlancheek,  A. M. Lee,  M. S. Lee,  
 S. V. Levchenko,  Ching Yeh Lin,  D. Liotard,  R. C. Lochan,  I. Lotan,  
 P. E. Maslen,  N. Nair,  D. P. O'Neill,  D. Neuhauser,  E. Neuscamman,  
 C. M. Oana,  R. Olson,  B. Peters,  R. Peverati,  P. A. Pieniazek,  
 Y. M. Rhee,  J. Ritchie,  M. A. Rohrdanz,  E. Rosta,  N. J. Russ,  
 H. F. Schaefer III,  N. E. Schultz,  N. Shenvi,  A. C. Simmonett,  A. Sodt,  
 D. Stuck,  K. S. Thanthiriwatte,  V. Vanovschi,  Tao Wang,  A. Warshel,  
 C. F. Williams,  Q. Wu,  X. Xu,  W. Zhang

 Please cite Q-Chem as follows:
 Y. Shao et al., Mol. Phys. 113, 184-215 (2015)
 DOI: 10.1080/00268976.2014.952696

 Q-Chem 5.0.2 for Intel X86 EM64T Linux

 Parts of Q-Chem use Armadillo 5.200.1 (Boston Tea Smuggler).
 http://arma.sourceforge.net/

 Q-Chem begins on Fri Mar 20 12:56:47 2020  

Host: 
0

     Scratch files written to /scratch/leeping/1862691/qc-freq2.d//
 Dec517 15110_ 26548  26544 5633   
Processing $rem in /home/leeping/opt/qchem/5.0.2-openmp/config/preferences.
 MEM_STATIC 2000
 MEM_TOTAL  8000
 SYMMETRY   OFF
 SYM_IGNORE TRUE 
Symmetry turned off for PCM/SM12/SMD calculation

Checking the input file for inconsistencies... 	...done.

--------------------------------------------------------------
User input:
--------------------------------------------------------------
$molecule
-3 1
C        0.6136923152    0.5039571774   -3.9959078415
O        0.1857625435    1.3693561480   -4.8072526258
O        1.2554519540   -0.5317763248   -4.3063709525
C        0.2978027754    0.7641807153   -2.5112824322
H       -0.7942107703    0.7840444763   -2.4271192279
H        0.6392975887    1.7762860362   -2.2756326515
C        0.9000877845   -0.2406195278   -1.5484230284
H        1.9899695622   -0.2548376154   -1.6223579763
H        0.5326398300   -1.2514731317   -1.7405757791
C        0.5832758011   -0.0324149680    0.0381463778
C       -0.9719949514   -0.0656541125    0.2021625311
H       -1.4578834632    0.7492814786   -0.3377102715
H       -1.1982127960    0.0264528665    1.2680415049
H       -1.3489402956   -1.0256864991   -0.1597359806
O        1.1673652399   -1.0273995684    0.7152613804
O        1.0282510155    1.2189228852    0.2539013107
H        1.0697637834   -0.7863690983    2.3622075282
O        1.0420136800   -0.6785871995    3.3556721495
H        0.1835758568   -0.2398361816    3.5602146392
O       -1.3193486578    0.6014714420    3.9881941370
O       -1.0741572383    1.8523702348    3.6406162740
$end

$rem
jobtype               freq
method                wb97x-v
basis                 def2-tzvpd
symmetry              off
sym_ignore            true
incdft                false
incfock               0
scf_guess             read
scf_convergence       8
thresh                14
unrestricted          true
!purecart             112
max_scf_cycles        1000
geom_opt_max_cycles   500
geom_opt_dmax         100
geom_opt_tol_gradient 10
solvent_method        pcm
ideriv                1
rpath_tol_displacement 1000
rpath_max_cycles      100
rpath_direction       1
$end

$pcm
theory              cosmo
method              iswig
Radii               bondi
vdwScale            1.20
hpoints             110
heavypoints         110
$end

$solvent
dielectric 78.400000
$end

--------------------------------------------------------------
 ----------------------------------------------------------------
             Standard Nuclear Orientation (Angstroms)
    I     Atom           X                Y                Z
 ----------------------------------------------------------------
    1      C       0.6136923152     0.5039571774    -3.9959078415
    2      O       0.1857625435     1.3693561480    -4.8072526258
    3      O       1.2554519540    -0.5317763248    -4.3063709525
    4      C       0.2978027754     0.7641807153    -2.5112824322
    5      H      -0.7942107703     0.7840444763    -2.4271192279
    6      H       0.6392975887     1.7762860362    -2.2756326515
    7      C       0.9000877845    -0.2406195278    -1.5484230284
    8      H       1.9899695622    -0.2548376154    -1.6223579763
    9      H       0.5326398300    -1.2514731317    -1.7405757791
   10      C       0.5832758011    -0.0324149680     0.0381463778
   11      C      -0.9719949514    -0.0656541125     0.2021625311
   12      H      -1.4578834632     0.7492814786    -0.3377102715
   13      H      -1.1982127960     0.0264528665     1.2680415049
   14      H      -1.3489402956    -1.0256864991    -0.1597359806
   15      O       1.1673652399    -1.0273995684     0.7152613804
   16      O       1.0282510155     1.2189228852     0.2539013107
   17      H       1.0697637834    -0.7863690983     2.3622075282
   18      O       1.0420136800    -0.6785871995     3.3556721495
   19      H       0.1835758568    -0.2398361816     3.5602146392
   20      O      -1.3193486578     0.6014714420     3.9881941370
   21      O      -1.0741572383     1.8523702348     3.6406162740
 ----------------------------------------------------------------
 Nuclear Repulsion Energy =   690.4154543237 hartrees
 There are       49 alpha and       49 beta electrons
 Requested basis set is def2-TZVPD
 There are 208 shells and 546 basis functions

 Total QAlloc Memory Limit   8000 MB
 Mega-Array Size      1956 MB
 MEM_STATIC part      2000 MB
 Discretize the solute cavity surface with Lebedev spheres
	Using 110 Lebedev grid points for each H atom
	Using 110 Lebedev grid points for other atoms
	Atomic van der Waals radii will be scaled by 1.20
 Remove points where switching function is < 1.0e-08
 Keep 1285 surface tesserae and discard 1025 interior tesserae
 Molecular Surface Area = 245.077 Angst**2
 A cutoff of  1.0D-14 yielded  18359 shell pairs
 There are    124479 function pairs (    157332 Cartesian)
 
 -------------------------------------------------------
 OpenMP Integral Computing Module                       
 Release: version 1.0, May 2013, Q-Chem Inc. Pittsburgh 
 -------------------------------------------------------
 Integral Job Info:
 Integral job number is                      11
 Integral operator is                         1
 short-range coefficients              16700000
 long-range coefficients              100000000
 Omega coefficients                         300
 if combine SR and LR in K                    1
 Integral screening is                        0
 Integral computing path is                   2
 max size of driver memory is            800000
 size of driver memory is                776718
 size of scratch memory is              4473992
 max col of scratch BK array              10000
 max len of scratch array in speh3          662
 max len of scratch index in speh4           32
 max int batch size is                      520
 min int batch size is                       52
 fixed nKL is                                52
 max L of basis functions is                  3
 order of int derivative is                   0
 number of shells is                        208
 number of basis is                         618
 number of cartesian basis is               618
 number of contracted shell pairs         18359
 number of primitive shell pairs          36173
 maxK2 (contraction) of shell pair           36
 max number of K2 of shell pair               1
 max number of CS2 of shell pair           3166
 max number of PS2 of shell pair           4068
 mem total for path MDJ                  845228
 -------------------------------------------------------
 Smallest overlap matrix eigenvalue = 3.13E-06
 Guess MOs from SCF MO coefficient file
 Reading MOs from coefficient file
 Reading MOs from coefficient file
 Long-range K will be added via erf
 Coulomb attenuation parameter = 0.3 bohr**(-1)
 An unrestricted hybrid HF-DFT SCF calculation will be
 performed using Pulay DIIS extrapolation
 Polarizable Continuum solvation model will be applied
 Exchange:     0.1670 Hartree-Fock + 1.0000 wB97X-V + LR-HF
 Correlation:  1.0000 wB97X-V
 Using SG-2 standard quadrature grid
 Nonlocal Correlation:  VV10 with C = 0.0100 and b = 6.00
 Grid used for NLC:  SG-1 standard quadrature
 SCF converges when DIIS error is below 1.0E-08
Using Q-Chem read-in guess as SCF_GUESS READ specified.

 using 16 threads for integral computing
 -------------------------------------------------------
 OpenMP Integral computing Module                
 Release: version 1.0, May 2013, Q-Chem Inc. Pittsburgh 
 -------------------------------------------------------
 using 16 threads for integral computing
 -------------------------------------------------------
 OpenMP Integral computing Module                
 Release: version 1.0, May 2013, Q-Chem Inc. Pittsburgh 
 -------------------------------------------------------
 -------------------------------------------------------
 OpenMP BLAS3 based DFT computing Module                
 Release: version 1.0, May 2013, Q-Chem Inc. Pittsburgh 
 -------------------------------------------------------
 -------------------------------------------------------
 OpenMP BLAS3 based DFT computing Module                
 Release: version 1.0, May 2013, Q-Chem Inc. Pittsburgh 
 -------------------------------------------------------
 -------------------------------------------------------
 OpenMP BLAS3 based DFT computing Module                
 Release: version 1.0, May 2013, Q-Chem Inc. Pittsburgh 
 -------------------------------------------------------
 ---------------------------------------
  Cycle       Energy         DIIS Error
 ---------------------------------------
    1    -722.2516799513      3.34E-04
    2    -722.8259419695      3.61E-04
    3    -722.8332150376      1.66E-04
    4    -722.8344348936      1.22E-04
    5    -722.8351913107      9.24E-05
    6    -722.8355810551      7.33E-05
    7    -722.8358716451      5.51E-05
    8    -722.8360334231      4.17E-05
    9    -722.8361325310      3.10E-05
   10    -722.8361699075      2.59E-05
   11    -722.8362018984      2.05E-05
   12    -722.8362130633      1.82E-05
   13    -722.8362277945      1.48E-05
   14    -722.8362360540      1.24E-05
   15    -722.8362427149      1.02E-05
   16    -722.8362466509      8.57E-06
   17    -722.8362561284      8.22E-08
   18    -722.8362561333      5.67E-08
   19    -722.8362561359      4.60E-08
   20    -722.8362561385      3.81E-08
   21    -722.8362561436      2.79E-08
   22    -722.8362561448      1.98E-08
   23    -722.8362561457      1.28E-08
   24    -722.8362561459      8.37E-09 Convergence criterion met
 ---------------------------------------

************** Final PCM Free Energy Summary **************
 G_electrostatic  =      -0.58457721 hartree =    -366.82773430 kcal/mol
 G_cavitation     =       0.00000000 hartree =       0.00000000 kcal/mol
 G_dispersion     =       0.00000000 hartree =       0.00000000 kcal/mol
 G_repulsion      =       0.00000000 hartree =       0.00000000 kcal/mol
 --------------------------------------------------
 Non-electrostatic Free Energy =       0.00000000 hartree =       0.00000000 kcal/mol
 Total                         =      -0.58457721 hartree =    -366.82773430 kcal/mol
 --------------------------------------------------
 SCF Energy (H0 + V/2)                       =    -722.83625615 
 Solute Internal Energy (H0)                 =    -722.25167894 
 Total Free Energy (H0 + V/2 + non-elec)     =    -722.83625615 hartree
                                             = -453586.59671374 kcal/mol
***********************************************************

 <S^2> = 1.0127
 SCF time:  CPU 10168.39 s  wall 730.02 s
 SCF   energy in the final basis set = -722.83625615
 Total energy in the final basis set = -722.83625615
 
 --------------------------------------------------------------
 
                    Orbital Energies (a.u.)
 --------------------------------------------------------------
 
 Alpha MOs
 -- Occupied --
-19.190 -19.189 -19.186 -19.156 -19.139 -19.136 -19.110 -10.340
-10.332 -10.261 -10.244 -10.244  -1.174  -1.142  -1.134  -1.075
 -1.047  -1.025  -0.888  -0.825  -0.802  -0.757  -0.629  -0.604
 -0.590  -0.568  -0.558  -0.534  -0.531  -0.510  -0.507  -0.491
 -0.483  -0.481  -0.471  -0.458  -0.445  -0.442  -0.423  -0.419
 -0.384  -0.378  -0.361  -0.346  -0.341  -0.330  -0.318  -0.295
 -0.258
 -- Virtual --
  0.054   0.062   0.074   0.080   0.085   0.092   0.097   0.103
  0.112   0.122   0.124   0.125   0.128   0.140   0.145   0.153
  0.156   0.163   0.168   0.170   0.175   0.177   0.188   0.194
  0.198   0.200   0.213   0.216   0.228   0.230   0.236   0.242
  0.243   0.249   0.258   0.272   0.272   0.280   0.283   0.289
  0.290   0.299   0.303   0.307   0.311   0.318   0.324   0.327
  0.328   0.331   0.344   0.349   0.355   0.364   0.368   0.373
  0.376   0.384   0.387   0.395   0.396   0.403   0.408   0.410
  0.416   0.419   0.426   0.431   0.432   0.438   0.441   0.443
  0.449   0.455   0.461   0.467   0.474   0.479   0.488   0.496
  0.499   0.505   0.508   0.510   0.514   0.518   0.528   0.528
  0.532   0.538   0.543   0.549   0.554   0.556   0.563   0.571
  0.574   0.579   0.581   0.590   0.593   0.602   0.603   0.607
  0.610   0.614   0.618   0.623   0.630   0.634   0.635   0.638
  0.647   0.653   0.658   0.668   0.674   0.679   0.686   0.691
  0.702   0.704   0.715   0.723   0.727   0.734   0.736   0.740
  0.750   0.757   0.766   0.768   0.774   0.779   0.787   0.802
  0.805   0.810   0.811   0.819   0.823   0.829   0.833   0.836
  0.847   0.850   0.853   0.864   0.865   0.869   0.877   0.879
  0.886   0.897   0.913   0.919   0.920   0.926   0.937   0.943
  0.957   0.964   0.966   0.967   0.973   0.977   0.998   1.010
  1.016   1.034   1.039   1.050   1.052   1.064   1.073   1.075
  1.091   1.092   1.097   1.114   1.123   1.142   1.156   1.169
  1.181   1.187   1.200   1.207   1.214   1.226   1.235   1.241
  1.251   1.266   1.269   1.276   1.305   1.318   1.330   1.353
  1.370   1.380   1.388   1.399   1.407   1.426   1.429   1.446
  1.457   1.467   1.491   1.501   1.515   1.531   1.579   1.591
  1.606   1.646   1.666   1.675   1.696   1.711   1.720   1.765
  1.786   1.802   1.808   1.838   1.851   1.858   1.881   1.913
  1.924   1.937   1.954   1.958   1.964   1.967   1.974   1.980
  1.999   2.016   2.024   2.030   2.037   2.041   2.053   2.079
  2.079   2.090   2.117   2.127   2.145   2.159   2.170   2.198
  2.218   2.230   2.240   2.253   2.263   2.282   2.296   2.303
  2.311   2.336   2.339   2.361   2.371   2.376   2.387   2.395
  2.426   2.428   2.438   2.449   2.480   2.484   2.499   2.508
  2.516   2.546   2.572   2.587   2.608   2.612   2.647   2.669
  2.701   2.709   2.714   2.729   2.756   2.775   2.787   2.804
  2.833   2.868   2.885   2.903   2.913   2.929   2.952   2.963
  2.973   2.986   2.993   3.018   3.028   3.043   3.061   3.076
  3.089   3.109   3.117   3.130   3.136   3.157   3.184   3.205
  3.220   3.237   3.254   3.267   3.280   3.294   3.301   3.309
  3.323   3.363   3.380   3.385   3.409   3.413   3.437   3.454
  3.463   3.478   3.508   3.526   3.532   3.537   3.551   3.566
  3.568   3.581   3.587   3.600   3.616   3.642   3.649   3.658
  3.683   3.697   3.706   3.710   3.717   3.733   3.750   3.775
  3.785   3.798   3.818   3.825   3.842   3.868   3.889   3.922
  3.955   3.990   4.005   4.041   4.113   4.141   4.147   4.194
  4.227   4.238   4.282   4.293   4.328   4.348   4.402   4.446
  4.464   4.598   4.640   4.663   4.677   4.706   4.769   4.776
  4.825   4.835   4.900   4.921   4.927   4.941   4.950   4.973
  5.016   5.106   5.130   5.158   5.183   5.249   5.254   5.270
  5.289   5.326   5.338   5.364   5.369   5.375   5.379   5.389
  5.396   5.406   5.411   5.456   5.504   5.519   5.571   5.592
  5.633   5.659   5.675   5.716   5.727   5.748   5.751   5.754
  5.783   5.863   6.009   6.121   6.197   6.224   6.247   6.292
  6.317   6.340   6.363   6.371   6.424   6.462   6.509   6.578
  6.600   6.624   6.627   6.638   6.666   6.681   6.689   6.701
  6.704   6.725   6.733   6.738   6.754   6.766   6.776   6.822
  6.842   6.922   6.961   6.972   7.051   7.068   7.103   7.180
  7.252   7.254   7.257   7.292   7.338   7.364   7.374   7.402
  7.413   7.445   7.508   7.541   8.655  22.753  22.895  22.941
 23.344  23.742  43.748  44.169  44.282  44.362  44.425  44.480
 44.617
 
 Beta MOs
 -- Occupied --
-19.202 -19.201 -19.173 -19.156 -19.139 -19.136 -19.109 -10.340
-10.333 -10.258 -10.244 -10.242  -1.203  -1.142  -1.113  -1.074
 -1.047  -1.008  -0.882  -0.847  -0.818  -0.748  -0.616  -0.603
 -0.588  -0.564  -0.546  -0.530  -0.522  -0.517  -0.508  -0.504
 -0.502  -0.485  -0.477  -0.469  -0.450  -0.446  -0.428  -0.421
 -0.383  -0.346  -0.345  -0.338  -0.328  -0.313  -0.312  -0.300
 -0.274
 -- Virtual --
 -0.026   0.062   0.074   0.080   0.086   0.092   0.096   0.103
  0.112   0.123   0.124   0.125   0.128   0.141   0.145   0.152
  0.154   0.163   0.168   0.170   0.175   0.177   0.187   0.194
  0.196   0.200   0.213   0.216   0.228   0.231   0.235   0.242
  0.243   0.250   0.258   0.270   0.272   0.280   0.282   0.289
  0.291   0.299   0.303   0.307   0.312   0.318   0.323   0.328
  0.329   0.331   0.346   0.349   0.355   0.366   0.369   0.373
  0.377   0.384   0.386   0.392   0.396   0.402   0.409   0.410
  0.416   0.420   0.428   0.431   0.432   0.438   0.442   0.445
  0.450   0.455   0.462   0.468   0.474   0.480   0.488   0.496
  0.500   0.505   0.508   0.510   0.515   0.518   0.528   0.529
  0.532   0.539   0.544   0.549   0.554   0.556   0.565   0.570
  0.575   0.579   0.581   0.589   0.594   0.601   0.603   0.608
  0.610   0.614   0.618   0.622   0.630   0.634   0.635   0.638
  0.647   0.652   0.657   0.669   0.673   0.678   0.686   0.690
  0.703   0.705   0.715   0.723   0.727   0.735   0.737   0.741
  0.750   0.757   0.766   0.770   0.776   0.780   0.788   0.802
  0.806   0.810   0.812   0.819   0.823   0.830   0.833   0.837
  0.847   0.851   0.854   0.864   0.867   0.871   0.878   0.878
  0.886   0.897   0.913   0.919   0.921   0.925   0.936   0.943
  0.957   0.963   0.966   0.968   0.972   0.977   0.997   1.010
  1.016   1.031   1.039   1.049   1.051   1.058   1.074   1.075
  1.092   1.093   1.098   1.115   1.125   1.141   1.158   1.165
  1.182   1.186   1.202   1.208   1.215   1.227   1.237   1.241
  1.252   1.265   1.269   1.276   1.310   1.322   1.331   1.355
  1.372   1.381   1.388   1.399   1.409   1.424   1.429   1.446
  1.458   1.469   1.493   1.504   1.517   1.534   1.580   1.592
  1.608   1.648   1.663   1.674   1.693   1.706   1.714   1.766
  1.786   1.795   1.809   1.836   1.843   1.855   1.872   1.918
  1.925   1.938   1.952   1.958   1.962   1.966   1.971   1.981
  2.006   2.017   2.023   2.030   2.036   2.041   2.048   2.075
  2.082   2.086   2.119   2.123   2.145   2.162   2.172   2.203
  2.221   2.236   2.242   2.257   2.266   2.285   2.294   2.300
  2.315   2.324   2.342   2.358   2.370   2.375   2.386   2.395
  2.425   2.434   2.439   2.450   2.482   2.485   2.500   2.509
  2.518   2.548   2.574   2.589   2.603   2.613   2.648   2.670
  2.702   2.711   2.717   2.730   2.757   2.777   2.789   2.805
  2.832   2.869   2.887   2.907   2.916   2.935   2.953   2.966
  2.975   2.986   2.998   3.018   3.029   3.041   3.053   3.072
  3.080   3.100   3.109   3.126   3.136   3.157   3.185   3.197
  3.214   3.228   3.251   3.255   3.282   3.293   3.304   3.309
  3.325   3.365   3.381   3.389   3.403   3.414   3.440   3.454
  3.463   3.481   3.511   3.529   3.532   3.539   3.551   3.564
  3.571   3.573   3.593   3.601   3.619   3.644   3.652   3.659
  3.686   3.702   3.709   3.712   3.719   3.739   3.755   3.779
  3.788   3.803   3.821   3.829   3.848   3.874   3.894   3.926
  3.966   3.993   4.008   4.043   4.116   4.141   4.147   4.197
  4.231   4.241   4.284   4.297   4.329   4.352   4.406   4.430
  4.467   4.601   4.644   4.665   4.682   4.709   4.770   4.779
  4.826   4.836   4.898   4.903   4.907   4.925   4.935   4.978
  5.023   5.112   5.137   5.143   5.188   5.218   5.254   5.265
  5.271   5.327   5.345   5.358   5.366   5.377   5.378   5.388
  5.397   5.413   5.414   5.463   5.504   5.535   5.572   5.612
  5.633   5.666   5.677   5.716   5.726   5.729   5.730   5.762
  5.783   5.872   6.009   6.149   6.200   6.229   6.247   6.303
  6.317   6.322   6.341   6.357   6.424   6.463   6.515   6.531
  6.552   6.624   6.625   6.632   6.638   6.647   6.665   6.701
  6.706   6.721   6.739   6.750   6.757   6.769   6.786   6.822
  6.837   6.933   6.962   6.972   7.053   7.093   7.116   7.189
  7.219   7.253   7.257   7.301   7.343   7.365   7.386   7.404
  7.413   7.449   7.491   7.544   8.641  22.755  22.896  22.944
 23.344  23.742  43.733  44.168  44.282  44.349  44.425  44.494
 44.621
 --------------------------------------------------------------
 
          Ground-State Mulliken Net Atomic Charges

     Atom                 Charge (a.u.)    Spin (a.u.)
  --------------------------------------------------------
      1 C                     0.003757       0.005635
      2 O                    -0.711739       0.003195
      3 O                    -0.692084       0.000027
      4 C                    -0.207503       0.012707
      5 H                     0.187600       0.002482
      6 H                     0.221218       0.003391
      7 C                    -0.451616       0.174061
      8 H                     0.280251      -0.001637
      9 H                     0.238507       0.009113
     10 C                     0.984013      -0.073019
     11 C                    -0.868572       0.134499
     12 H                     0.268658      -0.003700
     13 H                     0.089303      -0.008965
     14 H                     0.220225      -0.000954
     15 O                    -0.942580       0.087496
     16 O                    -0.574169       0.651297
     17 H                     0.325672       0.003037
     18 O                    -0.714488       0.000582
     19 H                     0.292690       0.000531
     20 O                    -0.494772      -0.477732
     21 O                    -0.454372      -0.522045
  --------------------------------------------------------
  Sum of atomic charges =    -3.000000
  Sum of spin   charges =    -0.000000

 -----------------------------------------------------------------
                    Cartesian Multipole Moments
 -----------------------------------------------------------------
    Charge (ESU x 10^10)
               -14.4096
    Dipole Moment (Debye)
         X      -7.1799      Y      -5.2547      Z      -1.6357
       Tot       9.0464
    Quadrupole Moments (Debye-Ang)
        XX    -101.9750     XY      12.5414     YY    -106.8505
        XZ      23.0575     YZ      -1.4529     ZZ    -278.1574
    Octopole Moments (Debye-Ang^2)
       XXX     -76.8783    XXY     -22.0679    XYY     -25.7726
       YYY     -92.6874    XXZ      -2.8986    XYZ      20.8038
       YYZ      17.1597    XZZ     -61.0236    YZZ    -137.6822
       ZZZ     331.5939
    Hexadecapole Moments (Debye-Ang^3)
      XXXX    -591.2906   XXXY      97.8179   XXYY    -204.3631
      XYYY     102.1016   YYYY    -576.5364   XXXZ     337.2642
      XXYZ     -30.8977   XYYZ     134.6158   YYYZ      23.3250
      XXZZ   -1069.4168   XYZZ     189.8115   YYZZ   -1134.3390
      XZZZ     834.5561   YZZZ     184.9740   ZZZZ   -8237.9264
 -----------------------------------------------------------------
 Calculating analytic gradient of the SCF energy
 Gradient of SCF Energy
            1           2           3           4           5           6
    1   0.0040453   0.0183847  -0.0359140  -0.0640260   0.0656742  -0.0306365
    2  -0.0296952  -0.0369544   0.0572702   0.0993873   0.0079296  -0.0690276
    3  -0.0446589   0.0522565   0.0249888   0.0460712   0.0005151  -0.0125749
            7           8           9          10          11          12
    1   0.1097663  -0.0922375   0.0364539   0.0699707  -0.1756776   0.0445885
    2  -0.1373661  -0.0098439   0.0830437   0.0583466   0.0200187  -0.0938675
    3   0.0074841  -0.0171789   0.0063855  -0.0505309   0.0166978   0.0726771
           13          14          15          16          17          18
    1   0.0307366   0.0308331   0.0027109  -0.0146132  -0.0272093  -0.0382454
    2  -0.0180127   0.1003438   0.0008329  -0.0341328   0.0117219   0.0321329
    3  -0.1495167   0.0512070  -0.0237238  -0.0038970   0.0965279  -0.0367272
           19          20          21
    1   0.0682432  -0.0089784   0.0061307
    2  -0.0428940  -0.0458454   0.0466121
    3  -0.0358238   0.0153401  -0.0155190
 Max gradient component =       1.757E-01
 RMS gradient           =       5.793E-02
 Computing fast CPCM-ISWIG gradient
 Updating gradient with PCM contributions...
 -- total gradient after adding PCM contribution --
---------------------------------------------------
  Atom         X              Y              Z     
---------------------------------------------------
   1       0.000002      -0.000007      -0.000003
   2      -0.000010       0.000013      -0.000001
   3       0.000004      -0.000003       0.000009
   4       0.000002       0.000001      -0.000002
   5       0.000002       0.000005      -0.000003
   6       0.000003      -0.000003       0.000001
   7       0.000014       0.000006      -0.000003
   8      -0.000003       0.000003      -0.000002
   9      -0.000002       0.000002       0.000004
  10      -0.000040       0.000004      -0.000002
  11       0.000032      -0.000003       0.000002
  12      -0.000005      -0.000003      -0.000003
  13       0.000001       0.000007       0.000001
  14      -0.000004       0.000002       0.000004
  15       0.000005      -0.000006       0.000003
  16       0.000015      -0.000006      -0.000002
  17      -0.000002       0.000003       0.000043
  18       0.000012      -0.000010      -0.000043
  19      -0.000015       0.000009       0.000001
  20      -0.000007      -0.000003      -0.000005
  21      -0.000005      -0.000009       0.000004
---------------------------------------------------
 Number of fixed atoms: 0
 Gradient time:  CPU 1301.18 s  wall 96.06 s
 ######################################################
 ######################################################
 # Starting finite difference calculation for IDERIV  #
 Finite diff step size:  1.88973e-03 a.u.
 ----------------------------------------------------------------
             Standard Nuclear Orientation (Angstroms)
    I     Atom           X                Y                Z
 ----------------------------------------------------------------
    1      C       0.6146923152     0.5039571774    -3.9959078415
    2      O       0.1857625435     1.3693561480    -4.8072526258
    3      O       1.2554519540    -0.5317763248    -4.3063709525
    4      C       0.2978027754     0.7641807153    -2.5112824322
    5      H      -0.7942107703     0.7840444763    -2.4271192279
    6      H       0.6392975887     1.7762860362    -2.2756326515
    7      C       0.9000877845    -0.2406195278    -1.5484230284
    8      H       1.9899695622    -0.2548376154    -1.6223579763
    9      H       0.5326398300    -1.2514731317    -1.7405757791
   10      C       0.5832758011    -0.0324149680     0.0381463778
   11      C      -0.9719949514    -0.0656541125     0.2021625311
   12      H      -1.4578834632     0.7492814786    -0.3377102715
   13      H      -1.1982127960     0.0264528665     1.2680415049
   14      H      -1.3489402956    -1.0256864991    -0.1597359806
   15      O       1.1673652399    -1.0273995684     0.7152613804
   16      O       1.0282510155     1.2189228852     0.2539013107
   17      H       1.0697637834    -0.7863690983     2.3622075282
   18      O       1.0420136800    -0.6785871995     3.3556721495
   19      H       0.1835758568    -0.2398361816     3.5602146392
   20      O      -1.3193486578     0.6014714420     3.9881941370
   21      O      -1.0741572383     1.8523702348     3.6406162740
 ----------------------------------------------------------------
 Nuclear Repulsion Energy =   690.4161956701 hartrees
 There are       49 alpha and       49 beta electrons
 Discretize the solute cavity surface with Lebedev spheres
	Using 110 Lebedev grid points for each H atom
	Using 110 Lebedev grid points for other atoms
	Atomic van der Waals radii will be scaled by 1.20
 Remove points where switching function is < 1.0e-08
 Keep 1285 surface tesserae and discard 1025 interior tesserae
 Molecular Surface Area = 245.077 Angst**2
 Requested basis set is def2-TZVPD
 There are 208 shells and 546 basis functions
 A cutoff of  1.0D-14 yielded  18359 shell pairs
 There are    124479 function pairs (    157332 Cartesian)
 Smallest overlap matrix eigenvalue = 3.13E-06
 Guess MOs from SCF MO coefficient file
 Reading MOs from coefficient file
 Reading MOs from coefficient file
 Long-range K will be added via erf
 Coulomb attenuation parameter = 0.3 bohr**(-1)
 An unrestricted hybrid HF-DFT SCF calculation will be
 performed using Pulay DIIS extrapolation
 Polarizable Continuum solvation model will be applied
 Exchange:     0.1670 Hartree-Fock + 1.0000 wB97X-V + LR-HF
 Correlation:  1.0000 wB97X-V
 Using SG-2 standard quadrature grid
 Nonlocal Correlation:  VV10 with C = 0.0100 and b = 6.00
 Grid used for NLC:  SG-1 standard quadrature
 SCF converges when DIIS error is below 1.0E-08
Using Q-Chem read-in guess as SCF_GUESS READ specified.

 using 16 threads for integral computing
 -------------------------------------------------------
 OpenMP Integral computing Module                
 Release: version 1.0, May 2013, Q-Chem Inc. Pittsburgh 
 -------------------------------------------------------
 using 16 threads for integral computing
 -------------------------------------------------------
 OpenMP Integral computing Module                
 Release: version 1.0, May 2013, Q-Chem Inc. Pittsburgh 
 -------------------------------------------------------
 -------------------------------------------------------
 OpenMP BLAS3 based DFT computing Module                
 Release: version 1.0, May 2013, Q-Chem Inc. Pittsburgh 
 -------------------------------------------------------
 -------------------------------------------------------
 OpenMP BLAS3 based DFT computing Module                
 Release: version 1.0, May 2013, Q-Chem Inc. Pittsburgh 
 -------------------------------------------------------
 -------------------------------------------------------
 OpenMP BLAS3 based DFT computing Module                
 Release: version 1.0, May 2013, Q-Chem Inc. Pittsburgh 
 -------------------------------------------------------
 ---------------------------------------
  Cycle       Energy         DIIS Error
 ---------------------------------------
    1    -722.2518287051      3.35E-04
    2    -722.8259366147      3.62E-04
    3    -722.8332150012      1.66E-04
    4    -722.8344363089      1.22E-04
    5    -722.8351964100      9.22E-05
    6    -722.8355972438      7.24E-05
    7    -722.8359011138      5.28E-05
    8    -722.8360749892      3.75E-05
    9    -722.8361804225      2.40E-05
   10    -722.8362169926      1.71E-05
   11    -722.8362438573      9.16E-06
   12    -722.8362498634      6.26E-06
   13    -722.8362539715      3.07E-06
   14    -722.8362548978      1.82E-06
   15    -722.8362552580      9.80E-07
   16    -722.8362553609      5.85E-07
   17    -722.8362554113      6.85E-08
   18    -722.8362554178      5.35E-08
   19    -722.8362554236      4.20E-08
   20    -722.8362554280      3.31E-08
   21    -722.8362554305      2.37E-08
   22    -722.8362554314      1.47E-08
   23    -722.8362554317      1.16E-08
   24    -722.8362554319      8.80E-09 Convergence criterion met
 ---------------------------------------

************** Final PCM Free Energy Summary **************
 G_electrostatic  =      -0.58457059 hartree =    -366.82358464 kcal/mol
 G_cavitation     =       0.00000000 hartree =       0.00000000 kcal/mol
 G_dispersion     =       0.00000000 hartree =       0.00000000 kcal/mol
 G_repulsion      =       0.00000000 hartree =       0.00000000 kcal/mol
 --------------------------------------------------
 Non-electrostatic Free Energy =       0.00000000 hartree =       0.00000000 kcal/mol
 Total                         =      -0.58457059 hartree =    -366.82358464 kcal/mol
 --------------------------------------------------
 SCF Energy (H0 + V/2)                       =    -722.83625543 
 Solute Internal Energy (H0)                 =    -722.25168484 
 Total Free Energy (H0 + V/2 + non-elec)     =    -722.83625543 hartree
                                             = -453586.59626571 kcal/mol
***********************************************************

 <S^2> = 1.0127
 SCF time:  CPU 10162.27 s  wall 727.25 s
 SCF   energy in the final basis set = -722.83625543
 Total energy in the final basis set = -722.83625543
 
 --------------------------------------------------------------
 
                    Orbital Energies (a.u.)
 --------------------------------------------------------------
 
 Alpha MOs
 -- Occupied --
-19.190 -19.189 -19.186 -19.156 -19.139 -19.136 -19.110 -10.340
-10.332 -10.261 -10.244 -10.244  -1.174  -1.142  -1.134  -1.075
 -1.047  -1.025  -0.888  -0.825  -0.802  -0.757  -0.629  -0.604
 -0.590  -0.568  -0.558  -0.534  -0.531  -0.510  -0.507  -0.491
 -0.484  -0.481  -0.471  -0.458  -0.445  -0.442  -0.423  -0.419
 -0.384  -0.378  -0.361  -0.346  -0.341  -0.330  -0.318  -0.295
 -0.258
 -- Virtual --
  0.054   0.062   0.074   0.080   0.085   0.092   0.097   0.103
  0.112   0.122   0.124   0.125   0.128   0.140   0.145   0.153
  0.156   0.163   0.168   0.170   0.175   0.177   0.188   0.194
  0.198   0.200   0.213   0.216   0.228   0.230   0.236   0.242
  0.243   0.249   0.258   0.272   0.272   0.280   0.283   0.289
  0.290   0.299   0.303   0.307   0.311   0.318   0.324   0.327
  0.328   0.331   0.344   0.349   0.355   0.364   0.368   0.373
  0.376   0.384   0.387   0.395   0.396   0.403   0.408   0.410
  0.416   0.419   0.426   0.431   0.432   0.438   0.441   0.443
  0.449   0.455   0.461   0.467   0.474   0.479   0.488   0.496
  0.499   0.505   0.508   0.510   0.514   0.518   0.528   0.528
  0.532   0.538   0.543   0.549   0.554   0.556   0.563   0.571
  0.574   0.579   0.581   0.590   0.593   0.602   0.603   0.607
  0.610   0.614   0.618   0.623   0.630   0.634   0.635   0.638
  0.647   0.653   0.658   0.668   0.674   0.679   0.686   0.691
  0.702   0.704   0.715   0.723   0.727   0.734   0.737   0.740
  0.750   0.757   0.766   0.768   0.774   0.779   0.787   0.802
  0.805   0.810   0.811   0.819   0.823   0.829   0.833   0.836
  0.847   0.850   0.853   0.864   0.865   0.869   0.877   0.879
  0.886   0.897   0.913   0.919   0.920   0.926   0.937   0.943
  0.957   0.964   0.966   0.967   0.973   0.977   0.998   1.010
  1.016   1.034   1.039   1.050   1.052   1.064   1.073   1.075
  1.092   1.092   1.097   1.114   1.123   1.142   1.156   1.169
  1.181   1.187   1.200   1.207   1.214   1.226   1.235   1.241
  1.251   1.266   1.269   1.276   1.305   1.318   1.330   1.353
  1.370   1.380   1.388   1.399   1.407   1.426   1.429   1.446
  1.457   1.467   1.491   1.501   1.515   1.531   1.579   1.591
  1.606   1.646   1.666   1.675   1.696   1.711   1.720   1.765
  1.786   1.802   1.808   1.838   1.851   1.858   1.881   1.913
  1.924   1.937   1.954   1.958   1.964   1.967   1.974   1.980
  1.999   2.016   2.024   2.030   2.037   2.041   2.053   2.079
  2.079   2.090   2.117   2.127   2.145   2.159   2.170   2.198
  2.218   2.230   2.240   2.253   2.263   2.282   2.296   2.303
  2.311   2.336   2.339   2.361   2.371   2.376   2.387   2.395
  2.426   2.428   2.438   2.448   2.480   2.484   2.499   2.508
  2.516   2.546   2.572   2.587   2.608   2.612   2.647   2.669
  2.701   2.709   2.714   2.729   2.756   2.775   2.787   2.804
  2.833   2.868   2.885   2.903   2.913   2.929   2.952   2.963
  2.973   2.986   2.993   3.018   3.028   3.043   3.061   3.076
  3.089   3.109   3.117   3.130   3.136   3.158   3.184   3.205
  3.220   3.237   3.254   3.267   3.280   3.294   3.301   3.309
  3.323   3.363   3.380   3.385   3.409   3.413   3.437   3.454
  3.463   3.478   3.508   3.526   3.532   3.537   3.551   3.566
  3.568   3.581   3.587   3.600   3.616   3.642   3.649   3.658
  3.683   3.697   3.706   3.710   3.718   3.733   3.750   3.775
  3.784   3.798   3.818   3.825   3.842   3.868   3.889   3.922
  3.955   3.990   4.005   4.041   4.113   4.141   4.147   4.194
  4.227   4.238   4.282   4.293   4.328   4.348   4.402   4.446
  4.464   4.598   4.640   4.663   4.677   4.706   4.769   4.776
  4.824   4.835   4.900   4.921   4.927   4.941   4.950   4.973
  5.016   5.106   5.130   5.158   5.183   5.249   5.254   5.270
  5.289   5.326   5.338   5.364   5.369   5.375   5.379   5.389
  5.396   5.406   5.411   5.457   5.504   5.519   5.571   5.592
  5.633   5.659   5.675   5.716   5.728   5.748   5.751   5.754
  5.783   5.863   6.009   6.121   6.197   6.224   6.247   6.292
  6.317   6.340   6.363   6.371   6.424   6.462   6.509   6.578
  6.600   6.624   6.627   6.638   6.666   6.681   6.689   6.701
  6.704   6.725   6.733   6.738   6.754   6.766   6.776   6.822
  6.842   6.922   6.961   6.972   7.051   7.068   7.103   7.180
  7.252   7.254   7.257   7.292   7.338   7.364   7.374   7.402
  7.413   7.445   7.508   7.541   8.655  22.753  22.895  22.941
 23.344  23.742  43.748  44.169  44.282  44.362  44.425  44.480
 44.617
 
 Beta MOs
 -- Occupied --
-19.202 -19.201 -19.173 -19.156 -19.139 -19.136 -19.109 -10.340
-10.333 -10.258 -10.244 -10.242  -1.203  -1.142  -1.113  -1.074
 -1.047  -1.008  -0.882  -0.847  -0.818  -0.748  -0.616  -0.603
 -0.588  -0.564  -0.546  -0.530  -0.522  -0.517  -0.508  -0.504
 -0.502  -0.485  -0.477  -0.469  -0.450  -0.446  -0.428  -0.421
 -0.383  -0.346  -0.345  -0.338  -0.328  -0.313  -0.312  -0.300
 -0.274
 -- Virtual --
 -0.026   0.062   0.074   0.080   0.086   0.092   0.096   0.103
  0.112   0.123   0.124   0.125   0.128   0.141   0.145   0.152
  0.154   0.163   0.168   0.170   0.175   0.177   0.187   0.194
  0.196   0.200   0.213   0.216   0.228   0.231   0.235   0.242
  0.243   0.250   0.258   0.270   0.272   0.280   0.282   0.289
  0.291   0.299   0.303   0.307   0.312   0.318   0.323   0.328
  0.329   0.331   0.346   0.349   0.355   0.366   0.369   0.373
  0.377   0.384   0.386   0.392   0.396   0.402   0.409   0.410
  0.416   0.420   0.428   0.431   0.432   0.438   0.442   0.445
  0.450   0.455   0.462   0.468   0.474   0.480   0.488   0.496
  0.500   0.505   0.508   0.510   0.515   0.518   0.528   0.529
  0.532   0.539   0.544   0.549   0.554   0.556   0.565   0.570
  0.575   0.579   0.581   0.589   0.594   0.601   0.603   0.608
  0.610   0.614   0.618   0.622   0.630   0.634   0.635   0.638
  0.647   0.652   0.657   0.669   0.673   0.678   0.686   0.690
  0.703   0.705   0.715   0.723   0.727   0.735   0.737   0.741
  0.750   0.757   0.766   0.770   0.776   0.780   0.788   0.802
  0.806   0.810   0.812   0.819   0.823   0.830   0.833   0.837
  0.847   0.851   0.854   0.864   0.867   0.871   0.878   0.878
  0.886   0.898   0.913   0.919   0.921   0.925   0.936   0.943
  0.957   0.963   0.966   0.968   0.972   0.977   0.997   1.010
  1.016   1.031   1.039   1.049   1.051   1.058   1.074   1.075
  1.092   1.093   1.098   1.115   1.125   1.141   1.158   1.165
  1.182   1.186   1.202   1.208   1.215   1.227   1.237   1.241
  1.252   1.265   1.269   1.276   1.310   1.322   1.330   1.355
  1.372   1.381   1.388   1.399   1.409   1.424   1.429   1.446
  1.458   1.469   1.493   1.504   1.517   1.534   1.579   1.592
  1.608   1.648   1.663   1.674   1.693   1.706   1.714   1.766
  1.786   1.795   1.809   1.836   1.843   1.855   1.872   1.918
  1.925   1.938   1.952   1.958   1.962   1.966   1.971   1.981
  2.006   2.017   2.023   2.030   2.036   2.041   2.048   2.075
  2.082   2.086   2.119   2.123   2.145   2.162   2.172   2.203
  2.221   2.236   2.242   2.256   2.265   2.285   2.294   2.300
  2.315   2.324   2.342   2.358   2.370   2.375   2.386   2.395
  2.425   2.434   2.439   2.450   2.482   2.485   2.500   2.509
  2.518   2.548   2.574   2.589   2.603   2.613   2.648   2.670
  2.702   2.710   2.717   2.730   2.757   2.777   2.789   2.805
  2.832   2.869   2.887   2.907   2.916   2.935   2.953   2.966
  2.975   2.986   2.998   3.018   3.029   3.041   3.053   3.072
  3.080   3.100   3.109   3.126   3.136   3.157   3.185   3.197
  3.214   3.228   3.251   3.256   3.282   3.293   3.304   3.309
  3.324   3.365   3.381   3.389   3.403   3.414   3.440   3.454
  3.463   3.481   3.511   3.528   3.532   3.539   3.551   3.564
  3.571   3.573   3.593   3.601   3.619   3.644   3.652   3.659
  3.686   3.702   3.709   3.712   3.719   3.740   3.755   3.779
  3.788   3.803   3.821   3.829   3.848   3.874   3.894   3.925
  3.966   3.992   4.008   4.043   4.116   4.141   4.147   4.197
  4.231   4.241   4.284   4.297   4.329   4.352   4.406   4.430
  4.467   4.601   4.644   4.665   4.682   4.709   4.770   4.779
  4.825   4.836   4.898   4.903   4.907   4.925   4.935   4.978
  5.023   5.112   5.137   5.143   5.188   5.218   5.254   5.265
  5.271   5.327   5.345   5.358   5.366   5.377   5.378   5.388
  5.397   5.413   5.414   5.463   5.505   5.535   5.572   5.612
  5.633   5.666   5.677   5.716   5.726   5.729   5.730   5.762
  5.783   5.872   6.009   6.149   6.200   6.229   6.247   6.303
  6.317   6.322   6.341   6.357   6.424   6.463   6.515   6.531
  6.552   6.624   6.625   6.632   6.638   6.647   6.665   6.701
  6.706   6.721   6.739   6.750   6.757   6.769   6.786   6.822
  6.837   6.933   6.962   6.972   7.053   7.093   7.116   7.189
  7.219   7.253   7.257   7.301   7.343   7.365   7.386   7.404
  7.413   7.449   7.491   7.544   8.641  22.755  22.896  22.944
 23.344  23.742  43.733  44.168  44.282  44.349  44.425  44.494
 44.621
 --------------------------------------------------------------
 
          Ground-State Mulliken Net Atomic Charges

     Atom                 Charge (a.u.)    Spin (a.u.)
  --------------------------------------------------------
      1 C                     0.004251       0.005638
      2 O                    -0.712164       0.003198
      3 O                    -0.691471       0.000022
      4 C                    -0.208019       0.012686
      5 H                     0.187885       0.002479
      6 H                     0.221029       0.003393
      7 C                    -0.451920       0.174104
      8 H                     0.280223      -0.001642
      9 H                     0.238591       0.009117
     10 C                     0.984031      -0.073040
     11 C                    -0.868602       0.134507
     12 H                     0.268670      -0.003701
     13 H                     0.089304      -0.008965
     14 H                     0.220221      -0.000954
     15 O                    -0.942583       0.087505
     16 O                    -0.574175       0.651280
     17 H                     0.325672       0.003038
     18 O                    -0.714488       0.000582
     19 H                     0.292689       0.000530
     20 O                    -0.494771      -0.477734
     21 O                    -0.454373      -0.522042
  --------------------------------------------------------
  Sum of atomic charges =    -3.000000
  Sum of spin   charges =     0.000000

 -----------------------------------------------------------------
                    Cartesian Multipole Moments
 -----------------------------------------------------------------
    Charge (ESU x 10^10)
               -14.4096
    Dipole Moment (Debye)
         X      -7.1754      Y      -5.2604      Z      -1.6356
       Tot       9.0462
    Quadrupole Moments (Debye-Ang)
        XX    -101.9684     XY      12.5386     YY    -106.8552
        XZ      23.0370     YZ      -1.4266     ZZ    -278.1621
    Octopole Moments (Debye-Ang^2)
       XXX     -76.8775    XXY     -22.0724    XYY     -25.7789
       YYY     -92.7121    XXZ      -2.9285    XYZ      20.8152
       YYZ      17.1806    XZZ     -60.9442    YZZ    -137.8082
       ZZZ     331.6465
    Hexadecapole Moments (Debye-Ang^3)
      XXXX    -591.2995   XXXY      97.8052   XXYY    -204.3711
      XYYY     102.0768   YYYY    -576.5736   XXXZ     337.2608
      XXYZ     -30.8778   XYYZ     134.6390   YYYZ      23.4372
      XXZZ   -1069.2978   XYZZ     189.7445   YYZZ   -1134.4435
      XZZZ     834.2223   YZZZ     185.6235   ZZZZ   -8238.2972
 -----------------------------------------------------------------
 Calculating analytic gradient of the SCF energy
 Gradient of SCF Energy
            1           2           3           4           5           6
    1   0.0044692   0.0182839  -0.0361738  -0.0640578   0.0656667  -0.0306302
    2  -0.0304365  -0.0367132   0.0577202   0.0994753   0.0079382  -0.0690661
    3  -0.0446580   0.0520526   0.0251301   0.0461601   0.0005491  -0.0125994
            7           8           9          10          11          12
    1   0.1097395  -0.0922424   0.0364433   0.0699933  -0.1756809   0.0445877
    2  -0.1373933  -0.0098350   0.0830608   0.0583342   0.0200186  -0.0938651
    3   0.0074736  -0.0172081   0.0063747  -0.0505158   0.0167044   0.0726763
           13          14          15          16          17          18
    1   0.0307348   0.0308321   0.0027088  -0.0146153  -0.0272090  -0.0382465
    2  -0.0180105   0.1003434   0.0008324  -0.0341302   0.0117207   0.0321333
    3  -0.1495224   0.0512054  -0.0237250  -0.0038963   0.0965287  -0.0367283
           19          20          21
    1   0.0682440  -0.0089779   0.0061305
    2  -0.0428944  -0.0458452   0.0466124
    3  -0.0358238   0.0153422  -0.0155202
 Max gradient component =       1.757E-01
 RMS gradient           =       5.794E-02
 Computing fast CPCM-ISWIG gradient
 Updating gradient with PCM contributions...
 -- total gradient after adding PCM contribution --
---------------------------------------------------
  Atom         X              Y              Z     
---------------------------------------------------
   1       0.000752      -0.000464      -0.000017
   2      -0.000237       0.000161      -0.000130
   3      -0.000338       0.000308       0.000116
   4      -0.000170      -0.000012       0.000023
   5      -0.000014       0.000022       0.000061
   6       0.000009      -0.000005      -0.000026
   7       0.000021      -0.000007      -0.000025
   8      -0.000004       0.000003      -0.000002
   9      -0.000002       0.000004       0.000005
  10      -0.000044       0.000004      -0.000003
  11       0.000031      -0.000002       0.000003
  12      -0.000004      -0.000003      -0.000003
  13       0.000001       0.000007       0.000001
  14      -0.000004       0.000002       0.000004
  15       0.000005      -0.000003      -0.000000
  16       0.000016      -0.000003      -0.000005
  17      -0.000002       0.000004       0.000043
  18       0.000012      -0.000010      -0.000043
  19      -0.000015       0.000008      -0.000001
  20      -0.000006      -0.000003      -0.000004
  21      -0.000005      -0.000009       0.000003
---------------------------------------------------
 Number of fixed atoms: 0
 Gradient time:  CPU 1303.59 s  wall 96.03 s
 ----------------------------------------------------------------
             Standard Nuclear Orientation (Angstroms)
    I     Atom           X                Y                Z
 ----------------------------------------------------------------
    1      C       0.6126923152     0.5039571774    -3.9959078415
    2      O       0.1857625435     1.3693561480    -4.8072526258
    3      O       1.2554519540    -0.5317763248    -4.3063709525
    4      C       0.2978027754     0.7641807153    -2.5112824322
    5      H      -0.7942107703     0.7840444763    -2.4271192279
    6      H       0.6392975887     1.7762860362    -2.2756326515
    7      C       0.9000877845    -0.2406195278    -1.5484230284
    8      H       1.9899695622    -0.2548376154    -1.6223579763
    9      H       0.5326398300    -1.2514731317    -1.7405757791
   10      C       0.5832758011    -0.0324149680     0.0381463778
   11      C      -0.9719949514    -0.0656541125     0.2021625311
   12      H      -1.4578834632     0.7492814786    -0.3377102715
   13      H      -1.1982127960     0.0264528665     1.2680415049
   14      H      -1.3489402956    -1.0256864991    -0.1597359806
   15      O       1.1673652399    -1.0273995684     0.7152613804
   16      O       1.0282510155     1.2189228852     0.2539013107
   17      H       1.0697637834    -0.7863690983     2.3622075282
   18      O       1.0420136800    -0.6785871995     3.3556721495
   19      H       0.1835758568    -0.2398361816     3.5602146392
   20      O      -1.3193486578     0.6014714420     3.9881941370
   21      O      -1.0741572383     1.8523702348     3.6406162740
 ----------------------------------------------------------------
 Nuclear Repulsion Energy =   690.4146947514 hartrees
 There are       49 alpha and       49 beta electrons
 Discretize the solute cavity surface with Lebedev spheres
	Using 110 Lebedev grid points for each H atom
	Using 110 Lebedev grid points for other atoms
	Atomic van der Waals radii will be scaled by 1.20
 Remove points where switching function is < 1.0e-08
 Keep 1285 surface tesserae and discard 1025 interior tesserae
 Molecular Surface Area = 245.077 Angst**2
 Requested basis set is def2-TZVPD
 There are 208 shells and 546 basis functions
 A cutoff of  1.0D-14 yielded  18359 shell pairs
 There are    124479 function pairs (    157332 Cartesian)
 Smallest overlap matrix eigenvalue = 3.13E-06
 Guess MOs from SCF MO coefficient file
 Reading MOs from coefficient file
 Reading MOs from coefficient file
 Long-range K will be added via erf
 Coulomb attenuation parameter = 0.3 bohr**(-1)
 An unrestricted hybrid HF-DFT SCF calculation will be
 performed using Pulay DIIS extrapolation
 Polarizable Continuum solvation model will be applied
 Exchange:     0.1670 Hartree-Fock + 1.0000 wB97X-V + LR-HF
 Correlation:  1.0000 wB97X-V
 Using SG-2 standard quadrature grid
 Nonlocal Correlation:  VV10 with C = 0.0100 and b = 6.00
 Grid used for NLC:  SG-1 standard quadrature
 SCF converges when DIIS error is below 1.0E-08
Using Q-Chem read-in guess as SCF_GUESS READ specified.

 using 16 threads for integral computing
 -------------------------------------------------------
 OpenMP Integral computing Module                
 Release: version 1.0, May 2013, Q-Chem Inc. Pittsburgh 
 -------------------------------------------------------
 using 16 threads for integral computing
 -------------------------------------------------------
 OpenMP Integral computing Module                
 Release: version 1.0, May 2013, Q-Chem Inc. Pittsburgh 
 -------------------------------------------------------
 -------------------------------------------------------
 OpenMP BLAS3 based DFT computing Module                
 Release: version 1.0, May 2013, Q-Chem Inc. Pittsburgh 
 -------------------------------------------------------
 -------------------------------------------------------
 OpenMP BLAS3 based DFT computing Module                
 Release: version 1.0, May 2013, Q-Chem Inc. Pittsburgh 
 -------------------------------------------------------
 -------------------------------------------------------
 OpenMP BLAS3 based DFT computing Module                
 Release: version 1.0, May 2013, Q-Chem Inc. Pittsburgh 
 -------------------------------------------------------
 ---------------------------------------
  Cycle       Energy         DIIS Error
 ---------------------------------------
    1    -722.2513839161      3.35E-04
    2    -722.8259526233      3.61E-04
    3    -722.8332214608      1.66E-04
    4    -722.8344425599      1.22E-04
    5    -722.8352167142      9.12E-05
    6    -722.8356426487      6.98E-05
    7    -722.8359725411      4.70E-05
    8    -722.8361493844      2.84E-05
    9    -722.8362296714      1.37E-05
   10    -722.8362463000      7.83E-06
   11    -722.8362534863      3.09E-06
   12    -722.8362544677      1.98E-06
   13    -722.8362551255      9.35E-07
   14    -722.8362553141      5.34E-07
   15    -722.8362553805      3.32E-07
   16    -722.8362554104      1.63E-07
   17    -722.8362554189      6.78E-08
   18    -722.8362554250      5.33E-08
   19    -722.8362554313      4.14E-08
   20    -722.8362554357      3.30E-08
   21    -722.8362554379      2.38E-08
   22    -722.8362554390      1.49E-08
   23    -722.8362554394      1.23E-08
   24    -722.8362554396      1.04E-08
   25    -722.8362554397      1.02E-08
   26    -722.8362554399      9.71E-09 Convergence criterion met
 ---------------------------------------

************** Final PCM Free Energy Summary **************
 G_electrostatic  =      -0.58458347 hartree =    -366.83166424 kcal/mol
 G_cavitation     =       0.00000000 hartree =       0.00000000 kcal/mol
 G_dispersion     =       0.00000000 hartree =       0.00000000 kcal/mol
 G_repulsion      =       0.00000000 hartree =       0.00000000 kcal/mol
 --------------------------------------------------
 Non-electrostatic Free Energy =       0.00000000 hartree =       0.00000000 kcal/mol
 Total                         =      -0.58458347 hartree =    -366.83166424 kcal/mol
 --------------------------------------------------
 SCF Energy (H0 + V/2)                       =    -722.83625544 
 Solute Internal Energy (H0)                 =    -722.25167197 
 Total Free Energy (H0 + V/2 + non-elec)     =    -722.83625544 hartree
                                             = -453586.59627073 kcal/mol
***********************************************************

 <S^2> = 1.0127
 SCF time:  CPU 11029.30 s  wall 789.97 s
 SCF   energy in the final basis set = -722.83625544
 Total energy in the final basis set = -722.83625544
 
 --------------------------------------------------------------
 
                    Orbital Energies (a.u.)
 --------------------------------------------------------------
 
 Alpha MOs
 -- Occupied --
-19.190 -19.189 -19.186 -19.156 -19.139 -19.137 -19.110 -10.340
-10.332 -10.261 -10.244 -10.244  -1.174  -1.142  -1.135  -1.075
 -1.047  -1.025  -0.888  -0.825  -0.802  -0.757  -0.629  -0.604
 -0.590  -0.568  -0.558  -0.534  -0.531  -0.510  -0.507  -0.491
 -0.483  -0.481  -0.471  -0.458  -0.445  -0.442  -0.423  -0.419
 -0.384  -0.378  -0.361  -0.346  -0.341  -0.330  -0.318  -0.295
 -0.258
 -- Virtual --
  0.054   0.062   0.074   0.080   0.085   0.092   0.097   0.103
  0.112   0.122   0.124   0.125   0.128   0.140   0.145   0.153
  0.156   0.163   0.168   0.170   0.175   0.177   0.188   0.194
  0.198   0.200   0.213   0.216   0.228   0.230   0.236   0.242
  0.243   0.249   0.258   0.272   0.272   0.280   0.283   0.289
  0.290   0.299   0.303   0.307   0.311   0.318   0.324   0.327
  0.328   0.331   0.344   0.349   0.355   0.364   0.368   0.373
  0.376   0.384   0.387   0.395   0.396   0.403   0.408   0.410
  0.416   0.419   0.426   0.431   0.432   0.438   0.441   0.443
  0.449   0.455   0.461   0.467   0.474   0.479   0.488   0.496
  0.499   0.505   0.508   0.510   0.514   0.518   0.528   0.528
  0.532   0.538   0.543   0.549   0.554   0.556   0.563   0.571
  0.574   0.579   0.581   0.590   0.593   0.602   0.603   0.607
  0.610   0.614   0.619   0.622   0.630   0.634   0.635   0.638
  0.647   0.653   0.658   0.668   0.674   0.679   0.686   0.691
  0.702   0.704   0.715   0.723   0.727   0.734   0.736   0.740
  0.750   0.757   0.766   0.768   0.774   0.779   0.787   0.802
  0.805   0.810   0.811   0.819   0.823   0.829   0.833   0.836
  0.847   0.850   0.853   0.863   0.865   0.869   0.877   0.879
  0.886   0.897   0.913   0.919   0.920   0.926   0.937   0.943
  0.957   0.964   0.966   0.967   0.973   0.977   0.998   1.010
  1.016   1.034   1.039   1.050   1.052   1.064   1.073   1.075
  1.091   1.092   1.097   1.114   1.123   1.142   1.156   1.169
  1.181   1.187   1.200   1.207   1.214   1.226   1.235   1.241
  1.251   1.266   1.269   1.276   1.305   1.318   1.330   1.353
  1.370   1.380   1.388   1.399   1.407   1.426   1.429   1.446
  1.457   1.467   1.491   1.501   1.515   1.531   1.579   1.591
  1.606   1.646   1.666   1.675   1.696   1.711   1.720   1.765
  1.786   1.802   1.808   1.838   1.851   1.858   1.881   1.913
  1.924   1.937   1.954   1.958   1.964   1.967   1.974   1.980
  1.999   2.016   2.024   2.030   2.037   2.041   2.053   2.079
  2.079   2.090   2.117   2.127   2.145   2.159   2.170   2.198
  2.218   2.230   2.240   2.253   2.263   2.282   2.295   2.303
  2.311   2.336   2.339   2.361   2.371   2.376   2.387   2.394
  2.426   2.428   2.437   2.449   2.480   2.484   2.499   2.508
  2.516   2.547   2.572   2.587   2.608   2.612   2.647   2.669
  2.701   2.709   2.714   2.729   2.756   2.775   2.787   2.804
  2.833   2.868   2.885   2.903   2.913   2.929   2.952   2.963
  2.973   2.986   2.993   3.018   3.028   3.043   3.061   3.076
  3.089   3.109   3.117   3.130   3.137   3.157   3.184   3.205
  3.220   3.237   3.254   3.267   3.280   3.294   3.301   3.309
  3.323   3.362   3.380   3.385   3.409   3.413   3.437   3.454
  3.463   3.478   3.508   3.526   3.532   3.537   3.551   3.566
  3.568   3.581   3.587   3.600   3.616   3.642   3.649   3.658
  3.683   3.697   3.706   3.710   3.717   3.733   3.750   3.775
  3.785   3.798   3.818   3.825   3.842   3.868   3.889   3.922
  3.955   3.990   4.005   4.041   4.113   4.141   4.147   4.194
  4.227   4.238   4.282   4.293   4.328   4.348   4.402   4.446
  4.464   4.598   4.640   4.663   4.677   4.706   4.769   4.776
  4.825   4.835   4.900   4.921   4.927   4.941   4.950   4.973
  5.016   5.106   5.130   5.158   5.183   5.249   5.254   5.270
  5.289   5.326   5.338   5.364   5.369   5.375   5.379   5.389
  5.396   5.406   5.411   5.456   5.504   5.519   5.571   5.592
  5.633   5.659   5.675   5.716   5.727   5.748   5.751   5.754
  5.783   5.863   6.008   6.121   6.197   6.224   6.247   6.292
  6.316   6.340   6.363   6.371   6.424   6.462   6.509   6.578
  6.600   6.624   6.627   6.638   6.666   6.681   6.689   6.701
  6.704   6.725   6.733   6.738   6.754   6.766   6.776   6.822
  6.842   6.922   6.961   6.972   7.051   7.068   7.103   7.180
  7.252   7.254   7.257   7.292   7.338   7.364   7.374   7.401
  7.413   7.445   7.508   7.541   8.655  22.753  22.895  22.941
 23.344  23.741  43.748  44.169  44.282  44.362  44.425  44.480
 44.617
 
 Beta MOs
 -- Occupied --
-19.202 -19.201 -19.173 -19.156 -19.139 -19.136 -19.109 -10.340
-10.333 -10.258 -10.244 -10.242  -1.203  -1.142  -1.113  -1.074
 -1.047  -1.008  -0.882  -0.847  -0.818  -0.748  -0.616  -0.603
 -0.588  -0.564  -0.546  -0.530  -0.522  -0.517  -0.508  -0.504
 -0.502  -0.485  -0.477  -0.469  -0.450  -0.446  -0.428  -0.421
 -0.383  -0.346  -0.345  -0.338  -0.328  -0.313  -0.312  -0.300
 -0.274
 -- Virtual --
 -0.026   0.062   0.074   0.080   0.086   0.092   0.096   0.103
  0.112   0.123   0.124   0.125   0.128   0.141   0.145   0.152
  0.154   0.163   0.168   0.170   0.175   0.177   0.187   0.194
  0.196   0.200   0.213   0.216   0.228   0.231   0.235   0.242
  0.243   0.250   0.258   0.270   0.272   0.280   0.282   0.289
  0.291   0.299   0.303   0.307   0.312   0.318   0.323   0.328
  0.329   0.331   0.346   0.349   0.355   0.366   0.369   0.373
  0.377   0.384   0.386   0.392   0.396   0.402   0.409   0.410
  0.416   0.420   0.428   0.431   0.432   0.438   0.442   0.445
  0.450   0.455   0.462   0.468   0.474   0.480   0.488   0.496
  0.500   0.505   0.508   0.510   0.515   0.518   0.528   0.529
  0.532   0.539   0.544   0.549   0.554   0.556   0.565   0.570
  0.575   0.579   0.581   0.589   0.594   0.601   0.603   0.608
  0.610   0.614   0.618   0.622   0.630   0.634   0.635   0.638
  0.647   0.652   0.657   0.669   0.673   0.678   0.686   0.690
  0.703   0.705   0.715   0.723   0.727   0.735   0.737   0.741
  0.750   0.757   0.766   0.770   0.776   0.780   0.787   0.802
  0.806   0.810   0.812   0.819   0.823   0.830   0.833   0.837
  0.847   0.851   0.854   0.864   0.867   0.871   0.878   0.878
  0.886   0.897   0.913   0.919   0.921   0.925   0.936   0.943
  0.957   0.963   0.966   0.968   0.972   0.977   0.997   1.010
  1.016   1.031   1.039   1.049   1.051   1.058   1.074   1.075
  1.092   1.093   1.098   1.115   1.125   1.141   1.158   1.165
  1.182   1.186   1.202   1.208   1.215   1.227   1.237   1.241
  1.252   1.265   1.269   1.276   1.310   1.322   1.331   1.355
  1.372   1.381   1.388   1.399   1.409   1.424   1.429   1.446
  1.458   1.469   1.493   1.504   1.517   1.534   1.580   1.592
  1.608   1.648   1.663   1.674   1.693   1.706   1.714   1.766
  1.786   1.795   1.809   1.836   1.843   1.855   1.872   1.918
  1.925   1.938   1.952   1.958   1.962   1.966   1.971   1.981
  2.006   2.017   2.023   2.030   2.036   2.041   2.048   2.075
  2.082   2.086   2.119   2.123   2.145   2.162   2.172   2.203
  2.221   2.236   2.242   2.257   2.266   2.285   2.294   2.300
  2.315   2.324   2.342   2.358   2.370   2.375   2.386   2.395
  2.425   2.434   2.439   2.451   2.482   2.485   2.500   2.509
  2.518   2.548   2.574   2.589   2.603   2.613   2.648   2.670
  2.702   2.711   2.717   2.730   2.757   2.777   2.789   2.805
  2.832   2.869   2.887   2.907   2.916   2.935   2.952   2.966
  2.975   2.986   2.998   3.018   3.029   3.041   3.053   3.072
  3.080   3.100   3.109   3.126   3.136   3.157   3.185   3.197
  3.214   3.228   3.251   3.255   3.282   3.293   3.305   3.309
  3.325   3.365   3.381   3.389   3.403   3.414   3.440   3.454
  3.463   3.481   3.511   3.529   3.532   3.539   3.551   3.564
  3.571   3.573   3.593   3.602   3.619   3.644   3.651   3.659
  3.686   3.702   3.709   3.712   3.719   3.739   3.755   3.779
  3.788   3.803   3.821   3.829   3.848   3.874   3.894   3.926
  3.966   3.993   4.008   4.043   4.116   4.141   4.147   4.197
  4.231   4.242   4.284   4.297   4.329   4.352   4.407   4.430
  4.467   4.601   4.644   4.665   4.682   4.710   4.770   4.779
  4.826   4.836   4.898   4.903   4.907   4.925   4.935   4.979
  5.023   5.112   5.137   5.143   5.187   5.218   5.254   5.265
  5.271   5.327   5.345   5.358   5.366   5.377   5.378   5.388
  5.397   5.413   5.414   5.463   5.504   5.535   5.572   5.612
  5.633   5.666   5.677   5.716   5.726   5.729   5.730   5.762
  5.783   5.872   6.009   6.149   6.200   6.229   6.247   6.303
  6.317   6.322   6.341   6.357   6.424   6.463   6.515   6.531
  6.552   6.624   6.625   6.632   6.638   6.647   6.665   6.701
  6.706   6.721   6.739   6.750   6.757   6.769   6.786   6.822
  6.837   6.933   6.962   6.972   7.052   7.093   7.116   7.189
  7.219   7.253   7.257   7.301   7.343   7.365   7.386   7.404
  7.413   7.449   7.491   7.544   8.641  22.755  22.896  22.944
 23.344  23.741  43.733  44.168  44.282  44.349  44.425  44.494
 44.621
 --------------------------------------------------------------
 
          Ground-State Mulliken Net Atomic Charges

     Atom                 Charge (a.u.)    Spin (a.u.)
  --------------------------------------------------------
      1 C                     0.003257       0.005632
      2 O                    -0.711312       0.003192
      3 O                    -0.692695       0.000031
      4 C                    -0.206983       0.012727
      5 H                     0.187313       0.002485
      6 H                     0.221406       0.003389
      7 C                    -0.451311       0.174009
      8 H                     0.280278      -0.001631
      9 H                     0.238421       0.009108
     10 C                     0.983995      -0.072997
     11 C                    -0.868543       0.134497
     12 H                     0.268646      -0.003699
     13 H                     0.089301      -0.008967
     14 H                     0.220231      -0.000953
     15 O                    -0.942579       0.087482
     16 O                    -0.574156       0.651324
     17 H                     0.325673       0.003037
     18 O                    -0.714486       0.000581
     19 H                     0.292689       0.000530
     20 O                    -0.494772      -0.477733
     21 O                    -0.454372      -0.522043
  --------------------------------------------------------
  Sum of atomic charges =    -3.000000
  Sum of spin   charges =     0.000000

 -----------------------------------------------------------------
                    Cartesian Multipole Moments
 -----------------------------------------------------------------
    Charge (ESU x 10^10)
               -14.4096
    Dipole Moment (Debye)
         X      -7.1844      Y      -5.2488      Z      -1.6356
       Tot       9.0466
    Quadrupole Moments (Debye-Ang)
        XX    -101.9822     XY      12.5442     YY    -106.8458
        XZ      23.0774     YZ      -1.4789     ZZ    -278.1521
    Octopole Moments (Debye-Ang^2)
       XXX     -76.8768    XXY     -22.0639    XYY     -25.7664
       YYY     -92.6622    XXZ      -2.8695    XYZ      20.7911
       YYZ      17.1397    XZZ     -61.1085    YZZ    -137.5539
       ZZZ     331.5496
    Hexadecapole Moments (Debye-Ang^3)
      XXXX    -591.2879   XXXY      97.8331   XXYY    -204.3565
      XYYY     102.1259   YYYY    -576.4982   XXXZ     337.2728
      XXYZ     -30.9178   XYYZ     134.5894   YYYZ      23.2159
      XXZZ   -1069.5322   XYZZ     189.8686   YYZZ   -1134.2283
      XZZZ     834.8544   YZZZ     184.3426   ZZZZ   -8237.5048
 -----------------------------------------------------------------
 Calculating analytic gradient of the SCF energy
 Gradient of SCF Energy
            1           2           3           4           5           6
    1   0.0036216   0.0184852  -0.0356541  -0.0639946   0.0656815  -0.0306426
    2  -0.0289547  -0.0371960   0.0568216   0.0992991   0.0079210  -0.0689890
    3  -0.0446604   0.0524604   0.0248479   0.0459823   0.0004809  -0.0125503
            7           8           9          10          11          12
    1   0.1097922  -0.0922324   0.0364644   0.0699487  -0.1756730   0.0445889
    2  -0.1373387  -0.0098530   0.0830265   0.0583591   0.0200194  -0.0938698
    3   0.0074929  -0.0171497   0.0063967  -0.0505444   0.0166903   0.0726788
           13          14          15          16          17          18
    1   0.0307365   0.0308337   0.0027134  -0.0146112  -0.0272099  -0.0382451
    2  -0.0180150   0.1003442   0.0008333  -0.0341354   0.0117228   0.0321321
    3  -0.1495098   0.0512086  -0.0237229  -0.0038982   0.0965257  -0.0367274
           19          20          21
    1   0.0682435  -0.0089773   0.0061305
    2  -0.0428940  -0.0458447   0.0466112
    3  -0.0358248   0.0153427  -0.0155194
 Max gradient component =       1.757E-01
 RMS gradient           =       5.791E-02
 Computing fast CPCM-ISWIG gradient
 Updating gradient with PCM contributions...
 -- total gradient after adding PCM contribution --
---------------------------------------------------
  Atom         X              Y              Z     
---------------------------------------------------
   1      -0.000747       0.000448       0.000010
   2       0.000216      -0.000136       0.000129
   3       0.000347      -0.000313      -0.000098
   4       0.000174       0.000013      -0.000027
   5       0.000018      -0.000012      -0.000068
   6      -0.000002      -0.000002       0.000028
   7       0.000008       0.000019       0.000017
   8      -0.000001       0.000003      -0.000002
   9      -0.000003      -0.000000       0.000003
  10      -0.000036       0.000007       0.000002
  11       0.000032      -0.000004       0.000001
  12      -0.000005      -0.000002      -0.000004
  13       0.000001       0.000007       0.000001
  14      -0.000004       0.000002       0.000004
  15       0.000005      -0.000008       0.000005
  16       0.000015      -0.000011      -0.000001
  17      -0.000002       0.000003       0.000042
  18       0.000012      -0.000010      -0.000042
  19      -0.000015       0.000008      -0.000001
  20      -0.000006      -0.000003      -0.000003
  21      -0.000005      -0.000009       0.000003
---------------------------------------------------
 Number of fixed atoms: 0
 Gradient time:  CPU 1309.64 s  wall 96.60 s
 ----------------------------------------------------------------
             Standard Nuclear Orientation (Angstroms)
    I     Atom           X                Y                Z
 ----------------------------------------------------------------
    1      C       0.6136923152     0.5049571774    -3.9959078415
    2      O       0.1857625435     1.3693561480    -4.8072526258
    3      O       1.2554519540    -0.5317763248    -4.3063709525
    4      C       0.2978027754     0.7641807153    -2.5112824322
    5      H      -0.7942107703     0.7840444763    -2.4271192279
    6      H       0.6392975887     1.7762860362    -2.2756326515
    7      C       0.9000877845    -0.2406195278    -1.5484230284
    8      H       1.9899695622    -0.2548376154    -1.6223579763
    9      H       0.5326398300    -1.2514731317    -1.7405757791
   10      C       0.5832758011    -0.0324149680     0.0381463778
   11      C      -0.9719949514    -0.0656541125     0.2021625311
   12      H      -1.4578834632     0.7492814786    -0.3377102715
   13      H      -1.1982127960     0.0264528665     1.2680415049
   14      H      -1.3489402956    -1.0256864991    -0.1597359806
   15      O       1.1673652399    -1.0273995684     0.7152613804
   16      O       1.0282510155     1.2189228852     0.2539013107
   17      H       1.0697637834    -0.7863690983     2.3622075282
   18      O       1.0420136800    -0.6785871995     3.3556721495
   19      H       0.1835758568    -0.2398361816     3.5602146392
   20      O      -1.3193486578     0.6014714420     3.9881941370
   21      O      -1.0741572383     1.8523702348     3.6406162740
 ----------------------------------------------------------------
 Nuclear Repulsion Energy =   690.4134461635 hartrees
 There are       49 alpha and       49 beta electrons
 Discretize the solute cavity surface with Lebedev spheres
	Using 110 Lebedev grid points for each H atom
	Using 110 Lebedev grid points for other atoms
	Atomic van der Waals radii will be scaled by 1.20
 Remove points where switching function is < 1.0e-08
 Keep 1285 surface tesserae and discard 1025 interior tesserae
 Molecular Surface Area = 245.076 Angst**2
 Requested basis set is def2-TZVPD
 There are 208 shells and 546 basis functions
 A cutoff of  1.0D-14 yielded  18359 shell pairs
 There are    124479 function pairs (    157332 Cartesian)
 Smallest overlap matrix eigenvalue = 3.13E-06
 Guess MOs from SCF MO coefficient file
 Reading MOs from coefficient file
 Reading MOs from coefficient file
 Long-range K will be added via erf
 Coulomb attenuation parameter = 0.3 bohr**(-1)
 An unrestricted hybrid HF-DFT SCF calculation will be
 performed using Pulay DIIS extrapolation
 Polarizable Continuum solvation model will be applied
 Exchange:     0.1670 Hartree-Fock + 1.0000 wB97X-V + LR-HF
 Correlation:  1.0000 wB97X-V
 Using SG-2 standard quadrature grid
 Nonlocal Correlation:  VV10 with C = 0.0100 and b = 6.00
 Grid used for NLC:  SG-1 standard quadrature
 SCF converges when DIIS error is below 1.0E-08
Using Q-Chem read-in guess as SCF_GUESS READ specified.

 using 16 threads for integral computing
 -------------------------------------------------------
 OpenMP Integral computing Module                
 Release: version 1.0, May 2013, Q-Chem Inc. Pittsburgh 
 -------------------------------------------------------
 using 16 threads for integral computing
 -------------------------------------------------------
 OpenMP Integral computing Module                
 Release: version 1.0, May 2013, Q-Chem Inc. Pittsburgh 
 -------------------------------------------------------
 -------------------------------------------------------
 OpenMP BLAS3 based DFT computing Module                
 Release: version 1.0, May 2013, Q-Chem Inc. Pittsburgh 
 -------------------------------------------------------
 -------------------------------------------------------
 OpenMP BLAS3 based DFT computing Module                
 Release: version 1.0, May 2013, Q-Chem Inc. Pittsburgh 
 -------------------------------------------------------
 -------------------------------------------------------
 OpenMP BLAS3 based DFT computing Module                
 Release: version 1.0, May 2013, Q-Chem Inc. Pittsburgh 
 -------------------------------------------------------
 ---------------------------------------
  Cycle       Energy         DIIS Error
 ---------------------------------------
    1    -722.2516447076      3.35E-04
    2    -722.8259378469      3.62E-04
    3    -722.8332147788      1.66E-04
    4    -722.8344358999      1.22E-04
    5    -722.8351993476      9.20E-05
    6    -722.8356036829      7.20E-05
    7    -722.8359143812      5.18E-05
    8    -722.8360917846      3.56E-05
    9    -722.8361950693      2.13E-05
   10    -722.8362276900      1.43E-05
   11    -722.8362481322      6.86E-06
   12    -722.8362517899      4.54E-06
   13    -722.8362541435      2.13E-06
   14    -722.8362546757      1.20E-06
   15    -722.8362548510      7.00E-07
   16    -722.8362549173      3.77E-07
   17    -722.8362549414      6.87E-08
   18    -722.8362549479      5.39E-08
   19    -722.8362549540      4.25E-08
   20    -722.8362549586      3.38E-08
   21    -722.8362549611      2.46E-08
   22    -722.8362549623      1.60E-08
   23    -722.8362549626      1.33E-08
   24    -722.8362549629      1.11E-08
   25    -722.8362549631      1.08E-08
   26    -722.8362549633      1.03E-08
   27    -722.8362549636      9.85E-09 Convergence criterion met
 ---------------------------------------

************** Final PCM Free Energy Summary **************
 G_electrostatic  =      -0.58458693 hartree =    -366.83383207 kcal/mol
 G_cavitation     =       0.00000000 hartree =       0.00000000 kcal/mol
 G_dispersion     =       0.00000000 hartree =       0.00000000 kcal/mol
 G_repulsion      =       0.00000000 hartree =       0.00000000 kcal/mol
 --------------------------------------------------
 Non-electrostatic Free Energy =       0.00000000 hartree =       0.00000000 kcal/mol
 Total                         =      -0.58458693 hartree =    -366.83383207 kcal/mol
 --------------------------------------------------
 SCF Energy (H0 + V/2)                       =    -722.83625496 
 Solute Internal Energy (H0)                 =    -722.25166804 
 Total Free Energy (H0 + V/2 + non-elec)     =    -722.83625496 hartree
                                             = -453586.59597185 kcal/mol
***********************************************************

 <S^2> = 1.0127
 SCF time:  CPU 11445.99 s  wall 819.71 s
 SCF   energy in the final basis set = -722.83625496
 Total energy in the final basis set = -722.83625496
 
 --------------------------------------------------------------
 
                    Orbital Energies (a.u.)
 --------------------------------------------------------------
 
 Alpha MOs
 -- Occupied --
-19.190 -19.189 -19.186 -19.156 -19.139 -19.137 -19.110 -10.340
-10.332 -10.261 -10.244 -10.244  -1.174  -1.142  -1.135  -1.075
 -1.047  -1.025  -0.888  -0.825  -0.802  -0.757  -0.629  -0.604
 -0.590  -0.568  -0.558  -0.534  -0.531  -0.510  -0.507  -0.491
 -0.483  -0.481  -0.471  -0.458  -0.445  -0.442  -0.423  -0.419
 -0.384  -0.378  -0.361  -0.346  -0.341  -0.330  -0.318  -0.295
 -0.258
 -- Virtual --
  0.054   0.062   0.074   0.080   0.085   0.092   0.097   0.103
  0.112   0.122   0.124   0.125   0.128   0.140   0.145   0.153
  0.156   0.163   0.168   0.170   0.175   0.177   0.188   0.194
  0.198   0.200   0.213   0.216   0.228   0.230   0.236   0.242
  0.243   0.249   0.258   0.272   0.272   0.280   0.283   0.289
  0.290   0.299   0.303   0.307   0.311   0.318   0.324   0.327
  0.328   0.331   0.344   0.349   0.355   0.364   0.368   0.373
  0.376   0.384   0.387   0.395   0.396   0.403   0.408   0.410
  0.416   0.419   0.426   0.431   0.432   0.438   0.441   0.443
  0.449   0.455   0.461   0.467   0.474   0.479   0.488   0.496
  0.499   0.505   0.508   0.510   0.514   0.518   0.528   0.528
  0.532   0.538   0.543   0.549   0.554   0.556   0.563   0.571
  0.574   0.579   0.581   0.590   0.593   0.602   0.603   0.607
  0.610   0.614   0.618   0.623   0.630   0.634   0.635   0.638
  0.647   0.653   0.658   0.668   0.674   0.679   0.686   0.691
[...]
 O          0.005 -0.016  0.026    0.005 -0.007  0.005    0.041 -0.080  0.066
 O         -0.002  0.002 -0.003   -0.003 -0.004  0.001   -0.007 -0.027  0.001
 H          0.002  0.003 -0.001    0.005  0.001 -0.005    0.001 -0.012 -0.020
 O          0.000 -0.000 -0.001   -0.000  0.000  0.001   -0.001  0.001  0.003
 H          0.000  0.001 -0.004   -0.001 -0.001 -0.005    0.003  0.001  0.003
 O          0.000 -0.000  0.000    0.000 -0.000  0.000    0.001 -0.000 -0.000
 O          0.000 -0.000  0.000   -0.000 -0.000  0.000   -0.000 -0.000  0.000
 TransDip   0.004  0.036 -0.033   -0.040  0.140 -0.072   -0.150  0.426 -0.399

 Mode:                37                     38                     39
 Frequency:      1262.43                1282.68                1297.38
 Force Cnst:      2.4826                15.4975                 1.1479
 Red. Mass:       2.6439                15.9872                 1.1575
 IR Active:          YES                    YES                    YES
 IR Intens:      186.339                  0.918                  1.892
 Raman Active:       YES                    YES                    YES
               X      Y      Z        X      Y      Z        X      Y      Z
 C          0.007 -0.008  0.019   -0.000  0.000 -0.000    0.034  0.019  0.004
 O         -0.012  0.026 -0.032    0.000 -0.000  0.000   -0.005 -0.001 -0.002
 O         -0.000 -0.001  0.002    0.000  0.000 -0.000   -0.004 -0.003 -0.001
 C          0.028 -0.033  0.103   -0.000 -0.000 -0.000    0.046  0.036  0.010
 H         -0.005  0.002 -0.321   -0.000  0.001 -0.000    0.083 -0.258  0.492
 H         -0.017  0.126 -0.511    0.001 -0.002  0.005   -0.127  0.212 -0.491
 C          0.011 -0.040  0.057    0.000  0.000 -0.000   -0.069 -0.043 -0.019
 H         -0.028  0.123 -0.511    0.001 -0.002  0.003   -0.082  0.228 -0.270
 H          0.009  0.039 -0.330   -0.000  0.001 -0.001    0.165 -0.205  0.390
 C         -0.118  0.268 -0.095    0.001 -0.001  0.002    0.003 -0.029  0.005
 C         -0.003 -0.040  0.023   -0.001  0.000 -0.001    0.017  0.003 -0.004
 H          0.239  0.061 -0.046    0.004  0.000 -0.004   -0.066 -0.023  0.028
 H          0.049  0.118  0.013    0.001 -0.004  0.002   -0.083 -0.000 -0.023
 H          0.005  0.019 -0.102    0.003 -0.001 -0.001   -0.048  0.015  0.023
 O          0.064 -0.102  0.067   -0.000  0.001 -0.001   -0.006  0.010 -0.007
 O         -0.011 -0.064 -0.007    0.000  0.000 -0.000    0.001  0.007  0.003
 H          0.015 -0.009 -0.031    0.005 -0.004 -0.003   -0.000  0.001  0.002
 O         -0.002  0.001  0.003    0.006 -0.003 -0.002    0.000 -0.000  0.000
 H          0.007 -0.000  0.029   -0.004  0.018  0.001   -0.001 -0.000 -0.006
 O          0.001  0.000 -0.000    0.124  0.672 -0.183    0.000  0.000 -0.000
 O         -0.000 -0.001  0.000   -0.130 -0.669  0.186   -0.000 -0.000  0.000
 TransDip  -0.118  0.307 -0.287   -0.006 -0.028  0.010    0.031 -0.017  0.027

 Mode:                40                     41                     42
 Frequency:      1337.58                1360.56                1425.24
 Force Cnst:      1.7067                 1.3676                 8.0672
 Red. Mass:       1.6191                 1.2539                 6.7406
 IR Active:          YES                    YES                    YES
 IR Intens:       41.427                 15.902                474.130
 Raman Active:       YES                    YES                    YES
               X      Y      Z        X      Y      Z        X      Y      Z
 C          0.005  0.019 -0.054    0.003  0.001  0.010   -0.091  0.068  0.520
 O          0.018 -0.042  0.050   -0.003  0.006 -0.007   -0.078  0.167 -0.200
 O         -0.012  0.017  0.006    0.002 -0.005 -0.002    0.136 -0.214 -0.107
 C         -0.004  0.034 -0.160    0.002  0.002  0.024    0.044 -0.041 -0.172
 H          0.051 -0.020  0.592   -0.000 -0.034 -0.009    0.084  0.381  0.298
 H         -0.100 -0.065  0.437    0.016  0.025 -0.101   -0.427  0.030  0.232
 C         -0.003 -0.017  0.114   -0.003  0.007 -0.036   -0.011  0.013  0.008
 H         -0.030 -0.067 -0.419    0.003  0.001  0.072   -0.016 -0.069 -0.028
 H          0.140  0.005 -0.334    0.004 -0.036  0.176    0.079 -0.010 -0.030
 C         -0.026  0.051  0.018   -0.015 -0.045  0.006    0.002  0.017  0.012
 C         -0.026 -0.015 -0.004   -0.130 -0.003  0.013    0.003 -0.017 -0.005
 H          0.139  0.085  0.006    0.470  0.202 -0.179   -0.019  0.058  0.116
 H          0.136  0.090  0.018    0.536  0.046  0.137   -0.035  0.139 -0.026
 H          0.129 -0.049 -0.047    0.521 -0.182 -0.146    0.043 -0.015 -0.035
 O          0.008 -0.009 -0.002    0.001  0.004 -0.002    0.002 -0.004  0.003
 O         -0.002 -0.019 -0.006    0.010  0.022  0.001   -0.002 -0.011 -0.000
 H          0.003  0.001 -0.004    0.000 -0.001  0.002   -0.000  0.003  0.001
 O         -0.000  0.000  0.000   -0.000  0.000 -0.001    0.000 -0.000 -0.000
 H          0.003  0.001  0.011    0.001  0.000  0.003    0.001  0.001 -0.000
 O         -0.000 -0.000 -0.000   -0.000 -0.000  0.000   -0.000 -0.000 -0.000
 O         -0.000  0.000  0.000    0.000  0.000  0.000   -0.000 -0.000  0.000
 TransDip  -0.081  0.183 -0.049    0.047 -0.111  0.043   -0.115  0.118  0.678

 Mode:                43                     44                     45
 Frequency:      1456.12                1464.61                1467.37
 Force Cnst:      1.4805                 1.3580                 1.3819
 Red. Mass:       1.1851                 1.0745                 1.0893
 IR Active:          YES                    YES                    YES
 IR Intens:       28.659                  5.591                  4.269
 Raman Active:       YES                    YES                    YES
               X      Y      Z        X      Y      Z        X      Y      Z
 C          0.003  0.006 -0.057   -0.003  0.008 -0.005   -0.003  0.008 -0.005
 O          0.010 -0.020  0.022    0.002 -0.004  0.005    0.002 -0.005  0.006
 O         -0.009  0.014  0.008    0.001 -0.002 -0.000    0.001 -0.002 -0.000
 C          0.048 -0.075  0.036    0.009 -0.011 -0.016    0.007 -0.006 -0.021
 H          0.048  0.672  0.056    0.014  0.127  0.060    0.013  0.092  0.061
 H         -0.656  0.192 -0.017   -0.134  0.032  0.029   -0.103  0.022  0.031
 C         -0.014  0.023 -0.031    0.030 -0.043  0.009    0.037 -0.056  0.012
 H         -0.009 -0.164  0.033    0.025  0.401  0.021    0.031  0.511  0.027
 H          0.154 -0.054  0.041   -0.384  0.117  0.008   -0.486  0.145  0.009
 C          0.001 -0.000  0.001   -0.000  0.006 -0.019    0.001 -0.016  0.004
 C          0.000 -0.000  0.004   -0.011  0.031 -0.034    0.003 -0.006  0.041
 H         -0.016 -0.026 -0.022    0.256  0.197  0.008   -0.166 -0.262 -0.211
 H          0.024  0.013  0.007   -0.172 -0.426 -0.019    0.225  0.165  0.062
 H         -0.011  0.021 -0.040    0.030 -0.200  0.524   -0.097  0.203 -0.420
 O          0.000 -0.001  0.001    0.001 -0.002  0.002   -0.001  0.003 -0.003
 O          0.000  0.001  0.000    0.001  0.000  0.001    0.001  0.006  0.001
 H          0.000  0.000  0.000   -0.000 -0.003 -0.001    0.002  0.000  0.002
 O         -0.000 -0.000 -0.000    0.000  0.000  0.000   -0.000 -0.000 -0.000
 H          0.000  0.000 -0.000   -0.001 -0.001 -0.002    0.001  0.000  0.003
 O         -0.000 -0.000  0.000    0.000 -0.000  0.000   -0.000  0.000  0.000
 O          0.000  0.000  0.000    0.000  0.000 -0.000    0.000  0.000  0.000
 TransDip  -0.057  0.110 -0.118   -0.052  0.031  0.046   -0.040  0.049 -0.021

 Mode:                46                     47                     48
 Frequency:      1479.01                1584.24                1646.16
 Force Cnst:      1.3685                15.0594                 1.6992
 Red. Mass:       1.0618                10.1839                 1.0643
 IR Active:          YES                    YES                    YES
 IR Intens:       11.509               1279.597                 86.806
 Raman Active:       YES                    YES                    YES
               X      Y      Z        X      Y      Z        X      Y      Z
 C          0.001 -0.003 -0.016   -0.377  0.659 -0.131   -0.000  0.000 -0.000
 O          0.002 -0.005  0.006    0.098 -0.194  0.162    0.000 -0.000  0.000
 O         -0.004  0.007  0.004    0.162 -0.263 -0.066    0.000 -0.000 -0.000
 C          0.003 -0.004  0.006    0.021 -0.044  0.044    0.000 -0.000 -0.000
 H         -0.002  0.047 -0.049   -0.014 -0.152 -0.279    0.000  0.000  0.001
 H         -0.036  0.013 -0.004    0.197 -0.017 -0.287    0.000 -0.001  0.001
 C          0.014 -0.017 -0.004   -0.012  0.014  0.009   -0.000  0.001 -0.001
 H          0.014  0.164  0.025   -0.022 -0.040 -0.014    0.000 -0.000  0.002
 H         -0.162  0.044  0.025    0.050  0.005 -0.012   -0.002  0.000  0.005
 C         -0.000 -0.021 -0.004    0.004 -0.001  0.000    0.000 -0.004 -0.004
 C          0.002 -0.052 -0.027    0.001 -0.002 -0.002    0.001 -0.000  0.000
 H         -0.090  0.310  0.579   -0.010  0.008  0.020   -0.003  0.004  0.009
 H         -0.234  0.557 -0.120   -0.007  0.014 -0.004   -0.010  0.006 -0.005
 H          0.302 -0.138 -0.062    0.001 -0.002  0.000    0.004 -0.002  0.002
 O         -0.002  0.004 -0.002   -0.001  0.000  0.000   -0.006  0.006  0.000
 O          0.001  0.003  0.000   -0.001 -0.001 -0.001    0.000  0.001  0.000
 H         -0.008  0.006 -0.000   -0.004  0.002 -0.001    0.669 -0.357  0.054
 O          0.001 -0.000  0.001    0.000 -0.000  0.000   -0.043  0.019 -0.038
 H         -0.002  0.000 -0.012   -0.001  0.000 -0.005    0.131 -0.019  0.633
 O          0.000  0.000 -0.000    0.000 -0.000  0.000   -0.001  0.000 -0.003
 O         -0.000 -0.000  0.000    0.000 -0.000  0.000   -0.000  0.001  0.000
 TransDip  -0.017  0.100  0.038   -0.541  0.978 -0.252    0.197 -0.098  0.201

 Mode:                49                     50                     51
 Frequency:      3055.50                3071.67                3072.83
 Force Cnst:      5.6810                 5.9037                 5.9798
 Red. Mass:       1.0328                 1.0620                 1.0749
 IR Active:          YES                    YES                    YES
 IR Intens:       40.461                 48.932               1920.950
 Raman Active:       YES                    YES                    YES
               X      Y      Z        X      Y      Z        X      Y      Z
 C         -0.000  0.000 -0.000   -0.001  0.001 -0.002    0.000 -0.000 -0.000
 O          0.000 -0.000  0.000    0.000 -0.000  0.000   -0.000  0.000  0.000
 O          0.000 -0.000 -0.000    0.000 -0.000  0.000   -0.000  0.000  0.000
 C         -0.010  0.004  0.002   -0.050  0.043  0.014    0.011 -0.007 -0.003
 H          0.133 -0.000 -0.010    0.784 -0.001 -0.062   -0.167  0.001  0.014
 H         -0.020 -0.050 -0.011   -0.186 -0.503 -0.115    0.032  0.085  0.019
 C          0.001 -0.002  0.000    0.008 -0.008 -0.000    0.007 -0.012 -0.001
 H         -0.028 -0.001  0.001   -0.133 -0.001  0.008   -0.135 -0.002  0.006
 H          0.008  0.019  0.000    0.036  0.090  0.015    0.056  0.144  0.029
 C         -0.000  0.001 -0.000   -0.001 -0.000 -0.002   -0.005  0.002 -0.006
 C          0.045  0.007 -0.009   -0.006 -0.005  0.005    0.001  0.001  0.002
 H         -0.220  0.396 -0.265    0.014 -0.026  0.020   -0.003  0.006 -0.004
 H         -0.107  0.051  0.569    0.020 -0.011 -0.103   -0.000 -0.000 -0.007
 H         -0.194 -0.532 -0.203    0.038  0.098  0.038   -0.002 -0.014 -0.005
 O         -0.000 -0.000  0.000    0.000 -0.000  0.001    0.002 -0.002  0.007
 O         -0.000 -0.000  0.000    0.000  0.000  0.000    0.001  0.000  0.001
 H          0.000  0.001  0.012   -0.008  0.018  0.154   -0.047  0.111  0.949
 O         -0.000 -0.000 -0.001    0.001 -0.001 -0.010    0.003 -0.008 -0.063
 H          0.001 -0.000  0.000    0.001 -0.001 -0.004    0.010 -0.007 -0.023
 O          0.000 -0.000 -0.000   -0.000  0.000  0.000   -0.001  0.000  0.000
 O          0.000  0.000 -0.000   -0.000  0.000 -0.000   -0.000  0.000 -0.000
 TransDip   0.187  0.081  0.005   -0.141 -0.006  0.174   -0.040 -0.285  1.374

 Mode:                52                     53                     54
 Frequency:      3083.59                3112.55                3140.20
 Force Cnst:      5.9318                 6.2794                 6.4188
 Red. Mass:       1.0588                 1.1001                 1.1048
 IR Active:          YES                    YES                    YES
 IR Intens:      182.848                 10.299                 18.475
 Raman Active:       YES                    YES                    YES
               X      Y      Z        X      Y      Z        X      Y      Z
 C         -0.001  0.001  0.000   -0.001 -0.001  0.000    0.000  0.000 -0.000
 O          0.000 -0.000 -0.000    0.000  0.000  0.000   -0.000 -0.000 -0.000
 O          0.000 -0.001  0.000   -0.000  0.000 -0.000   -0.000 -0.000 -0.000
 C         -0.007  0.004  0.003   -0.062 -0.059 -0.010    0.010  0.008  0.001
 H          0.109 -0.000 -0.010    0.508 -0.018 -0.048   -0.087  0.002  0.007
 H         -0.022 -0.060 -0.014    0.242  0.727  0.173   -0.032 -0.098 -0.022
 C         -0.036  0.053  0.012    0.025  0.016  0.001    0.028  0.018  0.002
 H          0.673  0.007 -0.039   -0.240  0.004  0.019   -0.254  0.005  0.017
 H         -0.246 -0.631 -0.114   -0.071 -0.202 -0.040   -0.078 -0.220 -0.039
 C         -0.001  0.003 -0.000    0.000  0.000  0.000    0.001 -0.000 -0.001
 C          0.001 -0.003  0.001   -0.000 -0.008  0.004   -0.007 -0.047 -0.073
 H         -0.013  0.023 -0.016   -0.027  0.045 -0.030    0.014 -0.036  0.006
 H         -0.000 -0.001  0.004    0.008 -0.005 -0.036   -0.139  0.050  0.666
 H          0.002  0.009  0.004    0.022  0.058  0.023    0.209  0.549  0.198
 O          0.001 -0.001  0.001   -0.000 -0.000  0.000   -0.000  0.000  0.000
 O         -0.000 -0.001  0.000   -0.000  0.000 -0.000   -0.000  0.000  0.000
 H         -0.011  0.026  0.227   -0.001  0.002  0.017    0.000  0.001  0.013
 O          0.001 -0.002 -0.015    0.000 -0.000 -0.001   -0.000  0.000 -0.001
 H          0.003 -0.002 -0.006    0.000 -0.000 -0.000    0.003 -0.001  0.000
 O         -0.000  0.000  0.000   -0.000  0.000 -0.000    0.000 -0.000 -0.000
 O         -0.000  0.000  0.000   -0.000  0.000  0.000    0.000  0.000 -0.000
 TransDip  -0.146  0.164  0.373   -0.041 -0.090  0.028    0.057 -0.050 -0.115

 Mode:                55                     56                     57
 Frequency:      3144.00                3150.99                3372.07
 Force Cnst:      6.4447                 6.4582                 7.1714
 Red. Mass:       1.1066                 1.1040                 1.0704
 IR Active:          YES                    YES                    YES
 IR Intens:       57.749                 36.178               1198.347
 Raman Active:       YES                    YES                    YES
               X      Y      Z        X      Y      Z        X      Y      Z
 C         -0.000 -0.000  0.000    0.000 -0.000 -0.000    0.000 -0.000  0.000
 O          0.000  0.000  0.000   -0.000 -0.000  0.000    0.000  0.000 -0.000
 O          0.000  0.000 -0.000   -0.000  0.000  0.000    0.000  0.000 -0.000
 C         -0.021 -0.017 -0.003    0.010  0.005  0.001    0.000  0.000  0.000
 H          0.177 -0.006 -0.013   -0.110  0.003  0.010   -0.000  0.000  0.000
 H          0.070  0.211  0.048   -0.018 -0.057 -0.014   -0.000 -0.000 -0.000
 C         -0.068 -0.047 -0.006    0.005  0.001 -0.000    0.000 -0.000 -0.000
 H          0.614 -0.009 -0.041   -0.045  0.001  0.002   -0.001  0.000  0.000
 H          0.202  0.575  0.107   -0.006 -0.017 -0.003    0.000  0.001 -0.000
 C         -0.001 -0.001  0.000    0.000 -0.001  0.001    0.000 -0.000  0.001
 C         -0.002 -0.026 -0.025    0.014 -0.076  0.051   -0.000 -0.000  0.000
 H         -0.024  0.037 -0.031   -0.366  0.631 -0.423   -0.000  0.000 -0.000
 H         -0.049  0.017  0.235    0.072 -0.043 -0.334    0.001 -0.000 -0.003
 H          0.099  0.257  0.094    0.130  0.326  0.137   -0.001 -0.001 -0.000
 O          0.000  0.000  0.000    0.000  0.000 -0.000   -0.000  0.000 -0.001
 O          0.000  0.000 -0.000   -0.000  0.000 -0.000   -0.000 -0.000 -0.000
 H          0.000  0.000  0.001    0.001 -0.002 -0.019   -0.019  0.010  0.004
 O         -0.000  0.000 -0.000    0.000  0.000  0.001   -0.056  0.029  0.016
 H          0.001 -0.000  0.000   -0.002  0.001  0.000    0.864 -0.445 -0.225
 O          0.000 -0.000 -0.000    0.000  0.000  0.000    0.003 -0.000 -0.001
 O         -0.000  0.000 -0.000   -0.000 -0.000  0.000   -0.000 -0.001  0.000
 TransDip  -0.205 -0.131 -0.011    0.099 -0.143  0.083    0.877 -0.609 -0.300

 STANDARD THERMODYNAMIC QUANTITIES AT   298.15 K  AND     1.00 ATM

   This Molecule has  0 Imaginary Frequencies
   Zero point vibrational energy:       91.146 kcal/mol

   Atom    1 Element C  Has Mass   12.00000
   Atom    2 Element O  Has Mass   15.99491
   Atom    3 Element O  Has Mass   15.99491
   Atom    4 Element C  Has Mass   12.00000
   Atom    5 Element H  Has Mass    1.00783
   Atom    6 Element H  Has Mass    1.00783
   Atom    7 Element C  Has Mass   12.00000
   Atom    8 Element H  Has Mass    1.00783
   Atom    9 Element H  Has Mass    1.00783
   Atom   10 Element C  Has Mass   12.00000
   Atom   11 Element C  Has Mass   12.00000
   Atom   12 Element H  Has Mass    1.00783
   Atom   13 Element H  Has Mass    1.00783
   Atom   14 Element H  Has Mass    1.00783
   Atom   15 Element O  Has Mass   15.99491
   Atom   16 Element O  Has Mass   15.99491
   Atom   17 Element H  Has Mass    1.00783
   Atom   18 Element O  Has Mass   15.99491
   Atom   19 Element H  Has Mass    1.00783
   Atom   20 Element O  Has Mass   15.99491
   Atom   21 Element O  Has Mass   15.99491
   Molecular Mass:   181.034840 amu
   Principal axes and moments of inertia in amu*Bohr^2:
                             1           2           3
    Eigenvalues --      958.27859  6187.54931  6721.51043
          X              -0.14244    -0.64901     0.74733
          Y               0.00737     0.75431     0.65648
          Z               0.98978    -0.09902     0.10266
   Rotational Symmetry Number is   1
   The Molecule is an Asymmetric Top
   Translational Enthalpy:        0.889 kcal/mol
   Rotational Enthalpy:           0.889 kcal/mol
   Vibrational Enthalpy:         99.272 kcal/mol
   gas constant (RT):             0.592 kcal/mol
   Translational Entropy:        41.487  cal/mol.K
   Rotational Entropy:           32.055  cal/mol.K
   Vibrational Entropy:          60.119  cal/mol.K

   Total Enthalpy:              101.642 kcal/mol
   Total Entropy:               133.661  cal/mol.K
Archival summary:
1\1\c5-67\FREQ\ProcedureUnspecified\BasisUnspecified\759(3-,1)\leeping\SatMar2120:46:262020SatMar2120:46:262020\0\\#,FREQ,ProcedureUnspecified,BasisUnspecified,\\-3,1\O\C,1,1.34551\O,2,1.33777,1,117.785\C,2,1.56425,1,109.376,3,128.529,0\H,4,1.09164,2,112.014,1,47.3874,0\H,4,1.09303,2,109.076,1,169.129,0\H,4,1.09351,2,107.824,1,-72.6528,0\C,2,1.63123,1,102.148,3,-118.347,0\H,8,1.09248,2,105.144,1,67.4461,0\H,8,1.0926,2,102.934,1,-179.392,0\C,8,1.5164,2,117.121,1,-56.5983,0\H,11,1.09385,8,110.629,2,59.1132,0\H,11,1.09543,8,111.049,2,-58.4702,0\C,11,1.54,8,114.752,2,-179.115,0\O,14,1.25737,11,118.811,8,4.24344,0\O,14,1.26108,11,115.765,8,-176.165,0\H,3,1.66735,2,111.523,1,57.3108,0\O,17,0.999679,3,177.232,2,-169.988,0\H,18,0.985523,17,106.167,3,-155.606,0\O,19,1.77475,18,177.108,17,-138.305,0\O,20,1.32124,19,103.192,18,62.5128,0\\\@

 Total job time:  114579.18s(wall), 1595395.32s(cpu) 
 Sat Mar 21 20:46:26 2020

        *************************************************************
        *                                                           *
        *  Thank you very much for using Q-Chem.  Have a nice day.  *
        *                                                           *
        *************************************************************


