
Running Job 1 of 1 qc-3-tshess.in
qchem qc-3-tshess.in_3328.0 ./qc-3-tshess.d/ 1
/home/leeping/opt/qchem/5.0.2-openmp/exe/qcprog.exe_s qc-3-tshess.in_3328.0 ./qc-3-tshess.d/
Check license passed

                  Welcome to Q-Chem
     A Quantum Leap Into The Future Of Chemistry


 Q-Chem 5.0, Q-Chem, Inc., Pleasanton, CA (2017)

 Yihan Shao,  Zhengting Gan,  E. Epifanovsky,  A. T. B. Gilbert,  M. Wormit,  
 J. Kussmann,  A. W. Lange,  A. Behn,  Jia Deng,  Xintian Feng,  D. Ghosh,  
 M. Goldey,  P. R. Horn,  L. D. Jacobson,  I. Kaliman,  T. Kus,  A. Landau,  
 Jie Liu,  E. I. Proynov,  R. M. Richard,  R. P. Steele,  E. J. Sundstrom,  
 H. L. Woodcock III,  P. M. Zimmerman,  D. Zuev,  B. Albrecht,  E. Alguire,  
 S. A. Baeppler,  D. Barton,  Z. Benda,  Y. A. Bernard,  E. J. Berquist,  
 K. B. Bravaya,  H. Burton,  D. Casanova,  Chun-Min Chang,  Yunqing Chen,  
 A. Chien,  K. D. Closser,  M. P. Coons,  S. Dasgupta,  A. L. Dempwolff,  
 M. Diedenhofen,  Hainam Do,  R. G. Edgar,  Po-Tung Fang,  S. Fatehi,  
 Qingguo Feng,  J. Fosso-Tande,  Qinghui Ge,  A. Ghysels,  G. Gidofalvi,  
 J. Gomes,  J. Gonthier,  A. Gunina,  M. W. D. Hanson-Heine,  
 P. H. P. Harbach,  A. W. Hauser,  J. E. Herr,  E. G. Hohenstein,  
 Z. C. Holden,  Kerwin Hui,  T.-C. Jagau,  Hyunjun Ji,  B. Kaduk,  
 K. Khistyaev,  Jaehoon Kim,  P. Klunzinger,  K. Koh,  D. Kosenkov,  
 L. Koulias,  T. Kowalczyk,  C. M. Krauter,  A. Kunitsa,  Ka Un Lao,  
 A. Laurent,  K. V. Lawler,  Joonho Lee,  D. Lefrancois,  S. Lehtola,  
 D. S. Levine,  Yi-Pei Li,  You-Sheng Lin,  Fenglai Liu,  E. Livshits,  
 A. Luenser,  P. Manohar,  E. Mansoor,  S. F. Manzer,  Shan-Ping Mao,  
 Yuezhi Mao,  N. Mardirossian,  A. V. Marenich,  T. Markovich,  
 L. A. Martinez-Martinez,  S. A. Maurer,  N. J. Mayhall,  S. C. McKenzie,  
 J.-M. Mewes,  A. F. Morrison,  J. W. Mullinax,  K. Nanda,  
 T. S. Nguyen-Beck,  R. Olivares-Amaya,  J. A. Parkhill,  T. M. Perrine,  
 F. Plasser,  S. Prager,  A. Prociuk,  E. Ramos,  D. R. Rehn,  F. Rob,  
 M. Schneider,  N. Sergueev,  S. M. Sharada,  S. Sharma,  D. W. Small,  
 T. Stauch,  T. Stein,  Yu-Chuan Su,  A. J. W. Thom,  A. Tkatchenko,  
 T. Tsuchimochi,  L. Vogt,  O. Vydrov,  M. A. Watson,  J. Wenzel,  
 M. de Wergifosse,  T. A. Wesolowski,  A. White,  J. Witte,  A. Yamada,  
 Jun Yang,  K. Yao,  S. Yeganeh,  S. R. Yost,  Zhi-Qiang You,  A. Zech,  
 Igor Ying Zhang,  Xing Zhang,  Yan Zhao,  Ying Zhu,  B. R. Brooks,  
 G. K. L. Chan,  C. J. Cramer,  M. S. Gordon,  W. J. Hehre,  A. Klamt,  
 M. W. Schmidt,  C. D. Sherrill,  D. G. Truhlar,  A. Aspuru-Guzik,  R. Baer,  
 A. T. Bell,  N. A. Besley,  Jeng-Da Chai,  R. A. DiStasio Jr.,  A. Dreuw,  
 B. D. Dunietz,  T. R. Furlani,  Chao-Ping Hsu,  Yousung Jung,  Jing Kong,  
 D. S. Lambrecht,  WanZhen Liang,  C. Ochsenfeld,  V. A. Rassolov,  
 L. V. Slipchenko,  J. E. Subotnik,  T. Van Voorhis,  J. M. Herbert,  
 A. I. Krylov,  P. M. W. Gill,  M. Head-Gordon

 Contributors to earlier versions of Q-Chem not listed above: 
 R. D. Adamson,  B. Austin,  J. Baker,  G. J. O. Beran,  K. Brandhorst,  
 S. T. Brown,  E. F. C. Byrd,  A. K. Chakraborty,  C.-L. Cheng,  
 Siu Hung Chien,  D. M. Chipman,  D. L. Crittenden,  H. Dachsel,  
 R. J. Doerksen,  A. D. Dutoi,  L. Fusti-Molnar,  W. A. Goddard III,  
 A. Golubeva-Zadorozhnaya,  S. R. Gwaltney,  G. Hawkins,  A. Heyden,  
 S. Hirata,  G. Kedziora,  F. J. Keil,  C. Kelley,  Jihan Kim,  R. A. King,  
 R. Z. Khaliullin,  P. P. Korambath,  W. Kurlancheek,  A. M. Lee,  M. S. Lee,  
 S. V. Levchenko,  Ching Yeh Lin,  D. Liotard,  R. C. Lochan,  I. Lotan,  
 P. E. Maslen,  N. Nair,  D. P. O'Neill,  D. Neuhauser,  E. Neuscamman,  
 C. M. Oana,  R. Olson,  B. Peters,  R. Peverati,  P. A. Pieniazek,  
 Y. M. Rhee,  J. Ritchie,  M. A. Rohrdanz,  E. Rosta,  N. J. Russ,  
 H. F. Schaefer III,  N. E. Schultz,  N. Shenvi,  A. C. Simmonett,  A. Sodt,  
 D. Stuck,  K. S. Thanthiriwatte,  V. Vanovschi,  Tao Wang,  A. Warshel,  
 C. F. Williams,  Q. Wu,  X. Xu,  W. Zhang

 Please cite Q-Chem as follows:
 Y. Shao et al., Mol. Phys. 113, 184-215 (2015)
 DOI: 10.1080/00268976.2014.952696

 Q-Chem 5.0.2 for Intel X86 EM64T Linux

 Parts of Q-Chem use Armadillo 5.200.1 (Boston Tea Smuggler).
 http://arma.sourceforge.net/

 Q-Chem begins on Thu Sep 26 20:09:34 2019  

Host: 
0

     Scratch files written to ./qc-3-tshess.d//
 Dec517 15110_ 26548  26544 5633   
Processing $rem in /home/leeping/opt/qchem/5.0.2-openmp/config/preferences.
 MEM_STATIC 2000
 MEM_TOTAL  8000
 SYMMETRY   OFF
 SYM_IGNORE TRUE 
Symmetry turned off for PCM/SM12/SMD calculation

Checking the input file for inconsistencies... 	...done.

--------------------------------------------------------------
User input:
--------------------------------------------------------------
$molecule
-3 1
C        0.6381980000    0.5123416232   -4.0586647825
O        0.2212668836    1.3843063105   -4.8658846195
O        1.2700423394   -0.5298799298   -4.3664933623
C        0.3229114265    0.7725954613   -2.5700708610
H       -0.7677171347    0.8234385484   -2.4879159378
H        0.7007147713    1.7679059994   -2.3210138847
C        0.8932718065   -0.2579578626   -1.6321983513
H        1.9817546330   -0.2865321113   -1.6272830667
H        0.4798647552   -1.2570943399   -1.7656600979
C        0.5326525712    0.0155636409    0.1020296960
C       -1.0195480600   -0.0775633749    0.1434638976
H       -1.4890219698    0.7318856319   -0.4184782495
H       -1.3152608767    0.0063822192    1.1944115106
H       -1.3600612900   -1.0423009190   -0.2400765223
O        1.1231090672   -1.0021914088    0.6976099532
O        0.9925269336    1.2315213053    0.2485195574
H        1.0761129082   -0.7725570247    2.4054629085
O        1.0514041101   -0.6679491423    3.3898450945
H        0.1880338572   -0.2326693310    3.5923686091
O       -1.3083921039    0.5866075320    3.9940225971
O       -1.0691283943    1.8413943303    3.6567128027
$end

$rem
jobtype               freq
method                wb97x-v
basis                 def2-tzvpd
symmetry              off
sym_ignore            true
incdft                false
incfock               0
scf_guess             read
scf_algorithm         diis_gdm
scf_convergence       8
thresh                14
unrestricted          true
!purecart             112
max_scf_cycles        1000
geom_opt_max_cycles   500
geom_opt_dmax         100
geom_opt_tol_gradient 10
solvent_method        pcm
ideriv                1
rpath_tol_displacement 1000
rpath_max_cycles      100
rpath_direction       1
$end

$pcm
theory              cosmo
method              iswig
Radii               bondi
vdwScale            1.20
hpoints             110
heavypoints         110
$end

$solvent
dielectric 78.400000
$end

--------------------------------------------------------------
 ----------------------------------------------------------------
             Standard Nuclear Orientation (Angstroms)
    I     Atom           X                Y                Z
 ----------------------------------------------------------------
    1      C       0.6381980000     0.5123416232    -4.0586647825
    2      O       0.2212668836     1.3843063105    -4.8658846195
    3      O       1.2700423394    -0.5298799298    -4.3664933623
    4      C       0.3229114265     0.7725954613    -2.5700708610
    5      H      -0.7677171347     0.8234385484    -2.4879159378
    6      H       0.7007147713     1.7679059994    -2.3210138847
    7      C       0.8932718065    -0.2579578626    -1.6321983513
    8      H       1.9817546330    -0.2865321113    -1.6272830667
    9      H       0.4798647552    -1.2570943399    -1.7656600979
   10      C       0.5326525712     0.0155636409     0.1020296960
   11      C      -1.0195480600    -0.0775633749     0.1434638976
   12      H      -1.4890219698     0.7318856319    -0.4184782495
   13      H      -1.3152608767     0.0063822192     1.1944115106
   14      H      -1.3600612900    -1.0423009190    -0.2400765223
   15      O       1.1231090672    -1.0021914088     0.6976099532
   16      O       0.9925269336     1.2315213053     0.2485195574
   17      H       1.0761129082    -0.7725570247     2.4054629085
   18      O       1.0514041101    -0.6679491423     3.3898450945
   19      H       0.1880338572    -0.2326693310     3.5923686091
   20      O      -1.3083921039     0.5866075320     3.9940225971
   21      O      -1.0691283943     1.8413943303     3.6567128027
 ----------------------------------------------------------------
 Nuclear Repulsion Energy =   686.6684819460 hartrees
 There are       49 alpha and       49 beta electrons
 Requested basis set is def2-TZVPD
 There are 208 shells and 546 basis functions

 Total QAlloc Memory Limit   8000 MB
 Mega-Array Size      1956 MB
 MEM_STATIC part      2000 MB
 Discretize the solute cavity surface with Lebedev spheres
	Using 110 Lebedev grid points for each H atom
	Using 110 Lebedev grid points for other atoms
	Atomic van der Waals radii will be scaled by 1.20
 Remove points where switching function is < 1.0e-08
 Keep 1281 surface tesserae and discard 1029 interior tesserae
 Molecular Surface Area = 246.698 Angst**2
 A cutoff of  1.0D-14 yielded  18318 shell pairs
 There are    124198 function pairs (    157017 Cartesian)
 
 -------------------------------------------------------
 OpenMP Integral Computing Module                       
 Release: version 1.0, May 2013, Q-Chem Inc. Pittsburgh 
 -------------------------------------------------------
 Integral Job Info:
 Integral job number is                      11
 Integral operator is                         1
 short-range coefficients              16700000
 long-range coefficients              100000000
 Omega coefficients                         300
 if combine SR and LR in K                    1
 Integral screening is                        0
 Integral computing path is                   2
 max size of driver memory is            800000
 size of driver memory is                776718
 size of scratch memory is              4473992
 max col of scratch BK array              10000
 max len of scratch array in speh3          662
 max len of scratch index in speh4           32
 max int batch size is                      520
 min int batch size is                       52
 fixed nKL is                                52
 max L of basis functions is                  3
 order of int derivative is                   0
 number of shells is                        208
 number of basis is                         618
 number of cartesian basis is               618
 number of contracted shell pairs         18318
 number of primitive shell pairs          36057
 maxK2 (contraction) of shell pair           36
 max number of K2 of shell pair               1
 max number of CS2 of shell pair           3161
 max number of PS2 of shell pair           4062
 mem total for path MDJ                  844396
 -------------------------------------------------------
 Smallest overlap matrix eigenvalue = 3.31E-06
 Guess MOs from SCF MO coefficient file
 Reading MOs from coefficient file
 Reading MOs from coefficient file
 Long-range K will be added via erf
 Coulomb attenuation parameter = 0.3 bohr**(-1)
 An unrestricted hybrid HF-DFT SCF calculation will be
 performed using Pulay DIIS + Geometric Direct Minimization
 Polarizable Continuum solvation model will be applied
 Exchange:     0.1670 Hartree-Fock + 1.0000 wB97X-V + LR-HF
 Correlation:  1.0000 wB97X-V
 Using SG-2 standard quadrature grid
 Nonlocal Correlation:  VV10 with C = 0.0100 and b = 6.00
 Grid used for NLC:  SG-1 standard quadrature
 SCF converges when RMS gradient is below 1.0E-08
Using Q-Chem read-in guess as SCF_GUESS READ specified.

 using 16 threads for integral computing
 -------------------------------------------------------
 OpenMP Integral computing Module                
 Release: version 1.0, May 2013, Q-Chem Inc. Pittsburgh 
 -------------------------------------------------------
 using 16 threads for integral computing
 -------------------------------------------------------
 OpenMP Integral computing Module                
 Release: version 1.0, May 2013, Q-Chem Inc. Pittsburgh 
 -------------------------------------------------------
 -------------------------------------------------------
 OpenMP BLAS3 based DFT computing Module                
 Release: version 1.0, May 2013, Q-Chem Inc. Pittsburgh 
 -------------------------------------------------------
 -------------------------------------------------------
 OpenMP BLAS3 based DFT computing Module                
 Release: version 1.0, May 2013, Q-Chem Inc. Pittsburgh 
 -------------------------------------------------------
 -------------------------------------------------------
 OpenMP BLAS3 based DFT computing Module                
 Release: version 1.0, May 2013, Q-Chem Inc. Pittsburgh 
 -------------------------------------------------------
 ---------------------------------------
  Cycle       Energy        RMS Gradient
 ---------------------------------------
    1    -722.2489458359      3.51E-04 Done DIIS. Switching to GDM
    2    -722.8239381972      2.46E-02 Normal BFGS step
    3    -722.8321274411      1.27E-02 Normal BFGS step
    4    -722.8350732233      7.35E-03 Normal BFGS step
    5    -722.8354610386      3.63E-03 Normal BFGS step
    6    -722.8355504731      2.50E-03 Normal BFGS step
    7    -722.8355733824      8.21E-04 Normal BFGS step
    8    -722.8355798443      6.61E-04 Normal BFGS step
    9    -722.8355819776      7.15E-04 Normal BFGS step
   10    -722.8355831292      2.72E-04 Normal BFGS step
   11    -722.8355836631      3.00E-04 Normal BFGS step
   12    -722.8355839329      1.06E-04 Normal BFGS step
   13    -722.8355840183      3.02E-05 Normal BFGS step
   14    -722.8355840359      1.99E-05 Normal BFGS step
   15    -722.8355840424      1.54E-05 Normal BFGS step
   16    -722.8355840437      1.20E-05 Normal BFGS step
   17    -722.8355840444      9.26E-06 Normal BFGS step
   18    -722.8355840447      9.03E-06 Normal BFGS step
   19    -722.8355840449      8.78E-06 Normal BFGS step
   20    -722.8355840454      8.08E-06 Normal BFGS step
   21    -722.8355840457      7.30E-06 Normal BFGS step
   22    -722.8355840464      1.12E-05 Normal BFGS step
   23    -722.8355840472      1.24E-05 Normal BFGS step
   24    -722.8355840478      1.01E-05 Normal BFGS step
   25    -722.8355840482      5.63E-06 Normal BFGS step
   26    -722.8355840483      2.73E-06 Normal BFGS step
   27    -722.8355840484      3.43E-06 Normal BFGS step
   28    -722.8355840485      8.55E-07 Normal BFGS step
   29    -722.8355840485      5.28E-07 Normal BFGS step
   30    -722.8355840485      2.94E-07 Normal BFGS step
   31    -722.8355840485      1.98E-07 Normal BFGS step
   32    -722.8355840485      1.35E-07 Normal BFGS step
   33    -722.8355840485      5.71E-08 Normal BFGS step
   34    -722.8355840485      5.72E-08 Normal BFGS step
   GDM::WARNING energy changes are now smaller than effective accuracy.
   GDM::        calculation will continue, but THRESH should be increased
   GDM::        or SCF_CONVERGENCE decreased.
   GDM::        effective_thresh =   1.547356193697114E-009
   35    -722.8355840485      7.41E-09 Convergence criterion met
 ---------------------------------------

************** Final PCM Free Energy Summary **************
 G_electrostatic  =      -0.58663821 hartree =    -368.12103423 kcal/mol
 G_cavitation     =       0.00000000 hartree =       0.00000000 kcal/mol
 G_dispersion     =       0.00000000 hartree =       0.00000000 kcal/mol
 G_repulsion      =       0.00000000 hartree =       0.00000000 kcal/mol
 --------------------------------------------------
 Non-electrostatic Free Energy =       0.00000000 hartree =       0.00000000 kcal/mol
 Total                         =      -0.58663821 hartree =    -368.12103423 kcal/mol
 --------------------------------------------------
 SCF Energy (H0 + V/2)                       =    -722.83558405 
 Solute Internal Energy (H0)                 =    -722.24894584 
 Total Free Energy (H0 + V/2 + non-elec)     =    -722.83558405 hartree
                                             = -453586.17496623 kcal/mol
***********************************************************

 <S^2> = 1.0150
 SCF time:  CPU 14779.47 s  wall 1079.91 s
 SCF   energy in the final basis set = -722.83558405
 Total energy in the final basis set = -722.83558405
 
 --------------------------------------------------------------
 
                    Orbital Energies (a.u.)
 --------------------------------------------------------------
 
 Alpha MOs
 -- Occupied --
-19.191 -19.189 -19.161 -19.150 -19.141 -19.138 -19.122 -10.342
-10.339 -10.274 -10.247 -10.241  -1.175  -1.144  -1.128  -1.080
 -1.050  -1.029  -0.889  -0.826  -0.803  -0.751  -0.622  -0.606
 -0.592  -0.569  -0.555  -0.534  -0.527  -0.512  -0.511  -0.491
 -0.488  -0.481  -0.471  -0.460  -0.448  -0.444  -0.429  -0.420
 -0.387  -0.362  -0.348  -0.347  -0.340  -0.332  -0.322  -0.285
 -0.259
 -- Virtual --
  0.054   0.062   0.073   0.080   0.085   0.092   0.096   0.102
  0.112   0.122   0.124   0.125   0.128   0.140   0.145   0.153
  0.155   0.162   0.167   0.170   0.174   0.176   0.188   0.193
  0.197   0.199   0.212   0.215   0.223   0.227   0.234   0.236
  0.240   0.248   0.258   0.262   0.273   0.277   0.281   0.286
  0.290   0.295   0.302   0.306   0.308   0.315   0.322   0.327
  0.328   0.332   0.335   0.349   0.352   0.363   0.368   0.370
  0.375   0.383   0.386   0.393   0.397   0.403   0.409   0.410
  0.415   0.419   0.425   0.429   0.432   0.436   0.438   0.445
  0.450   0.453   0.459   0.466   0.473   0.481   0.486   0.496
  0.499   0.502   0.505   0.508   0.512   0.515   0.526   0.529
  0.530   0.533   0.546   0.550   0.552   0.555   0.561   0.568
  0.573   0.577   0.579   0.587   0.589   0.598   0.601   0.604
  0.611   0.612   0.618   0.620   0.626   0.633   0.633   0.636
  0.645   0.651   0.657   0.667   0.673   0.676   0.683   0.687
  0.697   0.703   0.712   0.721   0.727   0.729   0.736   0.741
  0.747   0.754   0.761   0.769   0.777   0.779   0.784   0.799
  0.802   0.806   0.811   0.818   0.823   0.829   0.834   0.836
  0.843   0.848   0.853   0.860   0.864   0.868   0.870   0.878
  0.887   0.900   0.910   0.916   0.921   0.922   0.935   0.940
  0.947   0.959   0.962   0.965   0.966   0.974   0.997   1.004
  1.014   1.032   1.037   1.044   1.047   1.053   1.066   1.072
  1.083   1.091   1.096   1.108   1.117   1.130   1.157   1.161
  1.181   1.185   1.196   1.198   1.213   1.224   1.231   1.237
  1.250   1.258   1.264   1.271   1.300   1.315   1.328   1.352
  1.365   1.369   1.389   1.396   1.408   1.417   1.425   1.440
  1.448   1.464   1.486   1.490   1.512   1.525   1.559   1.570
  1.588   1.636   1.656   1.667   1.690   1.703   1.720   1.761
  1.781   1.794   1.800   1.833   1.850   1.856   1.879   1.907
  1.921   1.935   1.955   1.959   1.961   1.968   1.975   1.978
  2.001   2.009   2.019   2.028   2.031   2.042   2.049   2.070
  2.076   2.085   2.100   2.119   2.130   2.147   2.156   2.185
  2.201   2.222   2.238   2.247   2.253   2.267   2.283   2.293
  2.299   2.329   2.331   2.349   2.368   2.371   2.384   2.389
  2.420   2.425   2.438   2.452   2.475   2.479   2.498   2.504
  2.520   2.545   2.568   2.578   2.596   2.610   2.639   2.661
  2.684   2.694   2.720   2.724   2.750   2.764   2.783   2.796
  2.823   2.845   2.859   2.890   2.910   2.927   2.944   2.948
  2.951   2.966   2.985   3.011   3.015   3.031   3.050   3.066
  3.078   3.097   3.111   3.117   3.126   3.136   3.160   3.195
  3.207   3.219   3.250   3.258   3.277   3.290   3.304   3.311
  3.323   3.356   3.368   3.384   3.393   3.408   3.420   3.438
  3.454   3.463   3.496   3.500   3.521   3.538   3.543   3.548
  3.554   3.572   3.581   3.590   3.601   3.621   3.628   3.654
  3.665   3.677   3.689   3.701   3.714   3.718   3.739   3.748
  3.776   3.804   3.817   3.830   3.853   3.864   3.882   3.917
  3.932   3.965   3.994   4.009   4.122   4.131   4.145   4.183
  4.188   4.200   4.247   4.253   4.286   4.316   4.364   4.445
  4.451   4.599   4.606   4.623   4.626   4.687   4.753   4.763
  4.795   4.832   4.838   4.902   4.920   4.926   4.940   4.952
  4.987   5.104   5.128   5.157   5.159   5.249   5.252   5.266
  5.286   5.324   5.346   5.363   5.371   5.374   5.380   5.385
  5.403   5.403   5.413   5.447   5.505   5.510   5.569   5.622
  5.631   5.665   5.685   5.712   5.727   5.748   5.751   5.754
  5.780   5.894   6.010   6.183   6.223   6.241   6.250   6.315
  6.322   6.337   6.362   6.370   6.436   6.502   6.577   6.600
  6.620   6.628   6.633   6.635   6.666   6.683   6.697   6.699
  6.711   6.732   6.744   6.749   6.761   6.765   6.780   6.810
  6.853   6.905   6.958   6.969   7.052   7.103   7.147   7.199
  7.247   7.253   7.254   7.302   7.336   7.362   7.379   7.400
  7.410   7.414   7.495   7.517   8.655  22.760  22.878  22.920
 23.480  23.744  43.740  44.157  44.276  44.365  44.420  44.516
 44.607
 
 Beta MOs
 -- Occupied --
-19.203 -19.202 -19.160 -19.142 -19.141 -19.138 -19.119 -10.342
-10.339 -10.267 -10.247 -10.240  -1.204  -1.144  -1.116  -1.079
 -1.049  -1.016  -0.880  -0.848  -0.820  -0.737  -0.611  -0.603
 -0.588  -0.565  -0.545  -0.529  -0.520  -0.517  -0.510  -0.506
 -0.504  -0.487  -0.483  -0.468  -0.455  -0.449  -0.428  -0.425
 -0.387  -0.347  -0.341  -0.334  -0.327  -0.316  -0.313  -0.305
 -0.275
 -- Virtual --
 -0.013   0.062   0.074   0.080   0.086   0.092   0.096   0.103
  0.112   0.123   0.124   0.126   0.128   0.140   0.145   0.152
  0.153   0.162   0.167   0.170   0.174   0.176   0.187   0.193
  0.196   0.199   0.212   0.215   0.225   0.230   0.234   0.237
  0.241   0.249   0.258   0.266   0.272   0.277   0.281   0.284
  0.290   0.296   0.303   0.306   0.308   0.316   0.321   0.328
  0.329   0.335   0.336   0.349   0.352   0.364   0.369   0.370
  0.375   0.383   0.387   0.392   0.396   0.402   0.409   0.411
  0.415   0.420   0.425   0.429   0.432   0.436   0.439   0.449
  0.450   0.453   0.460   0.468   0.473   0.483   0.487   0.496
  0.499   0.503   0.505   0.508   0.514   0.516   0.525   0.528
  0.530   0.535   0.547   0.550   0.553   0.556   0.561   0.568
  0.573   0.578   0.579   0.587   0.588   0.596   0.601   0.605
  0.611   0.611   0.618   0.620   0.625   0.633   0.634   0.636
  0.645   0.651   0.657   0.667   0.673   0.675   0.683   0.687
  0.697   0.704   0.712   0.720   0.727   0.730   0.736   0.741
  0.748   0.754   0.762   0.770   0.778   0.781   0.785   0.800
  0.802   0.807   0.812   0.818   0.824   0.830   0.835   0.837
  0.845   0.849   0.854   0.861   0.865   0.868   0.871   0.878
  0.887   0.901   0.910   0.916   0.921   0.922   0.933   0.940
  0.947   0.958   0.962   0.965   0.966   0.973   0.996   1.004
  1.015   1.029   1.034   1.044   1.047   1.049   1.067   1.071
  1.082   1.092   1.098   1.109   1.117   1.130   1.158   1.159
  1.182   1.185   1.197   1.199   1.213   1.224   1.233   1.237
  1.250   1.259   1.265   1.271   1.304   1.318   1.328   1.355
  1.367   1.371   1.390   1.398   1.410   1.419   1.421   1.441
  1.449   1.466   1.488   1.494   1.513   1.529   1.561   1.571
  1.590   1.638   1.656   1.668   1.687   1.702   1.707   1.762
  1.781   1.788   1.800   1.833   1.840   1.853   1.869   1.909
  1.922   1.936   1.950   1.957   1.960   1.967   1.973   1.981
  2.006   2.012   2.019   2.030   2.032   2.037   2.049   2.063
  2.073   2.089   2.102   2.117   2.128   2.151   2.159   2.189
  2.205   2.226   2.239   2.251   2.256   2.270   2.285   2.292
  2.299   2.319   2.333   2.350   2.357   2.372   2.383   2.389
  2.422   2.427   2.439   2.455   2.477   2.480   2.499   2.506
  2.523   2.547   2.570   2.581   2.600   2.601   2.640   2.663
  2.685   2.695   2.721   2.727   2.751   2.767   2.786   2.798
  2.824   2.847   2.862   2.896   2.916   2.929   2.947   2.951
  2.954   2.969   2.986   3.010   3.016   3.030   3.044   3.057
  3.069   3.093   3.099   3.118   3.126   3.139   3.162   3.190
  3.202   3.218   3.230   3.251   3.280   3.296   3.299   3.313
  3.324   3.360   3.368   3.379   3.392   3.411   3.421   3.437
  3.460   3.467   3.499   3.501   3.528   3.539   3.545   3.548
  3.558   3.565   3.583   3.593   3.606   3.624   3.632   3.657
  3.668   3.682   3.693   3.704   3.717   3.722   3.742   3.751
  3.782   3.809   3.821   3.835   3.861   3.869   3.889   3.923
  3.937   3.971   3.999   4.011   4.125   4.132   4.146   4.186
  4.193   4.207   4.250   4.258   4.288   4.320   4.372   4.429
  4.455   4.606   4.609   4.626   4.634   4.691   4.755   4.765
  4.802   4.834   4.841   4.897   4.906   4.906   4.923   4.937
  4.992   5.107   5.133   5.142   5.163   5.219   5.253   5.259
  5.266   5.325   5.344   5.356   5.364   5.374   5.379   5.385
  5.390   5.410   5.421   5.454   5.505   5.520   5.569   5.631
  5.635   5.665   5.694   5.713   5.726   5.728   5.729   5.761
  5.780   5.900   6.010   6.184   6.236   6.249   6.253   6.316
  6.322   6.327   6.341   6.357   6.432   6.507   6.529   6.552
  6.619   6.626   6.630   6.635   6.639   6.649   6.665   6.698
  6.708   6.721   6.741   6.751   6.755   6.770   6.800   6.825
  6.834   6.918   6.959   6.970   7.053   7.117   7.156   7.205
  7.219   7.251   7.254   7.307   7.340   7.363   7.387   7.402
  7.413   7.418   7.488   7.512   8.641  22.761  22.882  22.924
 23.480  23.744  43.725  44.156  44.276  44.352  44.420  44.523
 44.613
 --------------------------------------------------------------
 
          Ground-State Mulliken Net Atomic Charges

     Atom                 Charge (a.u.)    Spin (a.u.)
  --------------------------------------------------------
      1 C                     0.016852       0.020284
      2 O                    -0.705873       0.008530
      3 O                    -0.689739      -0.000421
      4 C                    -0.171231       0.028583
      5 H                     0.180439       0.004851
      6 H                     0.212440       0.006087
      7 C                    -0.353741       0.354802
      8 H                     0.258562      -0.002122
      9 H                     0.254862       0.009279
     10 C                     0.895844      -0.088720
     11 C                    -0.839794       0.134531
     12 H                     0.263807      -0.005968
     13 H                     0.096137      -0.005835
     14 H                     0.223520      -0.004706
     15 O                    -0.908854       0.141212
     16 O                    -0.707981       0.391257
     17 H                     0.329034       0.006474
     18 O                    -0.705158       0.002054
     19 H                     0.298822      -0.000107
     20 O                    -0.494897      -0.475931
     21 O                    -0.453051      -0.524136
  --------------------------------------------------------
  Sum of atomic charges =    -3.000000
  Sum of spin   charges =    -0.000000

 -----------------------------------------------------------------
                    Cartesian Multipole Moments
 -----------------------------------------------------------------
    Charge (ESU x 10^10)
               -14.4096
    Dipole Moment (Debye)
         X      -7.2141      Y      -6.4464      Z      -1.5747
       Tot       9.8019
    Quadrupole Moments (Debye-Ang)
        XX    -101.5082     XY      10.7237     YY    -107.1282
        XZ      23.8260     YZ      -1.8587     ZZ    -278.2545
    Octopole Moments (Debye-Ang^2)
       XXX     -74.7237    XXY     -24.7049    XYY     -25.7262
       YYY     -97.8375    XXZ       0.2607    XYZ      20.2733
       YYZ      20.1372    XZZ     -65.4091    YZZ    -139.9891
       ZZZ     351.8116
    Hexadecapole Moments (Debye-Ang^3)
      XXXX    -587.3719   XXXY      87.9369   XXYY    -202.8838
      XYYY      92.3103   YYYY    -575.4545   XXXZ     346.2697
      XXYZ     -30.1189   XYYZ     138.4573   YYYZ      28.1599
      XXZZ   -1084.9602   XYZZ     182.8469   YYZZ   -1151.1487
      XZZZ     867.0534   YZZZ     199.1640   ZZZZ   -8420.3538
 -----------------------------------------------------------------
 Calculating analytic gradient of the SCF energy
 Gradient of SCF Energy
            1           2           3           4           5           6
    1   0.0037954   0.0183105  -0.0348062  -0.0499932   0.0670160  -0.0337893
    2  -0.0275431  -0.0381253   0.0578087   0.1033479   0.0055793  -0.0701115
    3  -0.0459675   0.0524652   0.0245326   0.0635158  -0.0012937  -0.0136975
            7           8           9          10          11          12
    1   0.0845946  -0.0980995   0.0417289   0.0981517  -0.1727145   0.0414069
    2  -0.1181391  -0.0093924   0.0816608   0.0348660   0.0292918  -0.0913700
    3   0.0080064  -0.0258413  -0.0023711  -0.0611171   0.0095687   0.0723639
           13          14          15          16          17          18
    1   0.0454054   0.0229304  -0.0107966  -0.0253105  -0.0248166  -0.0381716
    2  -0.0167724   0.0955806   0.0144852  -0.0477281   0.0059555   0.0309356
    3  -0.1437032   0.0470938  -0.0119096   0.0089158   0.1009206  -0.0454098
           19          20          21
    1   0.0675252  -0.0080029   0.0056360
    2  -0.0413295  -0.0455875   0.0465875
    3  -0.0347871   0.0144464  -0.0157314
 Max gradient component =       1.727E-01
 RMS gradient           =       5.734E-02
 Computing fast CPCM-ISWIG gradient
 Updating gradient with PCM contributions...
 -- total gradient after adding PCM contribution --
---------------------------------------------------
  Atom         X              Y              Z     
---------------------------------------------------
   1      -0.000002      -0.000001      -0.000001
   2      -0.000004      -0.000002      -0.000000
   3      -0.000001      -0.000000       0.000000
   4      -0.000002      -0.000001      -0.000000
   5      -0.000002      -0.000003       0.000000
   6      -0.000004      -0.000000      -0.000001
   7       0.000000       0.000002       0.000001
   8       0.000000       0.000003      -0.000000
   9       0.000002      -0.000000       0.000001
  10       0.000002       0.000002      -0.000001
  11       0.000000      -0.000002       0.000001
  12      -0.000001      -0.000003       0.000000
  13       0.000001      -0.000002       0.000001
  14       0.000002      -0.000003       0.000001
  15       0.000002       0.000002      -0.000000
  16      -0.000002       0.000000      -0.000001
  17       0.000003       0.000003       0.000000
  18       0.000003       0.000004      -0.000000
  19       0.000002       0.000002       0.000000
  20       0.000001      -0.000000      -0.000000
  21      -0.000001      -0.000000      -0.000001
---------------------------------------------------
 Number of fixed atoms: 0
 Gradient time:  CPU 1275.61 s  wall 94.55 s
 ######################################################
 ######################################################
 # Starting finite difference calculation for IDERIV  #
 Finite diff step size:  1.88973e-03 a.u.
 ----------------------------------------------------------------
             Standard Nuclear Orientation (Angstroms)
    I     Atom           X                Y                Z
 ----------------------------------------------------------------
    1      C       0.6391980000     0.5123416232    -4.0586647825
    2      O       0.2212668836     1.3843063105    -4.8658846195
    3      O       1.2700423394    -0.5298799298    -4.3664933623
    4      C       0.3229114265     0.7725954613    -2.5700708610
    5      H      -0.7677171347     0.8234385484    -2.4879159378
    6      H       0.7007147713     1.7679059994    -2.3210138847
    7      C       0.8932718065    -0.2579578626    -1.6321983513
    8      H       1.9817546330    -0.2865321113    -1.6272830667
    9      H       0.4798647552    -1.2570943399    -1.7656600979
   10      C       0.5326525712     0.0155636409     0.1020296960
   11      C      -1.0195480600    -0.0775633749     0.1434638976
   12      H      -1.4890219698     0.7318856319    -0.4184782495
   13      H      -1.3152608767     0.0063822192     1.1944115106
   14      H      -1.3600612900    -1.0423009190    -0.2400765223
   15      O       1.1231090672    -1.0021914088     0.6976099532
   16      O       0.9925269336     1.2315213053     0.2485195574
   17      H       1.0761129082    -0.7725570247     2.4054629085
   18      O       1.0514041101    -0.6679491423     3.3898450945
   19      H       0.1880338572    -0.2326693310     3.5923686091
   20      O      -1.3083921039     0.5866075320     3.9940225971
   21      O      -1.0691283943     1.8413943303     3.6567128027
 ----------------------------------------------------------------
 Nuclear Repulsion Energy =   686.6691284997 hartrees
 There are       49 alpha and       49 beta electrons
 Discretize the solute cavity surface with Lebedev spheres
	Using 110 Lebedev grid points for each H atom
	Using 110 Lebedev grid points for other atoms
	Atomic van der Waals radii will be scaled by 1.20
 Remove points where switching function is < 1.0e-08
 Keep 1281 surface tesserae and discard 1029 interior tesserae
 Molecular Surface Area = 246.698 Angst**2
 Requested basis set is def2-TZVPD
 There are 208 shells and 546 basis functions
 A cutoff of  1.0D-14 yielded  18318 shell pairs
 There are    124198 function pairs (    157017 Cartesian)
 Smallest overlap matrix eigenvalue = 3.31E-06
 Guess MOs from SCF MO coefficient file
 Reading MOs from coefficient file
 Reading MOs from coefficient file
 Long-range K will be added via erf
 Coulomb attenuation parameter = 0.3 bohr**(-1)
 An unrestricted hybrid HF-DFT SCF calculation will be
 performed using Pulay DIIS + Geometric Direct Minimization
 Polarizable Continuum solvation model will be applied
 Exchange:     0.1670 Hartree-Fock + 1.0000 wB97X-V + LR-HF
 Correlation:  1.0000 wB97X-V
 Using SG-2 standard quadrature grid
 Nonlocal Correlation:  VV10 with C = 0.0100 and b = 6.00
 Grid used for NLC:  SG-1 standard quadrature
 SCF converges when RMS gradient is below 1.0E-08
Using Q-Chem read-in guess as SCF_GUESS READ specified.

 using 16 threads for integral computing
 -------------------------------------------------------
 OpenMP Integral computing Module                
 Release: version 1.0, May 2013, Q-Chem Inc. Pittsburgh 
 -------------------------------------------------------
 using 16 threads for integral computing
 -------------------------------------------------------
 OpenMP Integral computing Module                
 Release: version 1.0, May 2013, Q-Chem Inc. Pittsburgh 
 -------------------------------------------------------
 -------------------------------------------------------
 OpenMP BLAS3 based DFT computing Module                
 Release: version 1.0, May 2013, Q-Chem Inc. Pittsburgh 
 -------------------------------------------------------
 -------------------------------------------------------
 OpenMP BLAS3 based DFT computing Module                
 Release: version 1.0, May 2013, Q-Chem Inc. Pittsburgh 
 -------------------------------------------------------
 -------------------------------------------------------
 OpenMP BLAS3 based DFT computing Module                
 Release: version 1.0, May 2013, Q-Chem Inc. Pittsburgh 
 -------------------------------------------------------
 ---------------------------------------
  Cycle       Energy        RMS Gradient
 ---------------------------------------
    1    -722.2490928567      3.52E-04 Done DIIS. Switching to GDM
    2    -722.8239336145      2.46E-02 Normal BFGS step
    3    -722.8321217202      1.27E-02 Normal BFGS step
    4    -722.8350723320      7.34E-03 Normal BFGS step
    5    -722.8354602312      3.62E-03 Normal BFGS step
    6    -722.8355497672      2.50E-03 Normal BFGS step
    7    -722.8355726674      8.21E-04 Normal BFGS step
    8    -722.8355791402      6.63E-04 Normal BFGS step
    9    -722.8355812783      7.16E-04 Normal BFGS step
   10    -722.8355824347      2.73E-04 Normal BFGS step
   11    -722.8355829720      2.98E-04 Normal BFGS step
   12    -722.8355832418      1.07E-04 Normal BFGS step
   13    -722.8355833274      2.96E-05 Normal BFGS step
   14    -722.8355833449      2.06E-05 Normal BFGS step
   15    -722.8355833514      1.55E-05 Normal BFGS step
   16    -722.8355833528      1.21E-05 Normal BFGS step
   17    -722.8355833535      9.26E-06 Normal BFGS step
   18    -722.8355833538      9.03E-06 Normal BFGS step
   19    -722.8355833540      8.78E-06 Normal BFGS step
   20    -722.8355833545      8.08E-06 Normal BFGS step
   21    -722.8355833548      7.30E-06 Normal BFGS step
   22    -722.8355833555      1.11E-05 Normal BFGS step
   23    -722.8355833563      1.24E-05 Normal BFGS step
   24    -722.8355833569      1.01E-05 Normal BFGS step
   25    -722.8355833573      5.66E-06 Normal BFGS step
   26    -722.8355833574      2.76E-06 Normal BFGS step
   27    -722.8355833575      3.46E-06 Normal BFGS step
   28    -722.8355833575      8.66E-07 Normal BFGS step
   29    -722.8355833576      5.26E-07 Normal BFGS step
   30    -722.8355833576      2.95E-07 Normal BFGS step
   31    -722.8355833576      2.01E-07 Normal BFGS step
   32    -722.8355833576      1.36E-07 Normal BFGS step
   33    -722.8355833576      5.78E-08 Normal BFGS step
   GDM::WARNING energy changes are now smaller than effective accuracy.
   GDM::        calculation will continue, but THRESH should be increased
   GDM::        or SCF_CONVERGENCE decreased.
   GDM::        effective_thresh =   1.863622343251103E-009
   34    -722.8355833576      5.83E-08 Normal BFGS step
   35    -722.8355833576      6.84E-09 Convergence criterion met
 ---------------------------------------

************** Final PCM Free Energy Summary **************
 G_electrostatic  =      -0.58663372 hartree =    -368.11821557 kcal/mol
 G_cavitation     =       0.00000000 hartree =       0.00000000 kcal/mol
 G_dispersion     =       0.00000000 hartree =       0.00000000 kcal/mol
 G_repulsion      =       0.00000000 hartree =       0.00000000 kcal/mol
 --------------------------------------------------
 Non-electrostatic Free Energy =       0.00000000 hartree =       0.00000000 kcal/mol
 Total                         =      -0.58663372 hartree =    -368.11821557 kcal/mol
 --------------------------------------------------
 SCF Energy (H0 + V/2)                       =    -722.83558336 
 Solute Internal Energy (H0)                 =    -722.24894964 
 Total Free Energy (H0 + V/2 + non-elec)     =    -722.83558336 hartree
                                             = -453586.17453268 kcal/mol
***********************************************************

 <S^2> = 1.0150
 SCF time:  CPU 14650.02 s  wall 1071.27 s
 SCF   energy in the final basis set = -722.83558336
 Total energy in the final basis set = -722.83558336
 
 --------------------------------------------------------------
 
                    Orbital Energies (a.u.)
 --------------------------------------------------------------
 
 Alpha MOs
 -- Occupied --
-19.191 -19.189 -19.161 -19.150 -19.141 -19.138 -19.122 -10.342
-10.339 -10.274 -10.247 -10.241  -1.175  -1.144  -1.128  -1.080
 -1.050  -1.029  -0.889  -0.826  -0.803  -0.751  -0.622  -0.606
 -0.592  -0.569  -0.555  -0.534  -0.527  -0.512  -0.511  -0.491
 -0.488  -0.481  -0.471  -0.460  -0.448  -0.444  -0.429  -0.420
 -0.387  -0.362  -0.348  -0.347  -0.340  -0.332  -0.322  -0.285
 -0.259
 -- Virtual --
  0.054   0.062   0.073   0.080   0.085   0.092   0.096   0.103
  0.112   0.122   0.124   0.125   0.128   0.140   0.145   0.153
  0.155   0.162   0.167   0.170   0.174   0.176   0.188   0.193
  0.197   0.199   0.212   0.215   0.223   0.227   0.234   0.236
  0.240   0.248   0.258   0.262   0.273   0.277   0.281   0.286
  0.290   0.295   0.302   0.306   0.308   0.315   0.322   0.327
  0.328   0.332   0.335   0.349   0.352   0.363   0.368   0.370
  0.375   0.383   0.386   0.393   0.397   0.403   0.409   0.410
  0.415   0.419   0.425   0.429   0.432   0.436   0.438   0.445
  0.450   0.453   0.459   0.466   0.473   0.481   0.486   0.496
  0.499   0.502   0.505   0.508   0.512   0.515   0.526   0.529
  0.530   0.533   0.546   0.550   0.552   0.555   0.561   0.568
  0.573   0.577   0.579   0.587   0.589   0.598   0.601   0.604
  0.611   0.612   0.618   0.620   0.626   0.633   0.633   0.636
  0.645   0.651   0.657   0.667   0.673   0.676   0.683   0.687
  0.697   0.703   0.712   0.721   0.727   0.729   0.736   0.741
  0.747   0.754   0.761   0.769   0.777   0.779   0.785   0.799
  0.802   0.806   0.811   0.818   0.823   0.829   0.834   0.836
  0.843   0.848   0.853   0.860   0.864   0.868   0.870   0.878
  0.887   0.900   0.910   0.916   0.921   0.922   0.935   0.940
  0.947   0.959   0.962   0.965   0.966   0.974   0.997   1.004
  1.014   1.032   1.037   1.044   1.047   1.053   1.066   1.072
  1.083   1.091   1.096   1.108   1.117   1.130   1.157   1.161
  1.181   1.185   1.196   1.198   1.213   1.224   1.231   1.237
  1.250   1.258   1.265   1.271   1.300   1.315   1.328   1.352
  1.365   1.369   1.389   1.396   1.408   1.417   1.425   1.440
  1.448   1.464   1.486   1.490   1.512   1.525   1.559   1.570
  1.588   1.636   1.656   1.668   1.690   1.703   1.720   1.761
  1.781   1.794   1.800   1.833   1.850   1.856   1.879   1.907
  1.921   1.935   1.955   1.959   1.961   1.968   1.975   1.978
  2.001   2.009   2.019   2.028   2.031   2.042   2.049   2.070
  2.076   2.086   2.100   2.119   2.130   2.147   2.156   2.185
  2.201   2.222   2.238   2.247   2.252   2.267   2.283   2.293
  2.299   2.329   2.331   2.349   2.368   2.371   2.384   2.389
  2.420   2.425   2.438   2.452   2.475   2.479   2.498   2.504
  2.520   2.544   2.568   2.578   2.596   2.610   2.639   2.661
  2.684   2.694   2.720   2.724   2.750   2.764   2.783   2.796
  2.823   2.845   2.859   2.890   2.910   2.928   2.944   2.948
  2.951   2.966   2.985   3.011   3.015   3.031   3.050   3.066
  3.078   3.096   3.111   3.117   3.126   3.136   3.161   3.195
  3.207   3.219   3.250   3.258   3.277   3.290   3.304   3.311
  3.323   3.356   3.368   3.384   3.393   3.408   3.420   3.438
  3.454   3.463   3.496   3.500   3.521   3.538   3.543   3.548
  3.554   3.572   3.581   3.590   3.601   3.621   3.628   3.654
  3.665   3.677   3.689   3.701   3.714   3.718   3.739   3.747
  3.776   3.804   3.817   3.830   3.853   3.864   3.882   3.917
  3.932   3.965   3.994   4.009   4.122   4.131   4.145   4.183
  4.188   4.200   4.246   4.253   4.286   4.316   4.364   4.445
  4.451   4.599   4.606   4.623   4.626   4.687   4.752   4.763
  4.795   4.832   4.838   4.902   4.920   4.926   4.940   4.952
  4.987   5.103   5.128   5.157   5.159   5.249   5.252   5.266
  5.286   5.324   5.346   5.363   5.371   5.374   5.380   5.385
  5.403   5.403   5.413   5.447   5.505   5.510   5.569   5.622
  5.631   5.665   5.685   5.712   5.727   5.748   5.751   5.754
  5.780   5.894   6.010   6.183   6.223   6.241   6.250   6.316
  6.322   6.337   6.362   6.370   6.436   6.502   6.577   6.600
  6.620   6.628   6.633   6.635   6.666   6.683   6.697   6.699
  6.711   6.732   6.744   6.749   6.761   6.765   6.780   6.810
  6.853   6.905   6.958   6.969   7.052   7.103   7.147   7.199
  7.247   7.253   7.254   7.302   7.336   7.362   7.379   7.401
  7.410   7.414   7.495   7.517   8.655  22.760  22.878  22.920
 23.480  23.744  43.740  44.157  44.276  44.365  44.420  44.516
 44.607
 
 Beta MOs
 -- Occupied --
-19.203 -19.202 -19.160 -19.142 -19.141 -19.138 -19.119 -10.342
-10.339 -10.267 -10.247 -10.240  -1.204  -1.144  -1.116  -1.079
 -1.050  -1.016  -0.880  -0.848  -0.820  -0.737  -0.611  -0.603
 -0.588  -0.565  -0.545  -0.529  -0.520  -0.517  -0.510  -0.506
 -0.504  -0.487  -0.483  -0.468  -0.455  -0.449  -0.428  -0.425
 -0.387  -0.347  -0.341  -0.334  -0.327  -0.316  -0.313  -0.305
 -0.275
 -- Virtual --
 -0.013   0.062   0.074   0.080   0.086   0.092   0.096   0.103
  0.112   0.123   0.124   0.126   0.128   0.140   0.145   0.152
  0.153   0.162   0.167   0.170   0.174   0.176   0.187   0.193
  0.196   0.199   0.212   0.215   0.225   0.230   0.234   0.237
  0.241   0.249   0.258   0.266   0.272   0.277   0.281   0.284
  0.290   0.296   0.303   0.306   0.308   0.316   0.321   0.328
  0.329   0.335   0.336   0.349   0.352   0.364   0.369   0.370
  0.375   0.383   0.387   0.392   0.396   0.402   0.409   0.411
  0.415   0.420   0.425   0.429   0.432   0.436   0.439   0.449
  0.450   0.453   0.460   0.468   0.473   0.483   0.487   0.496
  0.499   0.503   0.505   0.508   0.514   0.516   0.525   0.528
  0.530   0.535   0.547   0.550   0.553   0.556   0.561   0.568
  0.573   0.578   0.579   0.587   0.588   0.596   0.601   0.604
  0.611   0.611   0.618   0.620   0.625   0.633   0.634   0.636
  0.645   0.651   0.657   0.667   0.673   0.675   0.683   0.687
  0.697   0.704   0.712   0.720   0.727   0.730   0.736   0.741
  0.748   0.754   0.762   0.770   0.778   0.781   0.785   0.800
  0.802   0.807   0.812   0.818   0.824   0.830   0.835   0.837
  0.845   0.849   0.854   0.861   0.865   0.868   0.871   0.878
  0.887   0.901   0.910   0.916   0.921   0.922   0.933   0.940
  0.947   0.958   0.962   0.965   0.966   0.973   0.996   1.004
  1.015   1.029   1.034   1.044   1.047   1.049   1.067   1.071
  1.083   1.092   1.098   1.109   1.116   1.130   1.158   1.159
  1.182   1.185   1.197   1.199   1.213   1.224   1.233   1.237
  1.250   1.259   1.265   1.271   1.304   1.318   1.328   1.355
  1.367   1.372   1.390   1.398   1.410   1.419   1.421   1.441
  1.449   1.466   1.488   1.494   1.513   1.529   1.561   1.571
  1.590   1.638   1.656   1.668   1.687   1.702   1.707   1.762
  1.781   1.788   1.800   1.833   1.840   1.853   1.869   1.909
  1.922   1.936   1.950   1.957   1.960   1.967   1.972   1.981
  2.006   2.012   2.019   2.030   2.032   2.037   2.049   2.063
  2.073   2.089   2.102   2.117   2.128   2.151   2.159   2.189
  2.205   2.226   2.239   2.251   2.256   2.270   2.285   2.292
  2.299   2.319   2.333   2.350   2.357   2.372   2.383   2.389
  2.422   2.427   2.439   2.455   2.477   2.480   2.499   2.506
  2.523   2.547   2.570   2.581   2.600   2.601   2.640   2.663
  2.685   2.695   2.721   2.727   2.751   2.767   2.786   2.798
  2.824   2.847   2.862   2.896   2.916   2.929   2.947   2.951
  2.954   2.969   2.986   3.010   3.016   3.030   3.044   3.057
  3.069   3.093   3.099   3.118   3.126   3.139   3.162   3.190
  3.202   3.218   3.230   3.252   3.280   3.296   3.300   3.313
  3.324   3.360   3.368   3.379   3.392   3.411   3.421   3.437
  3.460   3.467   3.499   3.501   3.528   3.539   3.545   3.548
  3.558   3.565   3.583   3.593   3.606   3.624   3.632   3.657
  3.668   3.682   3.693   3.704   3.717   3.722   3.742   3.751
  3.782   3.809   3.821   3.835   3.861   3.869   3.889   3.923
  3.937   3.971   3.999   4.011   4.125   4.132   4.146   4.186
  4.193   4.207   4.249   4.258   4.288   4.320   4.372   4.429
  4.455   4.606   4.609   4.626   4.634   4.691   4.755   4.765
  4.802   4.834   4.841   4.897   4.906   4.906   4.923   4.937
  4.992   5.107   5.133   5.142   5.163   5.219   5.253   5.259
  5.266   5.325   5.344   5.356   5.365   5.374   5.379   5.385
  5.390   5.410   5.421   5.454   5.505   5.520   5.569   5.631
  5.635   5.665   5.694   5.713   5.726   5.728   5.729   5.761
  5.780   5.900   6.011   6.184   6.236   6.249   6.253   6.316
  6.322   6.327   6.341   6.357   6.432   6.507   6.529   6.552
  6.619   6.626   6.630   6.635   6.639   6.649   6.665   6.697
  6.708   6.721   6.741   6.751   6.755   6.770   6.800   6.825
  6.834   6.918   6.959   6.970   7.053   7.117   7.156   7.205
  7.219   7.251   7.254   7.307   7.340   7.363   7.387   7.402
  7.413   7.418   7.488   7.512   8.641  22.761  22.882  22.924
 23.480  23.745  43.725  44.156  44.276  44.352  44.420  44.523
 44.613
 --------------------------------------------------------------
 
          Ground-State Mulliken Net Atomic Charges

     Atom                 Charge (a.u.)    Spin (a.u.)
  --------------------------------------------------------
      1 C                     0.017315       0.020288
      2 O                    -0.706292       0.008538
      3 O                    -0.689136      -0.000429
      4 C                    -0.171740       0.028560
      5 H                     0.180753       0.004839
      6 H                     0.212261       0.006092
      7 C                    -0.354031       0.354853
      8 H                     0.258509      -0.002130
      9 H                     0.254960       0.009292
     10 C                     0.895843      -0.088739
     11 C                    -0.839808       0.134538
     12 H                     0.263812      -0.005971
     13 H                     0.096138      -0.005832
     14 H                     0.223514      -0.004706
     15 O                    -0.908849       0.141235
     16 O                    -0.708000       0.391215
     17 H                     0.329034       0.006475
     18 O                    -0.705157       0.002055
     19 H                     0.298822      -0.000107
     20 O                    -0.494897      -0.475931
     21 O                    -0.453051      -0.524136
  --------------------------------------------------------
  Sum of atomic charges =    -3.000000
  Sum of spin   charges =    -0.000000

 -----------------------------------------------------------------
                    Cartesian Multipole Moments
 -----------------------------------------------------------------
    Charge (ESU x 10^10)
               -14.4096
    Dipole Moment (Debye)
         X      -7.2097      Y      -6.4522      Z      -1.5748
       Tot       9.8026
    Quadrupole Moments (Debye-Ang)
        XX    -101.5013     XY      10.7207     YY    -107.1330
        XZ      23.8060     YZ      -1.8328     ZZ    -278.2585
    Octopole Moments (Debye-Ang^2)
       XXX     -74.7239    XXY     -24.7093    XYY     -25.7328
       YYY     -97.8624    XXZ       0.2305    XYZ      20.2855
       YYZ      20.1576    XZZ     -65.3271    YZZ    -140.1164
       ZZZ     351.8566
    Hexadecapole Moments (Debye-Ang^3)
      XXXX    -587.3796   XXXY      87.9225   XXYY    -202.8918
      XYYY      92.2845   YYYY    -575.4922   XXXZ     346.2643
      XXYZ     -30.0989   XYYZ     138.4835   YYYZ      28.2699
      XXZZ   -1084.8382   XYZZ     182.7810   YYZZ   -1151.2564
      XZZZ     866.7324   YZZZ     199.8129   ZZZZ   -8420.7258
 -----------------------------------------------------------------
 Calculating analytic gradient of the SCF energy
 Gradient of SCF Energy
            1           2           3           4           5           6
    1   0.0042029   0.0182143  -0.0350578  -0.0500147   0.0670041  -0.0337845
    2  -0.0282766  -0.0378867   0.0582545   0.1034223   0.0055912  -0.0701515
    3  -0.0459597   0.0522632   0.0246712   0.0635996  -0.0012565  -0.0137234
            7           8           9          10          11          12
    1   0.0845701  -0.0981053   0.0417188   0.0981710  -0.1727182   0.0414080
    2  -0.1181589  -0.0093820   0.0816733   0.0348595   0.0292917  -0.0913676
    3   0.0079995  -0.0258687  -0.0023814  -0.0611118   0.0095775   0.0723633
           13          14          15          16          17          18
    1   0.0454039   0.0229297  -0.0107994  -0.0253124  -0.0248167  -0.0381723
    2  -0.0167699   0.0955799   0.0144856  -0.0477258   0.0059542   0.0309363
    3  -0.1437097   0.0470922  -0.0119097   0.0089157   0.1009211  -0.0454100
           19          20          21
    1   0.0675257  -0.0080030   0.0056360
    2  -0.0413299  -0.0455877   0.0465880
    3  -0.0347867   0.0144465  -0.0157319
 Max gradient component =       1.727E-01
 RMS gradient           =       5.736E-02
 Computing fast CPCM-ISWIG gradient
 Updating gradient with PCM contributions...
 -- total gradient after adding PCM contribution --
---------------------------------------------------
  Atom         X              Y              Z     
---------------------------------------------------
   1       0.000734      -0.000453      -0.000009
   2      -0.000227       0.000146      -0.000130
   3      -0.000337       0.000308       0.000106
   4      -0.000171      -0.000013       0.000019
   5      -0.000018       0.000014       0.000064
   6       0.000002      -0.000002      -0.000029
   7       0.000006      -0.000010      -0.000017
   8      -0.000002       0.000004      -0.000000
   9       0.000002       0.000002       0.000001
  10      -0.000000      -0.000003      -0.000004
  11      -0.000000      -0.000001       0.000002
  12      -0.000001      -0.000004       0.000001
  13       0.000002      -0.000002       0.000001
  14       0.000003      -0.000003       0.000001
  15       0.000002       0.000004      -0.000001
  16      -0.000002       0.000004      -0.000005
  17       0.000003       0.000003       0.000000
  18       0.000003       0.000004      -0.000000
  19       0.000002       0.000002       0.000000
  20       0.000001      -0.000000      -0.000000
  21      -0.000001      -0.000000      -0.000001
---------------------------------------------------
 Number of fixed atoms: 0
 Gradient time:  CPU 1268.77 s  wall 94.48 s
 ----------------------------------------------------------------
             Standard Nuclear Orientation (Angstroms)
    I     Atom           X                Y                Z
 ----------------------------------------------------------------
    1      C       0.6371980000     0.5123416232    -4.0586647825
    2      O       0.2212668836     1.3843063105    -4.8658846195
    3      O       1.2700423394    -0.5298799298    -4.3664933623
    4      C       0.3229114265     0.7725954613    -2.5700708610
    5      H      -0.7677171347     0.8234385484    -2.4879159378
    6      H       0.7007147713     1.7679059994    -2.3210138847
    7      C       0.8932718065    -0.2579578626    -1.6321983513
    8      H       1.9817546330    -0.2865321113    -1.6272830667
    9      H       0.4798647552    -1.2570943399    -1.7656600979
   10      C       0.5326525712     0.0155636409     0.1020296960
   11      C      -1.0195480600    -0.0775633749     0.1434638976
   12      H      -1.4890219698     0.7318856319    -0.4184782495
   13      H      -1.3152608767     0.0063822192     1.1944115106
   14      H      -1.3600612900    -1.0423009190    -0.2400765223
   15      O       1.1231090672    -1.0021914088     0.6976099532
   16      O       0.9925269336     1.2315213053     0.2485195574
   17      H       1.0761129082    -0.7725570247     2.4054629085
   18      O       1.0514041101    -0.6679491423     3.3898450945
   19      H       0.1880338572    -0.2326693310     3.5923686091
   20      O      -1.3083921039     0.5866075320     3.9940225971
   21      O      -1.0691283943     1.8413943303     3.6567128027
 ----------------------------------------------------------------
 Nuclear Repulsion Energy =   686.6678166669 hartrees
 There are       49 alpha and       49 beta electrons
 Discretize the solute cavity surface with Lebedev spheres
	Using 110 Lebedev grid points for each H atom
	Using 110 Lebedev grid points for other atoms
	Atomic van der Waals radii will be scaled by 1.20
 Remove points where switching function is < 1.0e-08
 Keep 1281 surface tesserae and discard 1029 interior tesserae
 Molecular Surface Area = 246.698 Angst**2
 Requested basis set is def2-TZVPD
 There are 208 shells and 546 basis functions
 A cutoff of  1.0D-14 yielded  18318 shell pairs
 There are    124198 function pairs (    157017 Cartesian)
 Smallest overlap matrix eigenvalue = 3.31E-06
 Guess MOs from SCF MO coefficient file
 Reading MOs from coefficient file
 Reading MOs from coefficient file
 Long-range K will be added via erf
 Coulomb attenuation parameter = 0.3 bohr**(-1)
 An unrestricted hybrid HF-DFT SCF calculation will be
 performed using Pulay DIIS + Geometric Direct Minimization
 Polarizable Continuum solvation model will be applied
 Exchange:     0.1670 Hartree-Fock + 1.0000 wB97X-V + LR-HF
 Correlation:  1.0000 wB97X-V
 Using SG-2 standard quadrature grid
 Nonlocal Correlation:  VV10 with C = 0.0100 and b = 6.00
 Grid used for NLC:  SG-1 standard quadrature
 SCF converges when RMS gradient is below 1.0E-08
Using Q-Chem read-in guess as SCF_GUESS READ specified.

 using 16 threads for integral computing
 -------------------------------------------------------
 OpenMP Integral computing Module                
 Release: version 1.0, May 2013, Q-Chem Inc. Pittsburgh 
 -------------------------------------------------------
 using 16 threads for integral computing
 -------------------------------------------------------
 OpenMP Integral computing Module                
 Release: version 1.0, May 2013, Q-Chem Inc. Pittsburgh 
 -------------------------------------------------------
 -------------------------------------------------------
 OpenMP BLAS3 based DFT computing Module                
 Release: version 1.0, May 2013, Q-Chem Inc. Pittsburgh 
 -------------------------------------------------------
 -------------------------------------------------------
 OpenMP BLAS3 based DFT computing Module                
 Release: version 1.0, May 2013, Q-Chem Inc. Pittsburgh 
 -------------------------------------------------------
 -------------------------------------------------------
 OpenMP BLAS3 based DFT computing Module                
 Release: version 1.0, May 2013, Q-Chem Inc. Pittsburgh 
 -------------------------------------------------------
 ---------------------------------------
  Cycle       Energy        RMS Gradient
 ---------------------------------------
    1    -722.2486540908      3.52E-04 Done DIIS. Switching to GDM
    2    -722.8239455269      2.46E-02 Normal BFGS step
    3    -722.8321360607      1.27E-02 Normal BFGS step
    4    -722.8350729126      7.37E-03 Normal BFGS step
    5    -722.8354605018      3.63E-03 Normal BFGS step
    6    -722.8355497988      2.51E-03 Normal BFGS step
    7    -722.8355727258      8.21E-04 Normal BFGS step
    8    -722.8355791682      6.57E-04 Normal BFGS step
    9    -722.8355812930      7.13E-04 Normal BFGS step
   10    -722.8355824357      2.70E-04 Normal BFGS step
   11    -722.8355829634      3.03E-04 Normal BFGS step
   12    -722.8355832333      1.06E-04 Normal BFGS step
   13    -722.8355833185      3.13E-05 Normal BFGS step
   14    -722.8355833362      1.92E-05 Normal BFGS step
   15    -722.8355833424      1.54E-05 Normal BFGS step
   16    -722.8355833438      1.16E-05 Normal BFGS step
   17    -722.8355833444      9.26E-06 Normal BFGS step
   18    -722.8355833447      9.03E-06 Normal BFGS step
   19    -722.8355833449      8.79E-06 Normal BFGS step
   20    -722.8355833454      8.07E-06 Normal BFGS step
   21    -722.8355833457      7.28E-06 Normal BFGS step
   22    -722.8355833464      1.12E-05 Normal BFGS step
   23    -722.8355833472      1.24E-05 Normal BFGS step
   24    -722.8355833479      9.99E-06 Normal BFGS step
   25    -722.8355833482      5.54E-06 Normal BFGS step
   26    -722.8355833483      2.66E-06 Normal BFGS step
   27    -722.8355833484      3.37E-06 Normal BFGS step
   28    -722.8355833484      8.35E-07 Normal BFGS step
   29    -722.8355833485      5.33E-07 Normal BFGS step
   30    -722.8355833485      2.92E-07 Normal BFGS step
   31    -722.8355833485      1.92E-07 Normal BFGS step
   32    -722.8355833485      1.32E-07 Normal BFGS step
   GDM::WARNING energy changes are now smaller than effective accuracy.
   GDM::        calculation will continue, but THRESH should be increased
   GDM::        or SCF_CONVERGENCE decreased.
   GDM::        effective_thresh =   1.391810229567358E-009
   33    -722.8355833485      5.48E-08 Normal BFGS step
   34    -722.8355833485      5.45E-08 Normal BFGS step
   GDM::WARNING energy changes are now smaller than effective accuracy.
   GDM::        calculation will continue, but THRESH should be increased
   GDM::        or SCF_CONVERGENCE decreased.
   GDM::        effective_thresh =   1.391810229567358E-009
   35    -722.8355833485      8.38E-09 Convergence criterion met
 ---------------------------------------

************** Final PCM Free Energy Summary **************
 G_electrostatic  =      -0.58664277 hartree =    -368.12389647 kcal/mol
 G_cavitation     =       0.00000000 hartree =       0.00000000 kcal/mol
 G_dispersion     =       0.00000000 hartree =       0.00000000 kcal/mol
 G_repulsion      =       0.00000000 hartree =       0.00000000 kcal/mol
 --------------------------------------------------
 Non-electrostatic Free Energy =       0.00000000 hartree =       0.00000000 kcal/mol
 Total                         =      -0.58664277 hartree =    -368.12389647 kcal/mol
 --------------------------------------------------
 SCF Energy (H0 + V/2)                       =    -722.83558335 
 Solute Internal Energy (H0)                 =    -722.24894057 
 Total Free Energy (H0 + V/2 + non-elec)     =    -722.83558335 hartree
                                             = -453586.17452697 kcal/mol
***********************************************************

 <S^2> = 1.0150
 SCF time:  CPU 14649.49 s  wall 1157.48 s
 SCF   energy in the final basis set = -722.83558335
 Total energy in the final basis set = -722.83558335
 
 --------------------------------------------------------------
 
                    Orbital Energies (a.u.)
 --------------------------------------------------------------
 
 Alpha MOs
 -- Occupied --
-19.191 -19.189 -19.161 -19.150 -19.141 -19.139 -19.122 -10.342
-10.339 -10.274 -10.247 -10.241  -1.175  -1.144  -1.128  -1.080
 -1.050  -1.029  -0.889  -0.826  -0.803  -0.752  -0.622  -0.606
 -0.592  -0.569  -0.555  -0.534  -0.527  -0.512  -0.511  -0.491
 -0.488  -0.481  -0.471  -0.460  -0.448  -0.444  -0.429  -0.420
 -0.387  -0.362  -0.348  -0.347  -0.340  -0.332  -0.322  -0.285
 -0.259
 -- Virtual --
  0.054   0.062   0.073   0.080   0.085   0.092   0.096   0.102
  0.112   0.122   0.124   0.125   0.128   0.140   0.145   0.153
  0.155   0.162   0.167   0.170   0.174   0.176   0.188   0.193
  0.197   0.199   0.212   0.215   0.223   0.227   0.234   0.236
  0.240   0.248   0.258   0.262   0.273   0.277   0.281   0.286
  0.290   0.295   0.302   0.306   0.308   0.315   0.322   0.327
  0.328   0.332   0.335   0.349   0.352   0.363   0.368   0.370
  0.375   0.383   0.386   0.393   0.397   0.403   0.409   0.410
  0.415   0.419   0.425   0.429   0.432   0.436   0.438   0.445
  0.450   0.453   0.459   0.466   0.473   0.481   0.486   0.496
  0.499   0.502   0.505   0.508   0.512   0.515   0.526   0.529
  0.530   0.533   0.546   0.550   0.552   0.555   0.561   0.568
  0.573   0.577   0.579   0.587   0.589   0.598   0.601   0.604
  0.611   0.612   0.618   0.620   0.626   0.633   0.633   0.636
  0.645   0.651   0.657   0.667   0.673   0.676   0.683   0.687
  0.697   0.703   0.712   0.721   0.727   0.729   0.736   0.741
  0.747   0.754   0.761   0.769   0.777   0.779   0.784   0.799
  0.802   0.806   0.811   0.818   0.823   0.829   0.834   0.836
  0.843   0.848   0.853   0.860   0.864   0.868   0.870   0.878
  0.887   0.900   0.910   0.916   0.921   0.922   0.935   0.940
  0.947   0.959   0.962   0.965   0.966   0.974   0.997   1.004
  1.014   1.032   1.037   1.044   1.047   1.053   1.066   1.072
  1.083   1.091   1.096   1.108   1.117   1.130   1.157   1.161
  1.181   1.185   1.196   1.198   1.213   1.224   1.231   1.237
  1.250   1.258   1.264   1.271   1.300   1.315   1.328   1.352
  1.365   1.369   1.389   1.396   1.408   1.417   1.425   1.440
  1.448   1.464   1.486   1.490   1.512   1.525   1.559   1.570
  1.588   1.636   1.656   1.667   1.690   1.703   1.720   1.761
  1.781   1.794   1.800   1.833   1.850   1.856   1.879   1.907
  1.921   1.936   1.955   1.959   1.961   1.968   1.975   1.978
  2.001   2.009   2.019   2.028   2.031   2.042   2.049   2.070
  2.076   2.085   2.100   2.119   2.130   2.147   2.156   2.185
  2.201   2.222   2.238   2.248   2.253   2.267   2.283   2.292
  2.299   2.329   2.331   2.349   2.368   2.371   2.384   2.389
  2.420   2.425   2.438   2.453   2.475   2.479   2.498   2.504
  2.520   2.545   2.568   2.577   2.596   2.610   2.639   2.661
  2.684   2.694   2.720   2.724   2.750   2.764   2.783   2.796
  2.823   2.846   2.859   2.890   2.910   2.927   2.944   2.948
  2.951   2.966   2.984   3.011   3.015   3.031   3.050   3.066
  3.078   3.097   3.111   3.117   3.126   3.136   3.160   3.195
  3.207   3.219   3.249   3.258   3.277   3.290   3.304   3.311
  3.323   3.356   3.368   3.384   3.393   3.408   3.420   3.438
  3.454   3.463   3.496   3.500   3.521   3.538   3.543   3.548
  3.554   3.572   3.581   3.590   3.601   3.621   3.628   3.654
  3.665   3.677   3.689   3.701   3.713   3.718   3.739   3.748
  3.776   3.804   3.817   3.830   3.853   3.864   3.882   3.917
  3.932   3.966   3.994   4.009   4.122   4.131   4.145   4.183
  4.188   4.200   4.247   4.253   4.286   4.316   4.365   4.445
  4.451   4.599   4.606   4.623   4.626   4.687   4.753   4.763
  4.795   4.832   4.838   4.902   4.920   4.926   4.940   4.952
  4.987   5.104   5.128   5.157   5.159   5.249   5.252   5.266
  5.286   5.324   5.346   5.363   5.371   5.374   5.380   5.385
  5.403   5.403   5.413   5.447   5.505   5.510   5.569   5.622
  5.631   5.665   5.685   5.712   5.727   5.748   5.751   5.754
  5.780   5.894   6.009   6.183   6.223   6.241   6.250   6.315
  6.322   6.337   6.362   6.370   6.436   6.502   6.577   6.600
  6.620   6.628   6.633   6.635   6.666   6.683   6.697   6.699
  6.711   6.732   6.744   6.749   6.761   6.765   6.780   6.810
  6.853   6.905   6.958   6.969   7.052   7.103   7.147   7.199
  7.247   7.253   7.254   7.302   7.336   7.362   7.379   7.400
  7.410   7.414   7.495   7.517   8.655  22.760  22.878  22.920
 23.480  23.743  43.740  44.157  44.276  44.365  44.420  44.516
 44.607
 
 Beta MOs
 -- Occupied --
-19.203 -19.202 -19.160 -19.142 -19.140 -19.138 -19.119 -10.342
-10.339 -10.267 -10.247 -10.240  -1.204  -1.144  -1.116  -1.079
 -1.049  -1.016  -0.880  -0.848  -0.820  -0.737  -0.611  -0.603
 -0.588  -0.565  -0.545  -0.529  -0.520  -0.517  -0.510  -0.506
 -0.504  -0.487  -0.483  -0.468  -0.455  -0.449  -0.428  -0.425
 -0.387  -0.347  -0.341  -0.334  -0.327  -0.316  -0.313  -0.305
 -0.275
 -- Virtual --
 -0.013   0.062   0.074   0.080   0.086   0.092   0.096   0.103
  0.112   0.123   0.124   0.126   0.128   0.140   0.145   0.152
  0.153   0.162   0.167   0.170   0.174   0.176   0.187   0.193
  0.196   0.199   0.212   0.215   0.225   0.230   0.234   0.237
  0.241   0.249   0.258   0.266   0.272   0.277   0.281   0.284
  0.290   0.296   0.303   0.306   0.308   0.316   0.321   0.328
  0.329   0.335   0.336   0.349   0.352   0.364   0.369   0.370
  0.375   0.383   0.387   0.392   0.396   0.402   0.409   0.411
  0.415   0.420   0.425   0.429   0.432   0.436   0.439   0.449
  0.450   0.453   0.460   0.468   0.473   0.483   0.487   0.496
  0.499   0.503   0.505   0.508   0.514   0.516   0.525   0.528
  0.530   0.535   0.547   0.550   0.553   0.556   0.561   0.568
  0.573   0.578   0.579   0.587   0.588   0.596   0.601   0.605
  0.611   0.611   0.618   0.620   0.625   0.633   0.634   0.636
  0.645   0.651   0.657   0.667   0.673   0.675   0.683   0.687
  0.697   0.704   0.712   0.720   0.727   0.730   0.736   0.741
  0.748   0.754   0.762   0.770   0.778   0.781   0.785   0.800
  0.802   0.807   0.812   0.818   0.824   0.830   0.835   0.837
  0.845   0.849   0.854   0.861   0.865   0.868   0.871   0.878
  0.887   0.901   0.910   0.916   0.921   0.922   0.933   0.940
  0.947   0.958   0.962   0.965   0.966   0.973   0.996   1.004
  1.015   1.029   1.034   1.044   1.047   1.049   1.067   1.071
  1.082   1.092   1.098   1.109   1.117   1.130   1.158   1.159
  1.182   1.185   1.197   1.199   1.213   1.224   1.233   1.237
  1.250   1.259   1.265   1.271   1.304   1.318   1.328   1.355
  1.367   1.371   1.390   1.398   1.410   1.419   1.421   1.441
  1.449   1.466   1.488   1.494   1.513   1.529   1.561   1.571
  1.590   1.638   1.656   1.668   1.687   1.702   1.707   1.762
  1.781   1.788   1.800   1.833   1.840   1.853   1.869   1.909
  1.922   1.936   1.950   1.957   1.960   1.967   1.973   1.981
  2.006   2.012   2.019   2.030   2.032   2.037   2.049   2.063
  2.073   2.089   2.102   2.117   2.127   2.151   2.159   2.189
  2.205   2.226   2.239   2.251   2.256   2.270   2.285   2.292
  2.299   2.319   2.333   2.350   2.357   2.372   2.383   2.389
  2.422   2.427   2.439   2.455   2.477   2.480   2.499   2.506
  2.523   2.547   2.570   2.581   2.600   2.601   2.640   2.663
  2.685   2.695   2.721   2.727   2.751   2.767   2.786   2.798
  2.824   2.847   2.862   2.896   2.916   2.929   2.947   2.951
  2.954   2.969   2.986   3.010   3.016   3.030   3.044   3.057
  3.069   3.093   3.099   3.118   3.126   3.139   3.162   3.190
  3.202   3.218   3.230   3.251   3.280   3.296   3.299   3.313
  3.324   3.360   3.368   3.379   3.392   3.411   3.421   3.437
  3.460   3.467   3.499   3.501   3.528   3.539   3.545   3.548
  3.558   3.565   3.583   3.593   3.606   3.624   3.632   3.657
  3.667   3.681   3.693   3.704   3.717   3.722   3.742   3.751
  3.782   3.809   3.821   3.835   3.861   3.869   3.889   3.923
  3.937   3.971   3.999   4.011   4.125   4.132   4.146   4.186
  4.193   4.207   4.250   4.258   4.288   4.320   4.372   4.429
  4.455   4.606   4.609   4.627   4.634   4.691   4.755   4.765
  4.802   4.834   4.841   4.897   4.906   4.906   4.923   4.937
  4.992   5.107   5.133   5.142   5.163   5.219   5.253   5.259
  5.266   5.325   5.344   5.356   5.364   5.374   5.379   5.385
  5.390   5.410   5.421   5.454   5.505   5.520   5.569   5.631
  5.635   5.665   5.694   5.713   5.726   5.728   5.729   5.761
  5.780   5.900   6.010   6.184   6.236   6.248   6.253   6.315
  6.322   6.327   6.341   6.357   6.432   6.507   6.529   6.552
  6.619   6.626   6.630   6.635   6.639   6.649   6.665   6.698
  6.708   6.721   6.741   6.751   6.755   6.770   6.800   6.825
  6.834   6.918   6.959   6.970   7.053   7.117   7.156   7.205
  7.219   7.251   7.255   7.307   7.340   7.363   7.387   7.402
  7.413   7.418   7.488   7.512   8.641  22.761  22.882  22.924
 23.480  23.744  43.725  44.156  44.276  44.352  44.420  44.523
 44.613
 --------------------------------------------------------------
 
          Ground-State Mulliken Net Atomic Charges

     Atom                 Charge (a.u.)    Spin (a.u.)
  --------------------------------------------------------
      1 C                     0.016384       0.020280
      2 O                    -0.705453       0.008522
      3 O                    -0.690340      -0.000412
      4 C                    -0.170721       0.028606
      5 H                     0.180125       0.004863
      6 H                     0.212620       0.006082
      7 C                    -0.353452       0.354751
      8 H                     0.258615      -0.002115
      9 H                     0.254765       0.009266
     10 C                     0.895844      -0.088700
     11 C                    -0.839780       0.134524
     12 H                     0.263803      -0.005965
     13 H                     0.096136      -0.005838
     14 H                     0.223527      -0.004706
     15 O                    -0.908858       0.141190
     16 O                    -0.707963       0.391300
     17 H                     0.329033       0.006473
     18 O                    -0.705158       0.002053
     19 H                     0.298821      -0.000107
     20 O                    -0.494897      -0.475931
     21 O                    -0.453051      -0.524136
  --------------------------------------------------------
  Sum of atomic charges =    -3.000000
  Sum of spin   charges =     0.000000

 -----------------------------------------------------------------
                    Cartesian Multipole Moments
 -----------------------------------------------------------------
    Charge (ESU x 10^10)
               -14.4096
    Dipole Moment (Debye)
         X      -7.2185      Y      -6.4406      Z      -1.5745
       Tot       9.8013
    Quadrupole Moments (Debye-Ang)
        XX    -101.5150     XY      10.7267     YY    -107.1235
        XZ      23.8460     YZ      -1.8845     ZZ    -278.2504
    Octopole Moments (Debye-Ang^2)
       XXX     -74.7235    XXY     -24.7004    XYY     -25.7196
       YYY     -97.8127    XXZ       0.2909    XYZ      20.2610
       YYZ      20.1168    XZZ     -65.4910    YZZ    -139.8618
       ZZZ     351.7667
    Hexadecapole Moments (Debye-Ang^3)
      XXXX    -587.3643   XXXY      87.9514   XXYY    -202.8758
      XYYY      92.3360   YYYY    -575.4170   XXXZ     346.2752
      XXYZ     -30.1389   XYYZ     138.4312   YYYZ      28.0500
      XXZZ   -1085.0822   XYZZ     182.9128   YYZZ   -1151.0412
      XZZZ     867.3743   YZZZ     198.5153   ZZZZ   -8419.9826
 -----------------------------------------------------------------
 Calculating analytic gradient of the SCF energy
 Gradient of SCF Energy
            1           2           3           4           5           6
    1   0.0033880   0.0184064  -0.0345545  -0.0499717   0.0670281  -0.0337941
    2  -0.0268104  -0.0383642   0.0573641   0.1032732   0.0055673  -0.0700716
    3  -0.0459756   0.0526672   0.0243945   0.0634324  -0.0013311  -0.0136717
            7           8           9          10          11          12
    1   0.0846190  -0.0980937   0.0417391   0.0981323  -0.1727108   0.0414058
    2  -0.1181191  -0.0094028   0.0816483   0.0348726   0.0292920  -0.0913723
    3   0.0080131  -0.0258139  -0.0023607  -0.0611224   0.0095599   0.0723645
           13          14          15          16          17          18
    1   0.0454070   0.0229310  -0.0107939  -0.0253087  -0.0248165  -0.0381709
    2  -0.0167749   0.0955813   0.0144849  -0.0477304   0.0059568   0.0309350
    3  -0.1436968   0.0470954  -0.0119095   0.0089160   0.1009202  -0.0454095
           19          20          21
    1   0.0675248  -0.0080027   0.0056360
    2  -0.0413292  -0.0455874   0.0465869
    3  -0.0347875   0.0144464  -0.0157309
 Max gradient component =       1.727E-01
 RMS gradient           =       5.732E-02
 Computing fast CPCM-ISWIG gradient
 Updating gradient with PCM contributions...
 -- total gradient after adding PCM contribution --
---------------------------------------------------
  Atom         X              Y              Z     
---------------------------------------------------
   1      -0.000738       0.000450       0.000007
   2       0.000219      -0.000151       0.000129
   3       0.000336      -0.000307      -0.000106
   4       0.000167       0.000012      -0.000019
   5       0.000014      -0.000020      -0.000064
   6      -0.000010       0.000002       0.000027
   7      -0.000006       0.000013       0.000020
   8       0.000002       0.000002      -0.000001
   9       0.000002      -0.000002      -0.000000
  10       0.000004       0.000007       0.000001
  11       0.000001      -0.000003      -0.000000
  12      -0.000001      -0.000003       0.000000
  13       0.000001      -0.000002       0.000001
  14       0.000002      -0.000003       0.000001
  15       0.000002       0.000000       0.000000
  16      -0.000003      -0.000003       0.000003
  17       0.000003       0.000003       0.000000
  18       0.000003       0.000004      -0.000000
  19       0.000002       0.000002       0.000000
  20       0.000001      -0.000000      -0.000000
  21      -0.000001      -0.000000      -0.000001
---------------------------------------------------
 Number of fixed atoms: 0
 Gradient time:  CPU 1264.68 s  wall 93.83 s
 ----------------------------------------------------------------
             Standard Nuclear Orientation (Angstroms)
    I     Atom           X                Y                Z
 ----------------------------------------------------------------
    1      C       0.6381980000     0.5133416232    -4.0586647825
    2      O       0.2212668836     1.3843063105    -4.8658846195
    3      O       1.2700423394    -0.5298799298    -4.3664933623
    4      C       0.3229114265     0.7725954613    -2.5700708610
    5      H      -0.7677171347     0.8234385484    -2.4879159378
    6      H       0.7007147713     1.7679059994    -2.3210138847
    7      C       0.8932718065    -0.2579578626    -1.6321983513
    8      H       1.9817546330    -0.2865321113    -1.6272830667
    9      H       0.4798647552    -1.2570943399    -1.7656600979
   10      C       0.5326525712     0.0155636409     0.1020296960
   11      C      -1.0195480600    -0.0775633749     0.1434638976
   12      H      -1.4890219698     0.7318856319    -0.4184782495
   13      H      -1.3152608767     0.0063822192     1.1944115106
   14      H      -1.3600612900    -1.0423009190    -0.2400765223
   15      O       1.1231090672    -1.0021914088     0.6976099532
   16      O       0.9925269336     1.2315213053     0.2485195574
   17      H       1.0761129082    -0.7725570247     2.4054629085
   18      O       1.0514041101    -0.6679491423     3.3898450945
   19      H       0.1880338572    -0.2326693310     3.5923686091
   20      O      -1.3083921039     0.5866075320     3.9940225971
   21      O      -1.0691283943     1.8413943303     3.6567128027
 ----------------------------------------------------------------
 Nuclear Repulsion Energy =   686.6664887947 hartrees
 There are       49 alpha and       49 beta electrons
 Discretize the solute cavity surface with Lebedev spheres
	Using 110 Lebedev grid points for each H atom
	Using 110 Lebedev grid points for other atoms
	Atomic van der Waals radii will be scaled by 1.20
 Remove points where switching function is < 1.0e-08
 Keep 1281 surface tesserae and discard 1029 interior tesserae
 Molecular Surface Area = 246.697 Angst**2
 Requested basis set is def2-TZVPD
 There are 208 shells and 546 basis functions
 A cutoff of  1.0D-14 yielded  18318 shell pairs
 There are    124198 function pairs (    157017 Cartesian)
 Smallest overlap matrix eigenvalue = 3.31E-06
 Guess MOs from SCF MO coefficient file
 Reading MOs from coefficient file
 Reading MOs from coefficient file
 Long-range K will be added via erf
 Coulomb attenuation parameter = 0.3 bohr**(-1)
 An unrestricted hybrid HF-DFT SCF calculation will be
 performed using Pulay DIIS + Geometric Direct Minimization
 Polarizable Continuum solvation model will be applied
 Exchange:     0.1670 Hartree-Fock + 1.0000 wB97X-V + LR-HF
 Correlation:  1.0000 wB97X-V
 Using SG-2 standard quadrature grid
 Nonlocal Correlation:  VV10 with C = 0.0100 and b = 6.00
 Grid used for NLC:  SG-1 standard quadrature
 SCF converges when RMS gradient is below 1.0E-08
Using Q-Chem read-in guess as SCF_GUESS READ specified.

 using 16 threads for integral computing
 -------------------------------------------------------
 OpenMP Integral computing Module                
 Release: version 1.0, May 2013, Q-Chem Inc. Pittsburgh 
 -------------------------------------------------------
 using 16 threads for integral computing
 -------------------------------------------------------
 OpenMP Integral computing Module                
 Release: version 1.0, May 2013, Q-Chem Inc. Pittsburgh 
 -------------------------------------------------------
 -------------------------------------------------------
 OpenMP BLAS3 based DFT computing Module                
 Release: version 1.0, May 2013, Q-Chem Inc. Pittsburgh 
 -------------------------------------------------------
 -------------------------------------------------------
 OpenMP BLAS3 based DFT computing Module                
 Release: version 1.0, May 2013, Q-Chem Inc. Pittsburgh 
 -------------------------------------------------------
 -------------------------------------------------------
 OpenMP BLAS3 based DFT computing Module                
[...]
 O         -0.006  0.006 -0.004   -0.002 -0.011  0.014   -0.180  0.209 -0.136
 O         -0.008 -0.015 -0.002   -0.008 -0.006  0.004   -0.159 -0.269 -0.066
 H         -0.001 -0.003 -0.000   -0.001 -0.009 -0.003   -0.034 -0.037  0.042
 O          0.000  0.000  0.000    0.000  0.000  0.002    0.003  0.001 -0.008
 H         -0.001  0.000 -0.003   -0.002  0.001 -0.012   -0.003  0.003 -0.008
 O          0.000 -0.000  0.000    0.000 -0.000 -0.000   -0.001  0.000  0.000
 O          0.000 -0.000  0.000    0.000 -0.000 -0.000   -0.000 -0.000 -0.000
 TransDip  -0.024  0.031 -0.022   -0.003  0.180 -0.230    0.353 -0.238  0.294

 Mode:                37                     38                     39
 Frequency:      1283.04                1285.39                1306.03
 Force Cnst:     15.5054                 1.1967                 1.5704
 Red. Mass:      15.9864                 1.2293                 1.5626
 IR Active:          YES                    YES                    YES
 IR Intens:        0.948                 21.381                 34.119
 Raman Active:       YES                    YES                    YES
               X      Y      Z        X      Y      Z        X      Y      Z
 C         -0.000 -0.000 -0.000   -0.037 -0.015 -0.009    0.013  0.026 -0.025
 O          0.000  0.000  0.000    0.009 -0.007  0.013    0.012 -0.035  0.041
 O          0.000  0.000  0.000    0.004  0.003 -0.000   -0.005  0.002 -0.002
 C         -0.000 -0.000  0.000   -0.051 -0.019 -0.060    0.006  0.055 -0.167
 H         -0.001  0.003 -0.005   -0.063  0.264 -0.333    0.070 -0.123  0.810
 H          0.001 -0.002  0.005    0.101 -0.257  0.673   -0.138 -0.013  0.352
 C          0.001  0.000  0.000    0.071  0.048  0.029   -0.039 -0.015  0.058
 H          0.001 -0.003  0.002    0.064 -0.279  0.205   -0.026 -0.060 -0.231
 H         -0.001  0.002 -0.004   -0.124  0.167 -0.310    0.217 -0.121 -0.050
 C         -0.000  0.001  0.000    0.023 -0.035  0.023    0.013 -0.061  0.045
 C         -0.000 -0.000 -0.000   -0.010  0.008 -0.002    0.010  0.006 -0.014
 H          0.002  0.000 -0.002   -0.015 -0.003 -0.010   -0.069  0.003  0.049
 H         -0.001 -0.003  0.001    0.035 -0.032  0.014   -0.028  0.008 -0.023
 H         -0.000 -0.000 -0.000    0.023 -0.010  0.013   -0.005 -0.011  0.040
 O          0.000 -0.000 -0.000   -0.011  0.018 -0.012   -0.016  0.029 -0.022
 O          0.000 -0.000  0.000   -0.001  0.006 -0.002    0.004  0.015  0.001
 H          0.006 -0.004 -0.003   -0.001  0.001  0.005   -0.001  0.003  0.007
 O          0.007 -0.003 -0.002    0.000 -0.000 -0.001    0.000 -0.000 -0.001
 H         -0.004  0.020  0.001   -0.000  0.000  0.000   -0.001 -0.000  0.000
 O          0.120  0.674 -0.178   -0.000 -0.000  0.000   -0.000  0.000 -0.000
 O         -0.126 -0.671  0.180    0.000  0.000 -0.000   -0.000 -0.000  0.000
 TransDip  -0.006 -0.030  0.008    0.025 -0.075  0.125   -0.030 -0.028  0.183

 Mode:                40                     41                     42
 Frequency:      1338.55                1365.42                1413.43
 Force Cnst:      5.1238                 1.4170                10.1182
 Red. Mass:       4.8537                 1.2900                 8.5962
 IR Active:          YES                    YES                    YES
 IR Intens:      464.051                 39.694                534.855
 Raman Active:       YES                    YES                    YES
               X      Y      Z        X      Y      Z        X      Y      Z
 C          0.002  0.002 -0.048    0.002  0.003  0.006   -0.109  0.082  0.593
 O          0.013 -0.028  0.032   -0.001  0.002 -0.002   -0.091  0.201 -0.235
 O         -0.012  0.020  0.008    0.002 -0.004 -0.002    0.161 -0.258 -0.125
 C         -0.007  0.004 -0.078   -0.000  0.004  0.003    0.044 -0.045 -0.156
 H          0.016  0.012  0.236    0.003 -0.015  0.047    0.087  0.319  0.231
 H         -0.013 -0.080  0.298   -0.006  0.016 -0.037   -0.366  0.036  0.168
 C          0.008  0.020  0.064   -0.002 -0.001 -0.014   -0.001 -0.003 -0.002
 H          0.012 -0.063 -0.173   -0.003 -0.008  0.030   -0.006  0.109 -0.001
 H          0.025  0.053 -0.214    0.016 -0.021  0.071   -0.087  0.044 -0.026
 C         -0.014  0.467 -0.080   -0.003 -0.064  0.016   -0.002  0.046 -0.004
 C         -0.062 -0.083  0.027   -0.138 -0.001  0.004    0.005 -0.020  0.001
 H          0.390  0.183  0.017    0.475  0.212 -0.163   -0.023  0.040  0.098
 H          0.204  0.359  0.056    0.535  0.043  0.177   -0.040  0.146 -0.026
 H          0.138 -0.016 -0.247    0.550 -0.181 -0.114    0.024  0.004 -0.058
 O          0.068 -0.136  0.077   -0.005  0.014 -0.010    0.007 -0.015  0.009
 O         -0.061 -0.193 -0.032    0.012  0.030  0.002   -0.005 -0.018  0.002
 H          0.014 -0.013 -0.035   -0.001 -0.000  0.004    0.003  0.000 -0.002
 O         -0.002  0.002  0.005    0.000 -0.000 -0.001   -0.000  0.000  0.000
 H          0.008 -0.000  0.026    0.000  0.000  0.002    0.001  0.000  0.003
 O          0.001 -0.001 -0.000   -0.000  0.000  0.000    0.000 -0.000 -0.000
 O         -0.000  0.000  0.000   -0.000  0.000  0.000   -0.000 -0.000  0.000
 TransDip  -0.046  0.608 -0.322    0.071 -0.158  0.103   -0.121  0.156  0.714

 Mode:                43                     44                     45
 Frequency:      1456.17                1463.24                1468.87
 Force Cnst:      1.4288                 1.4281                 1.3773
 Red. Mass:       1.1437                 1.1321                 1.0835
 IR Active:          YES                    YES                    YES
 IR Intens:       29.528                  1.400                  2.148
 Raman Active:       YES                    YES                    YES
               X      Y      Z        X      Y      Z        X      Y      Z
 C          0.001  0.009 -0.047   -0.002  0.007 -0.005    0.001 -0.003  0.007
 O          0.009 -0.018  0.020    0.002 -0.005  0.007   -0.002  0.004 -0.005
 O         -0.007  0.010  0.006    0.000 -0.001 -0.000    0.001 -0.001 -0.001
 C          0.048 -0.076  0.017   -0.009  0.020 -0.034    0.005 -0.012  0.017
 H          0.073  0.675  0.097   -0.006 -0.099  0.058    0.005  0.064 -0.022
 H         -0.662  0.211  0.014    0.082 -0.035  0.047   -0.054  0.020 -0.020
 C          0.006 -0.009 -0.015    0.044 -0.072  0.035   -0.023  0.040 -0.020
 H          0.005  0.114  0.014    0.049  0.584 -0.052   -0.026 -0.316  0.031
 H         -0.107  0.040  0.011   -0.545  0.198 -0.079    0.294 -0.104  0.041
 C         -0.002 -0.002 -0.004   -0.001  0.009 -0.010    0.003  0.027 -0.014
 C         -0.001  0.005  0.004   -0.008  0.022 -0.020   -0.007  0.018 -0.047
 H          0.011 -0.033 -0.057    0.181  0.112 -0.027    0.252  0.305  0.174
 H          0.023 -0.047  0.014   -0.085 -0.307 -0.010   -0.249 -0.342 -0.073
 H         -0.026  0.016 -0.006   -0.013 -0.123  0.337    0.055 -0.255  0.587
 O          0.001 -0.001  0.001    0.001 -0.001  0.001    0.002 -0.006  0.005
 O          0.001  0.003  0.001   -0.000 -0.002  0.000   -0.003 -0.010 -0.000
 H         -0.000  0.000 -0.000   -0.001 -0.001 -0.001   -0.002 -0.001 -0.003
 O          0.000 -0.000  0.000    0.000  0.000  0.000    0.000  0.000  0.001
 H         -0.000  0.000 -0.001   -0.000 -0.000 -0.001   -0.001 -0.000 -0.003
 O          0.000 -0.000  0.000   -0.000 -0.000 -0.000    0.000 -0.000 -0.000
 O          0.000  0.000 -0.000    0.000  0.000 -0.000   -0.000  0.000 -0.000
 TransDip  -0.085  0.133 -0.073   -0.029  0.001  0.025    0.006  0.029  0.036

 Mode:                46                     47                     48
 Frequency:      1477.85                1588.22                1637.47
 Force Cnst:      1.3718                15.4148                 1.6844
 Red. Mass:       1.0660                10.3721                 1.0662
 IR Active:          YES                    YES                    YES
 IR Intens:        3.571               1302.494                 94.697
 Raman Active:       YES                    YES                    YES
               X      Y      Z        X      Y      Z        X      Y      Z
 C          0.001 -0.003 -0.015   -0.370  0.668 -0.146   -0.000  0.000 -0.000
 O          0.002 -0.004  0.006    0.100 -0.203  0.170    0.000 -0.000  0.000
 O         -0.004  0.006  0.003    0.158 -0.262 -0.065    0.000 -0.000  0.000
 C          0.002 -0.002  0.005    0.020 -0.044  0.046    0.000 -0.000  0.000
 H         -0.002  0.041 -0.048   -0.018 -0.135 -0.282    0.000  0.000 -0.001
 H         -0.028  0.012 -0.002    0.182 -0.017 -0.268   -0.000  0.000 -0.001
 C          0.011 -0.016  0.000   -0.011  0.015  0.010    0.000  0.000 -0.001
 H          0.012  0.123  0.008   -0.020 -0.057 -0.021   -0.000  0.001  0.003
 H         -0.119  0.040 -0.004    0.066 -0.006 -0.021   -0.002  0.001  0.005
 C          0.003 -0.032 -0.003    0.003  0.001  0.002   -0.001 -0.003 -0.002
 C          0.003 -0.048 -0.029    0.001 -0.002 -0.001    0.001  0.000 -0.000
 H         -0.132  0.316  0.587   -0.011  0.006  0.018   -0.002  0.003  0.006
 H         -0.246  0.541 -0.135   -0.007  0.012 -0.004   -0.007  0.002 -0.004
 H          0.322 -0.144 -0.027   -0.001 -0.001  0.001    0.003 -0.002  0.003
 O         -0.003  0.008 -0.003   -0.000  0.000 -0.001   -0.004  0.004  0.000
 O          0.002  0.008  0.002   -0.001 -0.002 -0.000    0.000  0.000  0.000
 H         -0.005  0.004  0.002   -0.003  0.002 -0.001    0.646 -0.334  0.049
 O          0.001 -0.000  0.000    0.000 -0.000  0.000   -0.044  0.018 -0.040
 H         -0.002 -0.000 -0.009   -0.001  0.000 -0.003    0.138 -0.022  0.667
 O          0.000  0.000 -0.000    0.000 -0.000  0.000   -0.001  0.000 -0.004
 O         -0.000 -0.000  0.000    0.000 -0.000  0.000   -0.000  0.001  0.000
 TransDip  -0.012  0.033  0.049   -0.531  0.989 -0.276    0.195 -0.095  0.224

 Mode:                49                     50                     51
 Frequency:      3053.18                3076.99                3113.73
 Force Cnst:      5.6804                 5.9226                 6.0355
 Red. Mass:       1.0343                 1.0617                 1.0566
 IR Active:          YES                    YES                    YES
 IR Intens:       33.117                 24.898                 40.056
 Raman Active:       YES                    YES                    YES
               X      Y      Z        X      Y      Z        X      Y      Z
 C         -0.000  0.000 -0.000   -0.001  0.001 -0.001    0.001 -0.001 -0.001
 O          0.000  0.000 -0.000    0.000 -0.000  0.000   -0.000  0.000  0.000
 O          0.000 -0.000 -0.000    0.000 -0.000  0.000   -0.000  0.000 -0.000
 C         -0.006  0.003  0.001   -0.051  0.045  0.015    0.006  0.006 -0.001
 H          0.085 -0.003 -0.005    0.815 -0.026 -0.062   -0.062  0.003  0.007
 H         -0.013 -0.030 -0.007   -0.208 -0.506 -0.123   -0.020 -0.054 -0.013
 C          0.000 -0.001  0.000    0.002 -0.001  0.001    0.030 -0.058 -0.004
 H         -0.012 -0.001 -0.001   -0.025  0.001  0.000   -0.646  0.001 -0.015
 H          0.006  0.012 -0.000    0.001  0.003 -0.000    0.300  0.684  0.081
 C         -0.001  0.000 -0.001    0.000  0.000  0.000    0.000 -0.001 -0.001
 C          0.046  0.006 -0.016   -0.003 -0.005  0.005   -0.001  0.006  0.003
 H         -0.197  0.366 -0.259   -0.002  0.002  0.001    0.016 -0.028  0.021
 H         -0.168  0.053  0.642    0.022 -0.008 -0.077    0.009 -0.001 -0.034
 H         -0.159 -0.491 -0.199    0.021  0.062  0.026   -0.014 -0.045 -0.018
 O          0.000 -0.000  0.000   -0.000  0.000 -0.000   -0.000  0.000  0.001
 O          0.000 -0.000  0.000   -0.000 -0.000  0.000    0.000  0.000 -0.000
 H          0.000  0.000  0.003   -0.000 -0.000 -0.001   -0.001  0.002  0.016
 O         -0.000 -0.000 -0.000   -0.000  0.000  0.000    0.000 -0.000 -0.001
 H          0.000  0.000  0.001    0.000 -0.000 -0.000   -0.001  0.000 -0.000
 O          0.000 -0.000 -0.000   -0.000  0.000  0.000   -0.000  0.000  0.000
 O          0.000  0.000 -0.000    0.000 -0.000  0.000    0.000  0.000 -0.000
 TransDip   0.174  0.048 -0.036   -0.126  0.078 -0.059    0.088 -0.182  0.018

 Mode:                52                     53                     54
 Frequency:      3122.62                3131.88                3152.29
 Force Cnst:      6.3199                 6.3685                 6.4650
 Red. Mass:       1.1001                 1.1020                 1.1043
 IR Active:          YES                    YES                    YES
 IR Intens:       16.981                 39.871                 44.460
 Raman Active:       YES                    YES                    YES
               X      Y      Z        X      Y      Z        X      Y      Z
 C         -0.001 -0.001  0.000   -0.000 -0.000  0.000    0.000 -0.000 -0.000
 O          0.000  0.000  0.000    0.000  0.000 -0.000   -0.000 -0.000  0.000
 O         -0.000  0.000 -0.000   -0.000  0.000 -0.000   -0.000  0.000  0.000
 C         -0.067 -0.059 -0.012   -0.007 -0.004 -0.001    0.010  0.004  0.001
 H          0.530 -0.033 -0.048    0.059 -0.004 -0.005   -0.108  0.006  0.010
 H          0.277  0.741  0.188    0.021  0.057  0.014   -0.020 -0.058 -0.015
 C          0.013  0.001  0.000    0.006 -0.001  0.000    0.002 -0.003 -0.000
 H         -0.160  0.003  0.000   -0.070  0.002 -0.001   -0.036  0.001 -0.001
 H         -0.006 -0.020 -0.005    0.005  0.012  0.003    0.012  0.028  0.004
 C         -0.000 -0.000  0.000    0.001 -0.001 -0.001   -0.000 -0.002  0.001
 C          0.001 -0.007  0.012   -0.011 -0.032 -0.086    0.012 -0.088  0.029
 H         -0.044  0.078 -0.052    0.122 -0.226  0.140   -0.342  0.602 -0.428
 H          0.027 -0.009 -0.093   -0.194  0.051  0.684    0.037 -0.026 -0.123
 H          0.004  0.010  0.006    0.188  0.554  0.208    0.167  0.475  0.200
 O         -0.000  0.000 -0.000   -0.000  0.000  0.000    0.000  0.000 -0.000
 O         -0.000  0.000 -0.000   -0.000  0.000  0.000   -0.000  0.000  0.000
 H         -0.000  0.000 -0.000    0.001 -0.002 -0.011   -0.001  0.001  0.008
 O          0.000  0.000  0.000   -0.000  0.000  0.001    0.000 -0.000 -0.001
 H         -0.000  0.000 -0.000    0.001 -0.001  0.001   -0.000  0.000 -0.000
 O         -0.000  0.000  0.000    0.000 -0.000 -0.000   -0.000  0.000  0.000
 O         -0.000  0.000  0.000    0.000  0.000 -0.000   -0.000 -0.000  0.000
 TransDip  -0.068 -0.109  0.032   -0.057 -0.074 -0.179    0.064 -0.186  0.083

 Mode:                55                     56                     57
 Frequency:      3191.23                3269.67                3325.12
 Force Cnst:      6.6696                 6.7309                 6.9981
 Red. Mass:       1.1116                 1.0686                 1.0743
 IR Active:          YES                    YES                    YES
 IR Intens:       41.914               1630.503               1354.379
 Raman Active:       YES                    YES                    YES
               X      Y      Z        X      Y      Z        X      Y      Z
 C         -0.000  0.000  0.000   -0.000  0.000 -0.000    0.000 -0.000  0.000
 O         -0.000 -0.000 -0.000    0.000 -0.000  0.000   -0.000  0.000 -0.000
 O          0.000  0.000 -0.000   -0.000 -0.000  0.000    0.000  0.000 -0.000
 C         -0.011 -0.008 -0.001   -0.000 -0.000 -0.000    0.000  0.000  0.000
 H          0.089 -0.006 -0.005    0.002 -0.000 -0.000   -0.000  0.000 -0.000
 H          0.035  0.096  0.021    0.000  0.000 -0.000   -0.000 -0.000  0.000
 C         -0.083 -0.049 -0.007    0.000  0.003  0.001   -0.000 -0.000 -0.000
 H          0.739 -0.020  0.011    0.002 -0.000  0.000   -0.001  0.000 -0.000
 H          0.243  0.599  0.071   -0.008 -0.017  0.003    0.001  0.002 -0.001
 C         -0.001 -0.001  0.000   -0.003  0.004 -0.004    0.000 -0.001  0.001
 C         -0.000 -0.003 -0.002   -0.000  0.001 -0.001    0.000 -0.000  0.000
 H         -0.003  0.005 -0.004    0.005 -0.007  0.005   -0.001  0.001 -0.001
 H         -0.005  0.002  0.016   -0.002  0.000  0.007    0.000 -0.000 -0.002
 H          0.012  0.031  0.012    0.003  0.004  0.001   -0.001 -0.001 -0.000
 O          0.000  0.000  0.000    0.002 -0.002  0.006   -0.000  0.000 -0.002
 O          0.000  0.000 -0.000   -0.000 -0.001 -0.000    0.000  0.000  0.000
 H         -0.000  0.001  0.011   -0.049  0.115  0.985   -0.016  0.001 -0.071
 O          0.000 -0.000 -0.001   -0.001 -0.005 -0.063   -0.056  0.029  0.020
 H         -0.000  0.000 -0.000    0.075 -0.040 -0.043    0.864 -0.440 -0.223
 O         -0.000  0.000  0.000   -0.000  0.000  0.000    0.003 -0.000 -0.001
 O          0.000  0.000  0.000   -0.000 -0.000  0.000   -0.000 -0.001  0.000
 TransDip  -0.183 -0.093  0.025    0.029 -0.292  1.260    0.917 -0.614 -0.413

 STANDARD THERMODYNAMIC QUANTITIES AT   298.15 K  AND     1.00 ATM

   This Molecule has  1 Imaginary Frequencies
   Zero point vibrational energy:       90.657 kcal/mol

   Atom    1 Element C  Has Mass   12.00000
   Atom    2 Element O  Has Mass   15.99491
   Atom    3 Element O  Has Mass   15.99491
   Atom    4 Element C  Has Mass   12.00000
   Atom    5 Element H  Has Mass    1.00783
   Atom    6 Element H  Has Mass    1.00783
   Atom    7 Element C  Has Mass   12.00000
   Atom    8 Element H  Has Mass    1.00783
   Atom    9 Element H  Has Mass    1.00783
   Atom   10 Element C  Has Mass   12.00000
   Atom   11 Element C  Has Mass   12.00000
   Atom   12 Element H  Has Mass    1.00783
   Atom   13 Element H  Has Mass    1.00783
   Atom   14 Element H  Has Mass    1.00783
   Atom   15 Element O  Has Mass   15.99491
   Atom   16 Element O  Has Mass   15.99491
   Atom   17 Element H  Has Mass    1.00783
   Atom   18 Element O  Has Mass   15.99491
   Atom   19 Element H  Has Mass    1.00783
   Atom   20 Element O  Has Mass   15.99491
   Atom   21 Element O  Has Mass   15.99491
   Molecular Mass:   181.034840 amu
   Principal axes and moments of inertia in amu*Bohr^2:
                             1           2           3
    Eigenvalues --      949.37163  6320.21180  6833.75322
          X              -0.14277    -0.64599     0.74988
          Y               0.00573     0.75709     0.65329
          Z               0.98974    -0.09757     0.10439
   Rotational Symmetry Number is   1
   The Molecule is an Asymmetric Top
   Translational Enthalpy:        0.889 kcal/mol
   Rotational Enthalpy:           0.889 kcal/mol
   Vibrational Enthalpy:         98.674 kcal/mol
   gas constant (RT):             0.592 kcal/mol
   Translational Entropy:        41.487  cal/mol.K
   Rotational Entropy:           32.083  cal/mol.K
   Vibrational Entropy:          60.374  cal/mol.K

   Total Enthalpy:              101.044 kcal/mol
   Total Entropy:               133.944  cal/mol.K
Archival summary:
1\1\c6-83\FREQ\ProcedureUnspecified\BasisUnspecified\759(3-,1)\leeping\SatSep2814:28:192019SatSep2814:28:192019\0\\#,FREQ,ProcedureUnspecified,BasisUnspecified,\\-3,1\O\C,1,1.30824\O,2,1.31878,1,120.62\C,2,1.55554,1,113.793,3,138.971,0\H,4,1.09151,2,111.782,1,42.1308,0\H,4,1.0926,2,110.763,1,165.026,0\H,4,1.09498,2,106.885,1,-76.7302,0\H,3,1.72386,2,109.415,1,60.9199,0\O,8,0.990233,3,178.403,2,155.753,0\H,9,0.987873,8,105.792,3,-120.423,0\O,10,1.75266,9,177.631,8,-131.922,0\O,11,1.32118,10,103.346,9,55.5365,0\C,2,1.79232,1,100.338,3,-112.248,0\H,13,1.08887,2,101.582,1,67.8384,0\H,13,1.08949,2,100.494,1,-178.124,0\C,13,1.50564,2,114.964,1,-55.199,0\H,16,1.09335,13,110.505,2,58.9754,0\H,16,1.0949,13,111.247,2,-59.1688,0\C,16,1.54371,13,114.073,2,-179.633,0\O,19,1.25706,16,118.592,13,3.03144,0\O,19,1.25927,16,115.707,13,-177.278,0\\\@

 Total job time:  152324.88s(wall), 2027874.75s(cpu) 
 Sat Sep 28 14:28:19 2019

        *************************************************************
        *                                                           *
        *  Thank you very much for using Q-Chem.  Have a nice day.  *
        *                                                           *
        *************************************************************


