
Running Job 1 of 1 qc-freq1.in
qchem qc-freq1.in_13414.0 /scratch/leeping/1862690/qc-freq1.d/ 1
/home/leeping/opt/qchem/5.0.2-openmp/exe/qcprog.exe_s qc-freq1.in_13414.0 /scratch/leeping/1862690/qc-freq1.d/
Check license passed

                  Welcome to Q-Chem
     A Quantum Leap Into The Future Of Chemistry


 Q-Chem 5.0, Q-Chem, Inc., Pleasanton, CA (2017)

 Yihan Shao,  Zhengting Gan,  E. Epifanovsky,  A. T. B. Gilbert,  M. Wormit,  
 J. Kussmann,  A. W. Lange,  A. Behn,  Jia Deng,  Xintian Feng,  D. Ghosh,  
 M. Goldey,  P. R. Horn,  L. D. Jacobson,  I. Kaliman,  T. Kus,  A. Landau,  
 Jie Liu,  E. I. Proynov,  R. M. Richard,  R. P. Steele,  E. J. Sundstrom,  
 H. L. Woodcock III,  P. M. Zimmerman,  D. Zuev,  B. Albrecht,  E. Alguire,  
 S. A. Baeppler,  D. Barton,  Z. Benda,  Y. A. Bernard,  E. J. Berquist,  
 K. B. Bravaya,  H. Burton,  D. Casanova,  Chun-Min Chang,  Yunqing Chen,  
 A. Chien,  K. D. Closser,  M. P. Coons,  S. Dasgupta,  A. L. Dempwolff,  
 M. Diedenhofen,  Hainam Do,  R. G. Edgar,  Po-Tung Fang,  S. Fatehi,  
 Qingguo Feng,  J. Fosso-Tande,  Qinghui Ge,  A. Ghysels,  G. Gidofalvi,  
 J. Gomes,  J. Gonthier,  A. Gunina,  M. W. D. Hanson-Heine,  
 P. H. P. Harbach,  A. W. Hauser,  J. E. Herr,  E. G. Hohenstein,  
 Z. C. Holden,  Kerwin Hui,  T.-C. Jagau,  Hyunjun Ji,  B. Kaduk,  
 K. Khistyaev,  Jaehoon Kim,  P. Klunzinger,  K. Koh,  D. Kosenkov,  
 L. Koulias,  T. Kowalczyk,  C. M. Krauter,  A. Kunitsa,  Ka Un Lao,  
 A. Laurent,  K. V. Lawler,  Joonho Lee,  D. Lefrancois,  S. Lehtola,  
 D. S. Levine,  Yi-Pei Li,  You-Sheng Lin,  Fenglai Liu,  E. Livshits,  
 A. Luenser,  P. Manohar,  E. Mansoor,  S. F. Manzer,  Shan-Ping Mao,  
 Yuezhi Mao,  N. Mardirossian,  A. V. Marenich,  T. Markovich,  
 L. A. Martinez-Martinez,  S. A. Maurer,  N. J. Mayhall,  S. C. McKenzie,  
 J.-M. Mewes,  A. F. Morrison,  J. W. Mullinax,  K. Nanda,  
 T. S. Nguyen-Beck,  R. Olivares-Amaya,  J. A. Parkhill,  T. M. Perrine,  
 F. Plasser,  S. Prager,  A. Prociuk,  E. Ramos,  D. R. Rehn,  F. Rob,  
 M. Schneider,  N. Sergueev,  S. M. Sharada,  S. Sharma,  D. W. Small,  
 T. Stauch,  T. Stein,  Yu-Chuan Su,  A. J. W. Thom,  A. Tkatchenko,  
 T. Tsuchimochi,  L. Vogt,  O. Vydrov,  M. A. Watson,  J. Wenzel,  
 M. de Wergifosse,  T. A. Wesolowski,  A. White,  J. Witte,  A. Yamada,  
 Jun Yang,  K. Yao,  S. Yeganeh,  S. R. Yost,  Zhi-Qiang You,  A. Zech,  
 Igor Ying Zhang,  Xing Zhang,  Yan Zhao,  Ying Zhu,  B. R. Brooks,  
 G. K. L. Chan,  C. J. Cramer,  M. S. Gordon,  W. J. Hehre,  A. Klamt,  
 M. W. Schmidt,  C. D. Sherrill,  D. G. Truhlar,  A. Aspuru-Guzik,  R. Baer,  
 A. T. Bell,  N. A. Besley,  Jeng-Da Chai,  R. A. DiStasio Jr.,  A. Dreuw,  
 B. D. Dunietz,  T. R. Furlani,  Chao-Ping Hsu,  Yousung Jung,  Jing Kong,  
 D. S. Lambrecht,  WanZhen Liang,  C. Ochsenfeld,  V. A. Rassolov,  
 L. V. Slipchenko,  J. E. Subotnik,  T. Van Voorhis,  J. M. Herbert,  
 A. I. Krylov,  P. M. W. Gill,  M. Head-Gordon

 Contributors to earlier versions of Q-Chem not listed above: 
 R. D. Adamson,  B. Austin,  J. Baker,  G. J. O. Beran,  K. Brandhorst,  
 S. T. Brown,  E. F. C. Byrd,  A. K. Chakraborty,  C.-L. Cheng,  
 Siu Hung Chien,  D. M. Chipman,  D. L. Crittenden,  H. Dachsel,  
 R. J. Doerksen,  A. D. Dutoi,  L. Fusti-Molnar,  W. A. Goddard III,  
 A. Golubeva-Zadorozhnaya,  S. R. Gwaltney,  G. Hawkins,  A. Heyden,  
 S. Hirata,  G. Kedziora,  F. J. Keil,  C. Kelley,  Jihan Kim,  R. A. King,  
 R. Z. Khaliullin,  P. P. Korambath,  W. Kurlancheek,  A. M. Lee,  M. S. Lee,  
 S. V. Levchenko,  Ching Yeh Lin,  D. Liotard,  R. C. Lochan,  I. Lotan,  
 P. E. Maslen,  N. Nair,  D. P. O'Neill,  D. Neuhauser,  E. Neuscamman,  
 C. M. Oana,  R. Olson,  B. Peters,  R. Peverati,  P. A. Pieniazek,  
 Y. M. Rhee,  J. Ritchie,  M. A. Rohrdanz,  E. Rosta,  N. J. Russ,  
 H. F. Schaefer III,  N. E. Schultz,  N. Shenvi,  A. C. Simmonett,  A. Sodt,  
 D. Stuck,  K. S. Thanthiriwatte,  V. Vanovschi,  Tao Wang,  A. Warshel,  
 C. F. Williams,  Q. Wu,  X. Xu,  W. Zhang

 Please cite Q-Chem as follows:
 Y. Shao et al., Mol. Phys. 113, 184-215 (2015)
 DOI: 10.1080/00268976.2014.952696

 Q-Chem 5.0.2 for Intel X86 EM64T Linux

 Parts of Q-Chem use Armadillo 5.200.1 (Boston Tea Smuggler).
 http://arma.sourceforge.net/

 Q-Chem begins on Fri Mar 20 12:56:44 2020  

Host: 
0

     Scratch files written to /scratch/leeping/1862690/qc-freq1.d//
 Dec517 15110_ 26548  26544 5633   
Processing $rem in /home/leeping/opt/qchem/5.0.2-openmp/config/preferences.
 MEM_STATIC 2000
 MEM_TOTAL  8000
 SYMMETRY   OFF
 SYM_IGNORE TRUE 
Symmetry turned off for PCM/SM12/SMD calculation

Checking the input file for inconsistencies... 	...done.

--------------------------------------------------------------
User input:
--------------------------------------------------------------
$molecule
-3 1
C        1.2260187121    0.8083142067   -4.3447431156
O        0.2952824610    1.4233778576   -4.9280226376
O        2.1656443195    0.1915621214   -4.9058661547
C        1.2205953329    0.8650285172   -2.8019530315
H        0.2079516791    1.0892660948   -2.4544078839
H        1.8213514796    1.7589740628   -2.5500623204
C        1.7705563243   -0.3315482620   -2.1166260548
H        2.5804343017   -0.8937256874   -2.5668982740
H        1.4423495481   -0.5909430940   -1.1152440467
C       -0.9361316173    0.1475828647    0.3070478661
C       -1.9107719259   -0.2243568550   -0.8090175686
H       -2.2904742140    0.6592332730   -1.3246974035
H       -2.7491717017   -0.7864746441   -0.3865375750
H       -1.4084642405   -0.8780645672   -1.5286451779
O       -0.4169548047   -0.8186520559    0.9401510655
O       -0.7111128178    1.3614129740    0.5283459553
H        0.6246632991   -0.4296141826    2.3244054343
O        1.2301749229   -0.3021692589    3.0901602315
H        0.6769283199    0.0887921974    3.8100952323
O       -0.3249879139    0.7682559528    5.0619398980
O       -1.4956520076    0.7926246354    4.4500289371
$end

$rem
jobtype               freq
method                wb97x-v
basis                 def2-tzvpd
symmetry              off
sym_ignore            true
incdft                false
incfock               0
scf_guess             read
scf_convergence       8
thresh                14
unrestricted          true
!purecart             112
max_scf_cycles        1000
geom_opt_max_cycles   500
geom_opt_dmax         100
geom_opt_tol_gradient 10
solvent_method        pcm
ideriv                1
rpath_tol_displacement 1000
rpath_max_cycles      100
rpath_direction       1
$end

$pcm
theory              cosmo
method              iswig
Radii               bondi
vdwScale            1.20
hpoints             110
heavypoints         110
$end

$solvent
dielectric 78.400000
$end

--------------------------------------------------------------
 ----------------------------------------------------------------
             Standard Nuclear Orientation (Angstroms)
    I     Atom           X                Y                Z
 ----------------------------------------------------------------
    1      C       1.2260187121     0.8083142067    -4.3447431156
    2      O       0.2952824610     1.4233778576    -4.9280226376
    3      O       2.1656443195     0.1915621214    -4.9058661547
    4      C       1.2205953329     0.8650285172    -2.8019530315
    5      H       0.2079516791     1.0892660948    -2.4544078839
    6      H       1.8213514796     1.7589740628    -2.5500623204
    7      C       1.7705563243    -0.3315482620    -2.1166260548
    8      H       2.5804343017    -0.8937256874    -2.5668982740
    9      H       1.4423495481    -0.5909430940    -1.1152440467
   10      C      -0.9361316173     0.1475828647     0.3070478661
   11      C      -1.9107719259    -0.2243568550    -0.8090175686
   12      H      -2.2904742140     0.6592332730    -1.3246974035
   13      H      -2.7491717017    -0.7864746441    -0.3865375750
   14      H      -1.4084642405    -0.8780645672    -1.5286451779
   15      O      -0.4169548047    -0.8186520559     0.9401510655
   16      O      -0.7111128178     1.3614129740     0.5283459553
   17      H       0.6246632991    -0.4296141826     2.3244054343
   18      O       1.2301749229    -0.3021692589     3.0901602315
   19      H       0.6769283199     0.0887921974     3.8100952323
   20      O      -0.3249879139     0.7682559528     5.0619398980
   21      O      -1.4956520076     0.7926246354     4.4500289371
 ----------------------------------------------------------------
 Nuclear Repulsion Energy =   636.9299374478 hartrees
 There are       49 alpha and       49 beta electrons
 Requested basis set is def2-TZVPD
 There are 208 shells and 546 basis functions

 Total QAlloc Memory Limit   8000 MB
 Mega-Array Size      1956 MB
 MEM_STATIC part      2000 MB
 Discretize the solute cavity surface with Lebedev spheres
	Using 110 Lebedev grid points for each H atom
	Using 110 Lebedev grid points for other atoms
	Atomic van der Waals radii will be scaled by 1.20
 Remove points where switching function is < 1.0e-08
 Keep 1399 surface tesserae and discard 911 interior tesserae
 Molecular Surface Area = 271.463 Angst**2
 A cutoff of  1.0D-14 yielded  17512 shell pairs
 There are    118380 function pairs (    149319 Cartesian)
 
 -------------------------------------------------------
 OpenMP Integral Computing Module                       
 Release: version 1.0, May 2013, Q-Chem Inc. Pittsburgh 
 -------------------------------------------------------
 Integral Job Info:
 Integral job number is                      11
 Integral operator is                         1
 short-range coefficients              16700000
 long-range coefficients              100000000
 Omega coefficients                         300
 if combine SR and LR in K                    1
 Integral screening is                        0
 Integral computing path is                   2
 max size of driver memory is            800000
 size of driver memory is                776718
 size of scratch memory is              4473992
 max col of scratch BK array              10000
 max len of scratch array in speh3          662
 max len of scratch index in speh4           32
 max int batch size is                      520
 min int batch size is                       52
 fixed nKL is                                52
 max L of basis functions is                  3
 order of int derivative is                   0
 number of shells is                        208
 number of basis is                         618
 number of cartesian basis is               618
 number of contracted shell pairs         17512
 number of primitive shell pairs          34034
 maxK2 (contraction) of shell pair           36
 max number of K2 of shell pair               1
 max number of CS2 of shell pair           3080
 max number of PS2 of shell pair           3858
 mem total for path MDJ                  833788
 -------------------------------------------------------
 Smallest overlap matrix eigenvalue = 5.65E-06
 Guess MOs from SCF MO coefficient file
 Reading MOs from coefficient file
 Reading MOs from coefficient file
 Long-range K will be added via erf
 Coulomb attenuation parameter = 0.3 bohr**(-1)
 An unrestricted hybrid HF-DFT SCF calculation will be
 performed using Pulay DIIS extrapolation
 Polarizable Continuum solvation model will be applied
 Exchange:     0.1670 Hartree-Fock + 1.0000 wB97X-V + LR-HF
 Correlation:  1.0000 wB97X-V
 Using SG-2 standard quadrature grid
 Nonlocal Correlation:  VV10 with C = 0.0100 and b = 6.00
 Grid used for NLC:  SG-1 standard quadrature
 SCF converges when DIIS error is below 1.0E-08
Using Q-Chem read-in guess as SCF_GUESS READ specified.

 using 16 threads for integral computing
 -------------------------------------------------------
 OpenMP Integral computing Module                
 Release: version 1.0, May 2013, Q-Chem Inc. Pittsburgh 
 -------------------------------------------------------
 using 16 threads for integral computing
 -------------------------------------------------------
 OpenMP Integral computing Module                
 Release: version 1.0, May 2013, Q-Chem Inc. Pittsburgh 
 -------------------------------------------------------
 -------------------------------------------------------
 OpenMP BLAS3 based DFT computing Module                
 Release: version 1.0, May 2013, Q-Chem Inc. Pittsburgh 
 -------------------------------------------------------
 -------------------------------------------------------
 OpenMP BLAS3 based DFT computing Module                
 Release: version 1.0, May 2013, Q-Chem Inc. Pittsburgh 
 -------------------------------------------------------
 -------------------------------------------------------
 OpenMP BLAS3 based DFT computing Module                
 Release: version 1.0, May 2013, Q-Chem Inc. Pittsburgh 
 -------------------------------------------------------
 ---------------------------------------
  Cycle       Energy         DIIS Error
 ---------------------------------------
    1    -722.2991662322      3.66E-04
    2    -722.8623071393      3.75E-04
    3    -722.8700087228      1.79E-04
    4    -722.8713474037      1.32E-04
    5    -722.8722110996      1.01E-04
    6    -722.8726502088      8.08E-05
    7    -722.8729703088      6.26E-05
    8    -722.8731769357      4.73E-05
    9    -722.8732994287      3.53E-05
   10    -722.8733517532      2.86E-05
   11    -722.8733982397      2.10E-05
   12    -722.8734208985      1.61E-05
   13    -722.8734394639      1.04E-05
   14    -722.8734469603      6.84E-06
   15    -722.8734492634      5.29E-06
   16    -722.8734502590      4.46E-06
   17    -722.8734527023      2.81E-08
   18    -722.8734527027      1.94E-08
   19    -722.8734527029      1.40E-08
   20    -722.8734527031      1.31E-08
   21    -722.8734527034      1.27E-08
   22    -722.8734527037      1.23E-08
   23    -722.8734527050      1.06E-08
   24    -722.8734527069      7.05E-09 Convergence criterion met
 ---------------------------------------

************** Final PCM Free Energy Summary **************
 G_electrostatic  =      -0.57428771 hartree =    -360.37097562 kcal/mol
 G_cavitation     =       0.00000000 hartree =       0.00000000 kcal/mol
 G_dispersion     =       0.00000000 hartree =       0.00000000 kcal/mol
 G_repulsion      =       0.00000000 hartree =       0.00000000 kcal/mol
 --------------------------------------------------
 Non-electrostatic Free Energy =       0.00000000 hartree =       0.00000000 kcal/mol
 Total                         =      -0.57428771 hartree =    -360.37097562 kcal/mol
 --------------------------------------------------
 SCF Energy (H0 + V/2)                       =    -722.87345271 
 Solute Internal Energy (H0)                 =    -722.29916500 
 Total Free Energy (H0 + V/2 + non-elec)     =    -722.87345271 hartree
                                             = -453609.93790803 kcal/mol
***********************************************************

 <S^2> = 1.0097
 SCF time:  CPU 8762.28 s  wall 640.89 s
 SCF   energy in the final basis set = -722.87345271
 Total energy in the final basis set = -722.87345271
 
 --------------------------------------------------------------
 
                    Orbital Energies (a.u.)
 --------------------------------------------------------------
 
 Alpha MOs
 -- Occupied --
-19.192 -19.190 -19.162 -19.145 -19.144 -19.140 -19.140 -10.347
-10.343 -10.259 -10.253 -10.243  -1.176  -1.149  -1.145  -1.083
 -1.054  -1.051  -0.885  -0.834  -0.804  -0.737  -0.620  -0.607
 -0.589  -0.560  -0.544  -0.535  -0.534  -0.532  -0.523  -0.496
 -0.492  -0.485  -0.475  -0.465  -0.458  -0.449  -0.441  -0.424
 -0.387  -0.355  -0.349  -0.344  -0.342  -0.335  -0.332  -0.285
 -0.260
 -- Virtual --
  0.054   0.060   0.073   0.079   0.085   0.092   0.095   0.103
  0.112   0.116   0.119   0.124   0.129   0.137   0.143   0.144
  0.148   0.152   0.155   0.165   0.169   0.171   0.181   0.184
  0.187   0.191   0.198   0.206   0.211   0.214   0.221   0.222
  0.230   0.237   0.239   0.249   0.253   0.258   0.262   0.272
  0.273   0.284   0.291   0.295   0.296   0.306   0.310   0.320
  0.321   0.328   0.341   0.342   0.346   0.347   0.351   0.356
  0.358   0.363   0.368   0.374   0.377   0.384   0.388   0.391
  0.397   0.402   0.403   0.412   0.413   0.419   0.423   0.426
  0.432   0.439   0.441   0.448   0.454   0.458   0.461   0.468
  0.475   0.479   0.480   0.489   0.491   0.498   0.505   0.511
  0.514   0.519   0.523   0.526   0.532   0.533   0.538   0.551
  0.554   0.559   0.564   0.566   0.574   0.577   0.580   0.582
  0.587   0.594   0.595   0.605   0.608   0.611   0.615   0.621
  0.625   0.629   0.632   0.647   0.649   0.652   0.655   0.664
  0.671   0.671   0.676   0.682   0.692   0.694   0.703   0.715
  0.722   0.723   0.726   0.730   0.738   0.745   0.747   0.752
  0.757   0.764   0.777   0.784   0.788   0.794   0.800   0.804
  0.810   0.817   0.823   0.829   0.832   0.840   0.845   0.846
  0.850   0.864   0.867   0.872   0.878   0.879   0.895   0.903
  0.913   0.922   0.928   0.939   0.945   0.952   0.969   0.974
  0.980   0.988   0.992   1.002   1.020   1.024   1.035   1.042
  1.048   1.058   1.071   1.079   1.087   1.090   1.110   1.113
  1.129   1.133   1.140   1.159   1.170   1.185   1.186   1.200
  1.205   1.218   1.237   1.240   1.252   1.276   1.285   1.307
  1.331   1.338   1.348   1.352   1.362   1.369   1.384   1.399
  1.404   1.407   1.417   1.441   1.456   1.459   1.492   1.509
  1.538   1.547   1.617   1.629   1.663   1.682   1.689   1.711
  1.752   1.772   1.790   1.795   1.800   1.833   1.842   1.875
  1.895   1.900   1.917   1.924   1.934   1.948   1.967   1.970
  1.973   1.980   1.989   1.996   2.006   2.012   2.026   2.031
  2.037   2.055   2.065   2.073   2.075   2.084   2.123   2.151
  2.157   2.164   2.165   2.183   2.190   2.205   2.216   2.244
  2.264   2.272   2.291   2.302   2.308   2.324   2.333   2.344
  2.367   2.372   2.392   2.398   2.419   2.451   2.452   2.465
  2.475   2.484   2.512   2.520   2.533   2.553   2.572   2.578
  2.597   2.611   2.639   2.651   2.670   2.683   2.691   2.712
  2.785   2.789   2.797   2.804   2.822   2.851   2.870   2.881
  2.895   2.910   2.914   2.921   2.946   2.956   2.993   2.997
  3.030   3.039   3.045   3.063   3.073   3.103   3.134   3.163
  3.185   3.188   3.206   3.212   3.228   3.238   3.245   3.265
  3.275   3.290   3.306   3.319   3.325   3.326   3.337   3.355
  3.360   3.369   3.378   3.406   3.414   3.436   3.448   3.454
  3.462   3.471   3.484   3.496   3.511   3.528   3.550   3.569
  3.577   3.593   3.601   3.625   3.637   3.650   3.660   3.675
  3.677   3.694   3.700   3.721   3.755   3.766   3.806   3.810
  3.817   3.840   3.898   3.925   3.950   4.063   4.072   4.092
  4.102   4.112   4.125   4.199   4.243   4.254   4.277   4.342
  4.383   4.438   4.476   4.588   4.599   4.616   4.643   4.684
  4.735   4.848   4.853   4.861   4.880   4.902   4.906   4.923
  4.928   4.954   4.995   5.036   5.073   5.149   5.238   5.255
  5.279   5.315   5.318   5.350   5.354   5.357   5.367   5.371
  5.374   5.385   5.389   5.417   5.492   5.505   5.566   5.628
  5.658   5.708   5.712   5.714   5.716   5.747   5.751   5.771
  5.776   5.996   6.003   6.191   6.252   6.253   6.298   6.308
  6.324   6.337   6.357   6.377   6.423   6.539   6.598   6.617
  6.624   6.628   6.630   6.654   6.671   6.678   6.687   6.694
  6.728   6.729   6.746   6.749   6.752   6.768   6.783   6.833
  6.853   6.937   6.965   6.974   7.006   7.039   7.050   7.173
  7.221   7.238   7.242   7.273   7.340   7.353   7.388   7.393
  7.409   7.435   7.477   7.513   8.648  22.567  22.675  22.787
 23.716  23.723  43.650  44.144  44.271  44.316  44.403  44.421
 44.451
 
 Beta MOs
 -- Occupied --
-19.203 -19.202 -19.162 -19.145 -19.144 -19.140 -19.140 -10.347
-10.342 -10.254 -10.249 -10.243  -1.205  -1.149  -1.144  -1.083
 -1.054  -1.050  -0.870  -0.848  -0.834  -0.711  -0.620  -0.602
 -0.589  -0.556  -0.537  -0.534  -0.533  -0.532  -0.520  -0.516
 -0.507  -0.494  -0.491  -0.476  -0.458  -0.456  -0.446  -0.444
 -0.388  -0.354  -0.349  -0.342  -0.337  -0.335  -0.331  -0.313
 -0.277
 -- Virtual --
  0.035   0.061   0.073   0.080   0.085   0.092   0.095   0.103
  0.112   0.117   0.120   0.124   0.129   0.138   0.143   0.145
  0.149   0.154   0.156   0.166   0.168   0.170   0.178   0.183
  0.187   0.191   0.199   0.204   0.211   0.216   0.222   0.222
  0.230   0.238   0.242   0.250   0.254   0.260   0.263   0.271
  0.275   0.282   0.293   0.296   0.297   0.306   0.312   0.320
  0.322   0.330   0.341   0.343   0.345   0.347   0.352   0.356
  0.358   0.364   0.369   0.374   0.378   0.385   0.388   0.391
  0.397   0.401   0.403   0.410   0.412   0.419   0.422   0.426
  0.431   0.442   0.443   0.450   0.456   0.460   0.464   0.469
  0.476   0.479   0.480   0.488   0.490   0.499   0.506   0.510
  0.513   0.519   0.523   0.526   0.533   0.534   0.539   0.551
  0.554   0.559   0.563   0.566   0.573   0.576   0.579   0.583
  0.587   0.594   0.596   0.598   0.607   0.611   0.616   0.620
  0.626   0.629   0.631   0.647   0.650   0.652   0.659   0.662
  0.670   0.671   0.677   0.681   0.692   0.694   0.703   0.714
  0.722   0.723   0.726   0.731   0.739   0.745   0.748   0.752
  0.757   0.764   0.777   0.785   0.788   0.794   0.800   0.806
  0.811   0.817   0.822   0.825   0.832   0.840   0.845   0.847
  0.851   0.863   0.867   0.873   0.878   0.880   0.895   0.903
  0.913   0.921   0.928   0.937   0.945   0.952   0.968   0.975
  0.979   0.987   0.992   1.002   1.011   1.023   1.037   1.043
  1.050   1.060   1.073   1.084   1.088   1.092   1.112   1.117
  1.129   1.134   1.146   1.161   1.171   1.185   1.187   1.200
  1.206   1.218   1.239   1.243   1.251   1.276   1.287   1.309
  1.333   1.339   1.349   1.353   1.365   1.371   1.384   1.394
  1.404   1.407   1.417   1.441   1.459   1.465   1.495   1.513
  1.539   1.549   1.617   1.630   1.642   1.680   1.692   1.707
  1.747   1.762   1.790   1.794   1.798   1.829   1.859   1.876
  1.897   1.903   1.922   1.924   1.935   1.951   1.958   1.972
  1.976   1.980   1.982   1.998   2.007   2.012   2.020   2.034
  2.035   2.045   2.068   2.075   2.078   2.089   2.124   2.151
  2.159   2.164   2.167   2.184   2.191   2.206   2.225   2.245
  2.264   2.270   2.286   2.297   2.304   2.324   2.331   2.337
  2.367   2.375   2.391   2.396   2.423   2.451   2.457   2.467
  2.475   2.484   2.515   2.521   2.533   2.552   2.568   2.580
  2.598   2.613   2.640   2.653   2.671   2.683   2.699   2.712
  2.785   2.793   2.795   2.800   2.815   2.824   2.872   2.881
  2.898   2.912   2.917   2.922   2.954   2.969   2.996   2.999
  3.023   3.039   3.043   3.062   3.078   3.101   3.138   3.163
  3.170   3.183   3.200   3.212   3.222   3.242   3.253   3.269
  3.282   3.296   3.307   3.319   3.328   3.343   3.346   3.354
  3.357   3.377   3.382   3.408   3.416   3.439   3.447   3.452
  3.454   3.477   3.485   3.498   3.522   3.541   3.545   3.572
  3.584   3.596   3.601   3.626   3.642   3.652   3.663   3.676
  3.679   3.698   3.709   3.733   3.756   3.767   3.807   3.815
  3.823   3.847   3.906   3.925   3.950   4.065   4.079   4.094
  4.104   4.111   4.127   4.199   4.252   4.256   4.284   4.344
  4.383   4.422   4.486   4.593   4.601   4.624   4.644   4.685
  4.739   4.849   4.853   4.863   4.876   4.883   4.903   4.910
  4.913   4.941   5.005   5.036   5.078   5.133   5.207   5.247
  5.255   5.315   5.318   5.341   5.350   5.354   5.357   5.368
  5.371   5.378   5.386   5.396   5.492   5.505   5.566   5.628
  5.657   5.708   5.712   5.714   5.716   5.724   5.728   5.771
  5.776   5.996   6.004   6.188   6.252   6.253   6.298   6.307
  6.314   6.325   6.336   6.367   6.417   6.492   6.552   6.605
  6.621   6.625   6.628   6.629   6.635   6.666   6.670   6.693
  6.716   6.722   6.724   6.746   6.750   6.768   6.783   6.832
  6.834   6.937   6.965   6.974   7.006   7.039   7.051   7.171
  7.207   7.221   7.236   7.269   7.338   7.353   7.388   7.393
  7.409   7.434   7.475   7.498   8.634  22.580  22.675  22.787
 23.716  23.723  43.635  44.144  44.271  44.302  44.403  44.421
 44.451
 --------------------------------------------------------------
 
          Ground-State Mulliken Net Atomic Charges

     Atom                 Charge (a.u.)    Spin (a.u.)
  --------------------------------------------------------
      1 C                     0.213504       0.023983
      2 O                    -0.709688       0.009396
      3 O                    -0.695746       0.002709
      4 C                     0.414226      -0.073877
      5 H                    -0.064848       0.008715
      6 H                     0.189268       0.082207
      7 C                    -0.922343       0.899877
      8 H                     0.256498       0.008313
      9 H                     0.292959       0.033922
     10 C                     0.565383       0.001851
     11 C                    -0.758266       0.007474
     12 H                     0.233073      -0.000876
     13 H                     0.227940      -0.000262
     14 H                     0.222442      -0.004876
     15 O                    -0.791739       0.001832
     16 O                    -0.694917      -0.000372
     17 H                     0.342647      -0.000776
     18 O                    -0.693361      -0.001322
     19 H                     0.339303       0.002230
     20 O                    -0.508263      -0.477909
     21 O                    -0.458071      -0.522239
  --------------------------------------------------------
  Sum of atomic charges =    -3.000000
  Sum of spin   charges =    -0.000000

 -----------------------------------------------------------------
                    Cartesian Multipole Moments
 -----------------------------------------------------------------
    Charge (ESU x 10^10)
               -14.4096
    Dipole Moment (Debye)
         X      -3.4721      Y      -7.9375      Z      -2.7213
       Tot       9.0810
    Quadrupole Moments (Debye-Ang)
        XX    -103.6500     XY       7.0970     YY     -97.5031
        XZ      41.4613     YZ       5.6920     ZZ    -321.4076
    Octopole Moments (Debye-Ang^2)
       XXX     -76.7008    XXY     -34.4848    XYY      -3.5737
       YYY    -102.5078    XXZ      56.3972    XYZ      22.1711
       YYZ      39.3450    XZZ    -110.8996    YZZ    -204.0335
       ZZZ     276.9928
    Hexadecapole Moments (Debye-Ang^3)
      XXXX   -1027.9772   XXXY      12.1678   XXYY    -223.2504
      XYYY      13.9530   YYYY    -440.7828   XXXZ     710.2095
      XXYZ      20.7798   XYYZ     184.8047   YYYZ     153.5899
      XXZZ   -1578.4537   XYZZ      75.6593   YYZZ   -1198.5349
      XZZZ    1684.3783   YZZZ     307.0938   ZZZZ  -11370.5164
 -----------------------------------------------------------------
 Calculating analytic gradient of the SCF energy
 Gradient of SCF Energy
            1           2           3           4           5           6
    1   0.0124422   0.0466215  -0.0494689  -0.0732617   0.0955065  -0.0391354
    2  -0.0215526  -0.0303103   0.0345708   0.1103322  -0.0083922  -0.0653251
    3  -0.0758180   0.0430680   0.0390877   0.1013551  -0.0438468  -0.0141518
            7           8           9          10          11          12
    1   0.0650164  -0.0758994   0.0138101   0.0996693  -0.0865660   0.0319031
    2  -0.0999973   0.0510446   0.0287564   0.0260316  -0.0045122  -0.0842728
    3   0.0251656   0.0332437  -0.0952022   0.0684413  -0.0953502   0.0479054
           13          14          15          16          17          18
    1   0.0835658  -0.0589823  -0.0528639  -0.0267554   0.0515613  -0.0768622
    2   0.0473028   0.0615411   0.0293785  -0.0778467   0.0221873   0.0181821
    3  -0.0384233   0.0689315  -0.0478334  -0.0172831   0.0825141  -0.0094340
           19          20          21
    1   0.0398435   0.0454771  -0.0456217
    2  -0.0411055   0.0012582   0.0027292
    3  -0.0704567   0.0200266  -0.0219394
 Max gradient component =       1.103E-01
 RMS gradient           =       5.683E-02
 Computing fast CPCM-ISWIG gradient
 Updating gradient with PCM contributions...
 -- total gradient after adding PCM contribution --
---------------------------------------------------
  Atom         X              Y              Z     
---------------------------------------------------
   1      -0.000012       0.000002       0.000008
   2       0.000005      -0.000001      -0.000000
   3       0.000006      -0.000003      -0.000003
   4       0.000000      -0.000003       0.000001
   5       0.000002       0.000004      -0.000001
   6       0.000004      -0.000002       0.000000
   7      -0.000001       0.000003      -0.000004
   8       0.000003      -0.000004       0.000001
   9      -0.000000       0.000000       0.000001
  10      -0.000004       0.000008      -0.000006
  11       0.000001       0.000002      -0.000005
  12       0.000001      -0.000001      -0.000002
  13      -0.000002       0.000001      -0.000001
  14      -0.000001      -0.000001       0.000002
  15       0.000004      -0.000002       0.000006
  16      -0.000002      -0.000006       0.000002
  17      -0.000002       0.000001      -0.000002
  18       0.000008      -0.000008      -0.000003
  19      -0.000008       0.000003       0.000005
  20      -0.000007       0.000003       0.000000
  21       0.000005       0.000005      -0.000000
---------------------------------------------------
 Number of fixed atoms: 0
 Gradient time:  CPU 1027.47 s  wall 79.48 s
 ######################################################
 ######################################################
 # Starting finite difference calculation for IDERIV  #
 Finite diff step size:  1.88973e-03 a.u.
 ----------------------------------------------------------------
             Standard Nuclear Orientation (Angstroms)
    I     Atom           X                Y                Z
 ----------------------------------------------------------------
    1      C       1.2270187121     0.8083142067    -4.3447431156
    2      O       0.2952824610     1.4233778576    -4.9280226376
    3      O       2.1656443195     0.1915621214    -4.9058661547
    4      C       1.2205953329     0.8650285172    -2.8019530315
    5      H       0.2079516791     1.0892660948    -2.4544078839
    6      H       1.8213514796     1.7589740628    -2.5500623204
    7      C       1.7705563243    -0.3315482620    -2.1166260548
    8      H       2.5804343017    -0.8937256874    -2.5668982740
    9      H       1.4423495481    -0.5909430940    -1.1152440467
   10      C      -0.9361316173     0.1475828647     0.3070478661
   11      C      -1.9107719259    -0.2243568550    -0.8090175686
   12      H      -2.2904742140     0.6592332730    -1.3246974035
   13      H      -2.7491717017    -0.7864746441    -0.3865375750
   14      H      -1.4084642405    -0.8780645672    -1.5286451779
   15      O      -0.4169548047    -0.8186520559     0.9401510655
   16      O      -0.7111128178     1.3614129740     0.5283459553
   17      H       0.6246632991    -0.4296141826     2.3244054343
   18      O       1.2301749229    -0.3021692589     3.0901602315
   19      H       0.6769283199     0.0887921974     3.8100952323
   20      O      -0.3249879139     0.7682559528     5.0619398980
   21      O      -1.4956520076     0.7926246354     4.4500289371
 ----------------------------------------------------------------
 Nuclear Repulsion Energy =   636.9290020737 hartrees
 There are       49 alpha and       49 beta electrons
 Discretize the solute cavity surface with Lebedev spheres
	Using 110 Lebedev grid points for each H atom
	Using 110 Lebedev grid points for other atoms
	Atomic van der Waals radii will be scaled by 1.20
 Remove points where switching function is < 1.0e-08
 Keep 1399 surface tesserae and discard 911 interior tesserae
 Molecular Surface Area = 271.463 Angst**2
 Requested basis set is def2-TZVPD
 There are 208 shells and 546 basis functions
 A cutoff of  1.0D-14 yielded  17511 shell pairs
 There are    118375 function pairs (    149313 Cartesian)
 Smallest overlap matrix eigenvalue = 5.65E-06
 Guess MOs from SCF MO coefficient file
 Reading MOs from coefficient file
 Reading MOs from coefficient file
 Long-range K will be added via erf
 Coulomb attenuation parameter = 0.3 bohr**(-1)
 An unrestricted hybrid HF-DFT SCF calculation will be
 performed using Pulay DIIS extrapolation
 Polarizable Continuum solvation model will be applied
 Exchange:     0.1670 Hartree-Fock + 1.0000 wB97X-V + LR-HF
 Correlation:  1.0000 wB97X-V
 Using SG-2 standard quadrature grid
 Nonlocal Correlation:  VV10 with C = 0.0100 and b = 6.00
 Grid used for NLC:  SG-1 standard quadrature
 SCF converges when DIIS error is below 1.0E-08
Using Q-Chem read-in guess as SCF_GUESS READ specified.

 using 16 threads for integral computing
 -------------------------------------------------------
 OpenMP Integral computing Module                
 Release: version 1.0, May 2013, Q-Chem Inc. Pittsburgh 
 -------------------------------------------------------
 using 16 threads for integral computing
 -------------------------------------------------------
 OpenMP Integral computing Module                
 Release: version 1.0, May 2013, Q-Chem Inc. Pittsburgh 
 -------------------------------------------------------
 -------------------------------------------------------
 OpenMP BLAS3 based DFT computing Module                
 Release: version 1.0, May 2013, Q-Chem Inc. Pittsburgh 
 -------------------------------------------------------
 -------------------------------------------------------
 OpenMP BLAS3 based DFT computing Module                
 Release: version 1.0, May 2013, Q-Chem Inc. Pittsburgh 
 -------------------------------------------------------
 -------------------------------------------------------
 OpenMP BLAS3 based DFT computing Module                
 Release: version 1.0, May 2013, Q-Chem Inc. Pittsburgh 
 -------------------------------------------------------
 ---------------------------------------
  Cycle       Energy         DIIS Error
 ---------------------------------------
    1    -722.2991949997      3.66E-04
    2    -722.8623103799      3.75E-04
    3    -722.8700102223      1.78E-04
    4    -722.8713493384      1.32E-04
    5    -722.8722206516      1.00E-04
    6    -722.8726717472      7.96E-05
    7    -722.8730200520      5.91E-05
    8    -722.8732530475      4.01E-05
    9    -722.8733882584      2.26E-05
   10    -722.8734337628      1.20E-05
   11    -722.8734499266      3.62E-06
   12    -722.8734514256      1.02E-06
   13    -722.8734515594      1.46E-07
   14    -722.8734515639      6.70E-08
   15    -722.8734515649      3.31E-08
   16    -722.8734515654      2.22E-08
   17    -722.8734515657      1.61E-08
   18    -722.8734515660      1.58E-08
   19    -722.8734515665      1.52E-08
   20    -722.8734515680      1.36E-08
   21    -722.8734515713      9.46E-09 Convergence criterion met
 ---------------------------------------

************** Final PCM Free Energy Summary **************
 G_electrostatic  =      -0.57429476 hartree =    -360.37540381 kcal/mol
 G_cavitation     =       0.00000000 hartree =       0.00000000 kcal/mol
 G_dispersion     =       0.00000000 hartree =       0.00000000 kcal/mol
 G_repulsion      =       0.00000000 hartree =       0.00000000 kcal/mol
 --------------------------------------------------
 Non-electrostatic Free Energy =       0.00000000 hartree =       0.00000000 kcal/mol
 Total                         =      -0.57429476 hartree =    -360.37540381 kcal/mol
 --------------------------------------------------
 SCF Energy (H0 + V/2)                       =    -722.87345157 
 Solute Internal Energy (H0)                 =    -722.29915681 
 Total Free Energy (H0 + V/2 + non-elec)     =    -722.87345157 hartree
                                             = -453609.93719548 kcal/mol
***********************************************************

 <S^2> = 1.0097
 SCF time:  CPU 7657.84 s  wall 560.34 s
 SCF   energy in the final basis set = -722.87345157
 Total energy in the final basis set = -722.87345157
 
 --------------------------------------------------------------
 
                    Orbital Energies (a.u.)
 --------------------------------------------------------------
 
 Alpha MOs
 -- Occupied --
-19.192 -19.190 -19.162 -19.145 -19.144 -19.140 -19.140 -10.347
-10.343 -10.259 -10.253 -10.243  -1.176  -1.149  -1.145  -1.083
 -1.054  -1.051  -0.885  -0.834  -0.804  -0.737  -0.620  -0.607
 -0.589  -0.560  -0.544  -0.535  -0.534  -0.532  -0.523  -0.496
 -0.492  -0.485  -0.475  -0.465  -0.458  -0.449  -0.441  -0.424
 -0.387  -0.355  -0.349  -0.344  -0.342  -0.335  -0.332  -0.285
 -0.260
 -- Virtual --
  0.054   0.060   0.073   0.079   0.085   0.092   0.095   0.103
  0.112   0.116   0.119   0.124   0.129   0.137   0.143   0.144
  0.148   0.152   0.155   0.165   0.169   0.171   0.181   0.184
  0.187   0.191   0.198   0.206   0.211   0.214   0.221   0.222
  0.230   0.237   0.239   0.249   0.253   0.258   0.262   0.272
  0.273   0.284   0.291   0.295   0.296   0.306   0.310   0.320
  0.321   0.328   0.341   0.342   0.346   0.347   0.351   0.356
  0.358   0.363   0.368   0.374   0.377   0.384   0.388   0.391
  0.397   0.402   0.403   0.412   0.413   0.419   0.423   0.426
  0.432   0.439   0.441   0.448   0.454   0.458   0.461   0.468
  0.475   0.479   0.480   0.489   0.491   0.498   0.505   0.510
  0.514   0.519   0.523   0.526   0.532   0.533   0.538   0.551
  0.554   0.559   0.564   0.566   0.574   0.577   0.580   0.582
  0.587   0.594   0.595   0.605   0.608   0.611   0.615   0.621
  0.625   0.629   0.632   0.647   0.649   0.652   0.655   0.664
  0.671   0.671   0.676   0.682   0.692   0.694   0.703   0.714
  0.722   0.723   0.726   0.730   0.738   0.745   0.747   0.752
  0.757   0.764   0.777   0.784   0.788   0.794   0.800   0.804
  0.810   0.817   0.823   0.829   0.832   0.840   0.845   0.846
  0.850   0.864   0.867   0.872   0.878   0.879   0.895   0.903
  0.913   0.922   0.928   0.939   0.945   0.952   0.969   0.974
  0.980   0.988   0.992   1.002   1.020   1.024   1.035   1.042
  1.048   1.058   1.071   1.079   1.087   1.090   1.110   1.113
  1.129   1.133   1.140   1.159   1.170   1.185   1.186   1.200
  1.205   1.218   1.237   1.241   1.252   1.276   1.285   1.307
  1.331   1.338   1.348   1.352   1.362   1.369   1.384   1.399
  1.404   1.407   1.417   1.441   1.456   1.459   1.492   1.509
  1.538   1.547   1.617   1.629   1.663   1.682   1.690   1.711
  1.752   1.772   1.790   1.795   1.800   1.833   1.842   1.874
  1.895   1.900   1.917   1.924   1.934   1.948   1.967   1.970
  1.973   1.980   1.989   1.996   2.006   2.012   2.026   2.031
  2.037   2.055   2.065   2.073   2.075   2.084   2.123   2.151
  2.157   2.164   2.165   2.183   2.190   2.205   2.216   2.244
  2.264   2.272   2.291   2.302   2.308   2.324   2.333   2.344
  2.367   2.372   2.392   2.398   2.419   2.451   2.452   2.465
  2.475   2.484   2.512   2.520   2.533   2.553   2.572   2.578
  2.597   2.612   2.639   2.651   2.670   2.683   2.691   2.712
  2.785   2.789   2.797   2.804   2.822   2.851   2.870   2.880
  2.894   2.910   2.914   2.921   2.946   2.956   2.993   2.997
  3.030   3.039   3.045   3.063   3.072   3.103   3.134   3.163
  3.185   3.188   3.206   3.212   3.228   3.238   3.245   3.265
  3.275   3.290   3.306   3.319   3.325   3.326   3.337   3.355
  3.360   3.369   3.378   3.406   3.414   3.436   3.448   3.454
  3.462   3.470   3.484   3.496   3.511   3.527   3.550   3.569
  3.577   3.593   3.601   3.625   3.637   3.650   3.660   3.675
  3.677   3.694   3.701   3.721   3.755   3.766   3.806   3.810
  3.817   3.839   3.898   3.925   3.950   4.063   4.072   4.092
  4.102   4.112   4.125   4.199   4.243   4.254   4.277   4.342
  4.383   4.438   4.476   4.588   4.599   4.616   4.643   4.684
  4.735   4.847   4.853   4.862   4.880   4.902   4.906   4.923
  4.928   4.954   4.995   5.036   5.073   5.149   5.238   5.255
  5.279   5.315   5.318   5.350   5.354   5.357   5.367   5.371
  5.374   5.385   5.389   5.417   5.492   5.505   5.566   5.628
  5.658   5.708   5.712   5.714   5.716   5.747   5.751   5.771
  5.776   5.996   6.003   6.191   6.252   6.253   6.298   6.308
  6.325   6.337   6.357   6.377   6.423   6.539   6.598   6.617
  6.624   6.628   6.630   6.654   6.671   6.678   6.687   6.694
  6.728   6.729   6.746   6.749   6.752   6.768   6.783   6.833
  6.853   6.937   6.965   6.974   7.006   7.039   7.050   7.173
  7.221   7.238   7.242   7.273   7.340   7.353   7.387   7.393
  7.409   7.435   7.477   7.513   8.648  22.567  22.675  22.787
 23.716  23.723  43.650  44.144  44.271  44.316  44.403  44.421
 44.451
 
 Beta MOs
 -- Occupied --
-19.203 -19.202 -19.162 -19.145 -19.144 -19.140 -19.140 -10.347
-10.342 -10.254 -10.249 -10.243  -1.205  -1.149  -1.144  -1.083
 -1.054  -1.050  -0.870  -0.848  -0.834  -0.711  -0.620  -0.602
 -0.589  -0.556  -0.537  -0.534  -0.533  -0.532  -0.520  -0.516
 -0.507  -0.494  -0.491  -0.476  -0.458  -0.456  -0.446  -0.444
 -0.388  -0.354  -0.349  -0.342  -0.337  -0.335  -0.331  -0.313
 -0.277
 -- Virtual --
  0.035   0.061   0.073   0.080   0.085   0.092   0.095   0.103
  0.112   0.117   0.120   0.124   0.129   0.137   0.143   0.145
  0.149   0.154   0.156   0.166   0.168   0.170   0.178   0.183
  0.187   0.191   0.199   0.204   0.211   0.216   0.222   0.222
  0.230   0.238   0.242   0.250   0.254   0.260   0.263   0.271
  0.275   0.282   0.293   0.296   0.297   0.306   0.312   0.320
  0.322   0.330   0.341   0.343   0.345   0.347   0.352   0.356
  0.358   0.364   0.369   0.374   0.378   0.385   0.388   0.391
  0.397   0.401   0.403   0.410   0.412   0.419   0.422   0.426
  0.431   0.442   0.443   0.450   0.456   0.460   0.464   0.469
  0.476   0.479   0.480   0.488   0.490   0.499   0.506   0.510
  0.513   0.519   0.523   0.526   0.533   0.534   0.539   0.551
  0.554   0.559   0.563   0.566   0.573   0.576   0.579   0.583
  0.587   0.594   0.596   0.598   0.607   0.611   0.616   0.620
  0.626   0.629   0.631   0.647   0.650   0.652   0.659   0.662
  0.670   0.671   0.677   0.681   0.692   0.694   0.703   0.714
  0.722   0.723   0.726   0.731   0.739   0.745   0.748   0.752
  0.757   0.764   0.777   0.785   0.788   0.794   0.800   0.806
  0.811   0.817   0.822   0.825   0.832   0.840   0.845   0.847
  0.851   0.863   0.867   0.873   0.878   0.880   0.895   0.903
  0.913   0.921   0.928   0.937   0.945   0.952   0.968   0.975
  0.979   0.987   0.992   1.002   1.011   1.023   1.037   1.043
  1.050   1.060   1.073   1.084   1.088   1.092   1.112   1.117
  1.129   1.134   1.146   1.161   1.171   1.185   1.187   1.200
  1.206   1.218   1.239   1.244   1.251   1.276   1.287   1.309
  1.333   1.339   1.349   1.354   1.365   1.370   1.384   1.394
  1.404   1.407   1.417   1.441   1.459   1.464   1.495   1.513
  1.539   1.549   1.617   1.630   1.642   1.680   1.692   1.707
  1.747   1.762   1.790   1.794   1.798   1.829   1.859   1.876
  1.897   1.904   1.922   1.924   1.935   1.951   1.958   1.972
  1.976   1.980   1.982   1.998   2.007   2.012   2.020   2.034
  2.035   2.045   2.068   2.075   2.078   2.088   2.124   2.151
  2.159   2.164   2.167   2.184   2.191   2.206   2.225   2.246
  2.264   2.270   2.286   2.296   2.304   2.324   2.331   2.337
  2.367   2.375   2.391   2.396   2.423   2.451   2.457   2.467
  2.475   2.485   2.515   2.521   2.533   2.552   2.568   2.580
  2.598   2.613   2.640   2.653   2.671   2.683   2.698   2.712
  2.785   2.793   2.795   2.800   2.815   2.824   2.872   2.881
  2.898   2.912   2.917   2.922   2.954   2.969   2.996   2.999
  3.023   3.038   3.043   3.062   3.078   3.101   3.138   3.163
  3.170   3.183   3.200   3.212   3.222   3.242   3.253   3.269
  3.282   3.296   3.307   3.319   3.328   3.343   3.346   3.354
  3.357   3.377   3.382   3.408   3.416   3.438   3.447   3.452
  3.454   3.477   3.485   3.498   3.522   3.541   3.545   3.572
  3.584   3.596   3.601   3.626   3.642   3.651   3.663   3.676
  3.679   3.698   3.709   3.733   3.756   3.767   3.807   3.815
  3.823   3.847   3.906   3.925   3.950   4.065   4.079   4.094
  4.104   4.111   4.127   4.199   4.252   4.256   4.284   4.345
  4.383   4.422   4.486   4.593   4.601   4.624   4.644   4.685
  4.739   4.849   4.853   4.863   4.876   4.883   4.903   4.910
  4.913   4.941   5.005   5.036   5.078   5.133   5.207   5.247
  5.255   5.315   5.318   5.341   5.350   5.354   5.357   5.368
  5.371   5.378   5.386   5.396   5.492   5.505   5.566   5.628
  5.657   5.708   5.712   5.714   5.716   5.724   5.728   5.771
  5.776   5.996   6.004   6.188   6.252   6.253   6.298   6.307
  6.314   6.325   6.336   6.367   6.417   6.492   6.552   6.605
  6.621   6.625   6.628   6.629   6.635   6.666   6.670   6.693
  6.716   6.722   6.724   6.746   6.750   6.768   6.783   6.832
  6.834   6.937   6.965   6.974   7.006   7.039   7.051   7.171
  7.207   7.221   7.236   7.269   7.338   7.353   7.388   7.393
  7.410   7.434   7.475   7.498   8.634  22.580  22.675  22.787
 23.716  23.723  43.635  44.144  44.271  44.302  44.403  44.421
 44.451
 --------------------------------------------------------------
 
          Ground-State Mulliken Net Atomic Charges

     Atom                 Charge (a.u.)    Spin (a.u.)
  --------------------------------------------------------
      1 C                     0.213556       0.023984
      2 O                    -0.710590       0.009396
      3 O                    -0.694835       0.002712
      4 C                     0.414161      -0.073936
      5 H                    -0.064718       0.008731
      6 H                     0.189148       0.082238
      7 C                    -0.922341       0.899865
      8 H                     0.256552       0.008304
      9 H                     0.292893       0.033951
     10 C                     0.565367       0.001850
     11 C                    -0.758276       0.007474
     12 H                     0.233087      -0.000877
     13 H                     0.227936      -0.000262
     14 H                     0.222453      -0.004875
     15 O                    -0.791736       0.001832
     16 O                    -0.694914      -0.000372
     17 H                     0.342649      -0.000776
     18 O                    -0.693362      -0.001322
     19 H                     0.339303       0.002230
     20 O                    -0.508261      -0.477913
     21 O                    -0.458072      -0.522236
  --------------------------------------------------------
  Sum of atomic charges =    -3.000000
  Sum of spin   charges =    -0.000000

 -----------------------------------------------------------------
                    Cartesian Multipole Moments
 -----------------------------------------------------------------
    Charge (ESU x 10^10)
               -14.4096
    Dipole Moment (Debye)
         X      -3.4613      Y      -7.9436      Z      -2.7211
       Tot       9.0822
    Quadrupole Moments (Debye-Ang)
        XX    -103.6230     XY       7.0981     YY     -97.5136
        XZ      41.4072     YZ       5.7232     ZZ    -321.4081
    Octopole Moments (Debye-Ang^2)
       XXX     -76.6382    XXY     -34.4790    XYY      -3.5736
       YYY    -102.5429    XXZ      56.2633    XYZ      22.1657
       YYZ      39.3969    XZZ    -110.6302    YZZ    -204.1964
       ZZZ     276.9982
    Hexadecapole Moments (Debye-Ang^3)
      XXXX   -1027.8292   XXXY      12.1832   XXYY    -223.2450
      XYYY      13.9304   YYYY    -440.8711   XXXZ     709.8893
      XXYZ      20.7495   XYYZ     184.8005   YYYZ     153.7632
      XXZZ   -1577.7886   XYZZ      75.6794   YYZZ   -1198.8047
      XZZZ    1683.0179   YZZZ     307.9647   ZZZZ  -11370.5308
 -----------------------------------------------------------------
 Calculating analytic gradient of the SCF energy
 Gradient of SCF Energy
            1           2           3           4           5           6
    1   0.0136367   0.0460646  -0.0500391  -0.0733300   0.0955070  -0.0391262
    2  -0.0223654  -0.0299420   0.0349628   0.1104164  -0.0083861  -0.0653407
    3  -0.0758053   0.0427112   0.0394360   0.1013103  -0.0438136  -0.0141593
            7           8           9          10          11          12
    1   0.0649873  -0.0758879   0.0138186   0.0996764  -0.0865678   0.0319048
    2  -0.1000107   0.0510370   0.0287535   0.0260339  -0.0045091  -0.0842807
    3   0.0252096   0.0332432  -0.0952295   0.0684463  -0.0953611   0.0479107
           13          14          15          16          17          18
    1   0.0835713  -0.0589901  -0.0528651  -0.0267587   0.0515621  -0.0768629
    2   0.0473060   0.0615420   0.0293796  -0.0778482   0.0221870   0.0181828
    3  -0.0384255   0.0689379  -0.0478352  -0.0172853   0.0825132  -0.0094338
           19          20          21
    1   0.0398441   0.0454769  -0.0456222
    2  -0.0411056   0.0012577   0.0027298
    3  -0.0704567   0.0200268  -0.0219399
 Max gradient component =       1.104E-01
 RMS gradient           =       5.684E-02
 Computing fast CPCM-ISWIG gradient
 Updating gradient with PCM contributions...
 -- total gradient after adding PCM contribution --
---------------------------------------------------
  Atom         X              Y              Z     
---------------------------------------------------
   1       0.001213      -0.000499       0.000007
   2      -0.000519       0.000248      -0.000241
   3      -0.000539       0.000260       0.000237
   4      -0.000149      -0.000011      -0.000005
   5      -0.000000       0.000009       0.000056
   6       0.000002      -0.000008      -0.000039
   7       0.000001      -0.000005      -0.000016
   8       0.000000      -0.000002       0.000002
   9      -0.000002       0.000003       0.000002
  10      -0.000003       0.000008      -0.000006
  11       0.000001       0.000002      -0.000005
  12       0.000001      -0.000001      -0.000002
  13      -0.000002       0.000001      -0.000001
  14      -0.000001      -0.000001       0.000002
  15       0.000004      -0.000002       0.000006
  16      -0.000002      -0.000006       0.000002
  17      -0.000002       0.000001      -0.000002
  18       0.000008      -0.000008      -0.000003
  19      -0.000008       0.000004       0.000004
  20      -0.000008       0.000003       0.000001
  21       0.000005       0.000005      -0.000000
---------------------------------------------------
 Number of fixed atoms: 0
 Gradient time:  CPU 1036.20 s  wall 79.92 s
 ----------------------------------------------------------------
             Standard Nuclear Orientation (Angstroms)
    I     Atom           X                Y                Z
 ----------------------------------------------------------------
    1      C       1.2250187121     0.8083142067    -4.3447431156
    2      O       0.2952824610     1.4233778576    -4.9280226376
    3      O       2.1656443195     0.1915621214    -4.9058661547
    4      C       1.2205953329     0.8650285172    -2.8019530315
    5      H       0.2079516791     1.0892660948    -2.4544078839
    6      H       1.8213514796     1.7589740628    -2.5500623204
    7      C       1.7705563243    -0.3315482620    -2.1166260548
    8      H       2.5804343017    -0.8937256874    -2.5668982740
    9      H       1.4423495481    -0.5909430940    -1.1152440467
   10      C      -0.9361316173     0.1475828647     0.3070478661
   11      C      -1.9107719259    -0.2243568550    -0.8090175686
   12      H      -2.2904742140     0.6592332730    -1.3246974035
   13      H      -2.7491717017    -0.7864746441    -0.3865375750
   14      H      -1.4084642405    -0.8780645672    -1.5286451779
   15      O      -0.4169548047    -0.8186520559     0.9401510655
   16      O      -0.7111128178     1.3614129740     0.5283459553
   17      H       0.6246632991    -0.4296141826     2.3244054343
   18      O       1.2301749229    -0.3021692589     3.0901602315
   19      H       0.6769283199     0.0887921974     3.8100952323
   20      O      -0.3249879139     0.7682559528     5.0619398980
   21      O      -1.4956520076     0.7926246354     4.4500289371
 ----------------------------------------------------------------
 Nuclear Repulsion Energy =   636.9308827127 hartrees
 There are       49 alpha and       49 beta electrons
 Discretize the solute cavity surface with Lebedev spheres
	Using 110 Lebedev grid points for each H atom
	Using 110 Lebedev grid points for other atoms
	Atomic van der Waals radii will be scaled by 1.20
 Remove points where switching function is < 1.0e-08
 Keep 1399 surface tesserae and discard 911 interior tesserae
 Molecular Surface Area = 271.462 Angst**2
 Requested basis set is def2-TZVPD
 There are 208 shells and 546 basis functions
 A cutoff of  1.0D-14 yielded  17512 shell pairs
 There are    118380 function pairs (    149319 Cartesian)
 Smallest overlap matrix eigenvalue = 5.65E-06
 Guess MOs from SCF MO coefficient file
 Reading MOs from coefficient file
 Reading MOs from coefficient file
 Long-range K will be added via erf
 Coulomb attenuation parameter = 0.3 bohr**(-1)
 An unrestricted hybrid HF-DFT SCF calculation will be
 performed using Pulay DIIS extrapolation
 Polarizable Continuum solvation model will be applied
 Exchange:     0.1670 Hartree-Fock + 1.0000 wB97X-V + LR-HF
 Correlation:  1.0000 wB97X-V
 Using SG-2 standard quadrature grid
 Nonlocal Correlation:  VV10 with C = 0.0100 and b = 6.00
 Grid used for NLC:  SG-1 standard quadrature
 SCF converges when DIIS error is below 1.0E-08
Using Q-Chem read-in guess as SCF_GUESS READ specified.

 using 16 threads for integral computing
 -------------------------------------------------------
 OpenMP Integral computing Module                
 Release: version 1.0, May 2013, Q-Chem Inc. Pittsburgh 
 -------------------------------------------------------
 using 16 threads for integral computing
 -------------------------------------------------------
 OpenMP Integral computing Module                
 Release: version 1.0, May 2013, Q-Chem Inc. Pittsburgh 
 -------------------------------------------------------
 -------------------------------------------------------
 OpenMP BLAS3 based DFT computing Module                
 Release: version 1.0, May 2013, Q-Chem Inc. Pittsburgh 
 -------------------------------------------------------
 -------------------------------------------------------
 OpenMP BLAS3 based DFT computing Module                
 Release: version 1.0, May 2013, Q-Chem Inc. Pittsburgh 
 -------------------------------------------------------
 -------------------------------------------------------
 OpenMP BLAS3 based DFT computing Module                
 Release: version 1.0, May 2013, Q-Chem Inc. Pittsburgh 
 -------------------------------------------------------
 ---------------------------------------
  Cycle       Energy         DIIS Error
 ---------------------------------------
    1    -722.2990981788      3.67E-04
    2    -722.8622908583      3.75E-04
    3    -722.8700119178      1.79E-04
    4    -722.8713575867      1.32E-04
    5    -722.8722458350      9.91E-05
    6    -722.8727354055      7.63E-05
    7    -722.8731324221      5.08E-05
    8    -722.8733601850      2.71E-05
    9    -722.8734386994      1.01E-05
   10    -722.8734499307      3.54E-06
   11    -722.8734514208      7.79E-07
   12    -722.8734515024      2.51E-07
   13    -722.8734515162      1.09E-07
   14    -722.8734515196      5.11E-08
   15    -722.8734515203      2.27E-08
   16    -722.8734515207      1.94E-08
   17    -722.8734515210      1.66E-08
   18    -722.8734515213      1.62E-08
   19    -722.8734515220      1.54E-08
   20    -722.8734515237      1.38E-08
   21    -722.8734515276      8.88E-09 Convergence criterion met
 ---------------------------------------

************** Final PCM Free Energy Summary **************
 G_electrostatic  =      -0.57428077 hartree =    -360.36662365 kcal/mol
 G_cavitation     =       0.00000000 hartree =       0.00000000 kcal/mol
 G_dispersion     =       0.00000000 hartree =       0.00000000 kcal/mol
 G_repulsion      =       0.00000000 hartree =       0.00000000 kcal/mol
 --------------------------------------------------
 Non-electrostatic Free Energy =       0.00000000 hartree =       0.00000000 kcal/mol
 Total                         =      -0.57428077 hartree =    -360.36662365 kcal/mol
 --------------------------------------------------
 SCF Energy (H0 + V/2)                       =    -722.87345153 
 Solute Internal Energy (H0)                 =    -722.29917076 
 Total Free Energy (H0 + V/2 + non-elec)     =    -722.87345153 hartree
                                             = -453609.93716800 kcal/mol
***********************************************************

 <S^2> = 1.0097
 SCF time:  CPU 7634.26 s  wall 558.50 s
 SCF   energy in the final basis set = -722.87345153
 Total energy in the final basis set = -722.87345153
 
 --------------------------------------------------------------
 
                    Orbital Energies (a.u.)
 --------------------------------------------------------------
 
 Alpha MOs
 -- Occupied --
-19.192 -19.190 -19.162 -19.145 -19.144 -19.140 -19.140 -10.347
-10.343 -10.259 -10.253 -10.243  -1.176  -1.149  -1.145  -1.083
 -1.054  -1.051  -0.885  -0.834  -0.804  -0.737  -0.620  -0.606
 -0.589  -0.560  -0.544  -0.535  -0.534  -0.532  -0.523  -0.496
 -0.492  -0.485  -0.475  -0.465  -0.458  -0.449  -0.441  -0.424
 -0.387  -0.355  -0.349  -0.344  -0.342  -0.335  -0.332  -0.285
 -0.260
 -- Virtual --
  0.054   0.060   0.073   0.079   0.085   0.092   0.095   0.103
  0.112   0.116   0.119   0.124   0.129   0.137   0.143   0.144
  0.148   0.152   0.155   0.165   0.169   0.171   0.181   0.184
  0.187   0.191   0.198   0.206   0.211   0.214   0.221   0.222
  0.230   0.237   0.239   0.249   0.253   0.258   0.262   0.272
  0.273   0.284   0.291   0.295   0.296   0.306   0.310   0.320
  0.321   0.328   0.341   0.342   0.346   0.347   0.351   0.356
  0.358   0.363   0.368   0.374   0.377   0.384   0.388   0.391
  0.397   0.402   0.403   0.412   0.413   0.419   0.423   0.426
  0.432   0.439   0.441   0.448   0.454   0.458   0.461   0.468
  0.475   0.479   0.480   0.489   0.491   0.498   0.505   0.511
  0.514   0.519   0.523   0.526   0.532   0.533   0.538   0.551
  0.554   0.559   0.564   0.566   0.574   0.577   0.580   0.582
  0.587   0.594   0.595   0.605   0.608   0.611   0.615   0.621
  0.625   0.629   0.632   0.647   0.649   0.652   0.655   0.664
  0.671   0.671   0.676   0.682   0.692   0.694   0.703   0.715
  0.722   0.723   0.726   0.730   0.738   0.745   0.747   0.752
  0.757   0.764   0.777   0.784   0.788   0.794   0.800   0.804
  0.810   0.817   0.823   0.829   0.832   0.840   0.845   0.846
  0.850   0.864   0.867   0.872   0.878   0.879   0.895   0.903
  0.913   0.922   0.928   0.939   0.945   0.952   0.969   0.974
  0.980   0.988   0.992   1.002   1.020   1.024   1.035   1.042
  1.048   1.058   1.071   1.079   1.087   1.090   1.109   1.113
  1.129   1.133   1.140   1.159   1.170   1.185   1.186   1.200
  1.205   1.218   1.237   1.240   1.252   1.276   1.285   1.307
  1.331   1.338   1.348   1.352   1.362   1.369   1.384   1.399
  1.404   1.407   1.417   1.441   1.456   1.460   1.492   1.509
  1.538   1.547   1.617   1.629   1.663   1.682   1.689   1.711
  1.752   1.772   1.790   1.795   1.800   1.833   1.842   1.875
  1.895   1.900   1.917   1.924   1.934   1.948   1.967   1.970
  1.973   1.980   1.989   1.996   2.006   2.012   2.026   2.031
  2.037   2.055   2.065   2.073   2.075   2.084   2.123   2.151
  2.157   2.164   2.165   2.183   2.190   2.205   2.216   2.244
  2.264   2.272   2.291   2.302   2.308   2.324   2.333   2.344
  2.367   2.372   2.392   2.398   2.419   2.451   2.452   2.465
  2.475   2.484   2.512   2.520   2.533   2.553   2.572   2.578
  2.597   2.611   2.639   2.650   2.670   2.683   2.691   2.712
  2.785   2.789   2.797   2.804   2.822   2.851   2.870   2.881
  2.895   2.910   2.914   2.921   2.946   2.956   2.993   2.997
  3.030   3.039   3.045   3.063   3.073   3.103   3.134   3.163
  3.185   3.188   3.206   3.212   3.228   3.238   3.246   3.265
  3.275   3.290   3.306   3.319   3.325   3.326   3.337   3.355
  3.360   3.369   3.378   3.406   3.414   3.436   3.448   3.454
  3.462   3.471   3.484   3.496   3.511   3.528   3.550   3.569
  3.577   3.593   3.601   3.624   3.637   3.650   3.660   3.675
  3.677   3.694   3.700   3.721   3.754   3.766   3.806   3.810
  3.817   3.840   3.898   3.925   3.950   4.063   4.072   4.092
  4.102   4.112   4.125   4.199   4.243   4.254   4.277   4.342
  4.383   4.438   4.476   4.588   4.599   4.616   4.643   4.684
  4.735   4.849   4.853   4.861   4.880   4.902   4.906   4.923
  4.928   4.954   4.995   5.036   5.073   5.149   5.238   5.255
  5.279   5.315   5.318   5.350   5.354   5.357   5.367   5.371
  5.374   5.385   5.389   5.417   5.492   5.505   5.566   5.628
  5.658   5.708   5.712   5.714   5.716   5.747   5.751   5.771
  5.776   5.996   6.003   6.191   6.252   6.253   6.298   6.308
  6.324   6.337   6.357   6.377   6.423   6.539   6.598   6.617
  6.624   6.628   6.630   6.654   6.671   6.678   6.687   6.694
  6.728   6.729   6.746   6.749   6.752   6.768   6.783   6.833
  6.853   6.937   6.965   6.974   7.006   7.039   7.051   7.173
  7.221   7.238   7.242   7.273   7.340   7.353   7.388   7.393
  7.409   7.435   7.477   7.513   8.648  22.567  22.675  22.787
 23.716  23.723  43.650  44.144  44.271  44.316  44.403  44.421
 44.451
 
 Beta MOs
 -- Occupied --
-19.203 -19.202 -19.162 -19.145 -19.144 -19.140 -19.140 -10.347
-10.342 -10.254 -10.249 -10.243  -1.205  -1.149  -1.144  -1.083
 -1.054  -1.050  -0.870  -0.848  -0.834  -0.711  -0.620  -0.602
 -0.589  -0.556  -0.537  -0.534  -0.533  -0.532  -0.520  -0.516
 -0.507  -0.494  -0.491  -0.476  -0.458  -0.456  -0.446  -0.444
 -0.388  -0.354  -0.349  -0.342  -0.337  -0.335  -0.331  -0.313
 -0.277
 -- Virtual --
  0.035   0.061   0.073   0.080   0.085   0.092   0.095   0.103
  0.112   0.117   0.120   0.124   0.129   0.138   0.143   0.145
  0.149   0.154   0.156   0.166   0.168   0.170   0.178   0.183
  0.187   0.191   0.199   0.204   0.211   0.216   0.222   0.222
  0.230   0.238   0.242   0.250   0.254   0.260   0.263   0.271
  0.275   0.282   0.293   0.296   0.297   0.306   0.312   0.320
  0.322   0.330   0.341   0.343   0.345   0.347   0.352   0.356
  0.358   0.364   0.369   0.374   0.378   0.385   0.388   0.391
  0.397   0.401   0.403   0.410   0.412   0.419   0.422   0.426
  0.431   0.442   0.443   0.450   0.456   0.460   0.464   0.469
  0.476   0.479   0.480   0.488   0.490   0.499   0.506   0.510
  0.513   0.519   0.523   0.526   0.533   0.534   0.539   0.551
  0.554   0.559   0.563   0.566   0.573   0.576   0.579   0.583
  0.587   0.594   0.596   0.598   0.607   0.611   0.616   0.620
  0.626   0.629   0.631   0.647   0.650   0.652   0.659   0.662
  0.670   0.671   0.677   0.681   0.692   0.694   0.703   0.714
  0.722   0.723   0.726   0.731   0.739   0.745   0.748   0.752
  0.757   0.764   0.777   0.785   0.788   0.794   0.800   0.806
  0.811   0.817   0.822   0.825   0.832   0.840   0.845   0.847
  0.851   0.864   0.868   0.872   0.878   0.880   0.895   0.903
  0.913   0.921   0.928   0.937   0.945   0.952   0.968   0.975
  0.979   0.987   0.992   1.002   1.011   1.023   1.037   1.043
  1.050   1.060   1.073   1.084   1.088   1.092   1.112   1.117
  1.129   1.134   1.146   1.161   1.171   1.185   1.187   1.200
  1.206   1.218   1.239   1.243   1.251   1.276   1.287   1.309
  1.333   1.339   1.349   1.353   1.365   1.371   1.384   1.394
  1.404   1.407   1.417   1.441   1.459   1.465   1.495   1.513
  1.539   1.549   1.617   1.630   1.642   1.680   1.692   1.707
  1.747   1.762   1.790   1.794   1.798   1.829   1.859   1.876
  1.897   1.903   1.922   1.924   1.935   1.951   1.958   1.972
  1.976   1.980   1.982   1.998   2.007   2.012   2.020   2.034
  2.035   2.045   2.068   2.075   2.078   2.089   2.124   2.151
  2.159   2.164   2.167   2.184   2.191   2.206   2.225   2.245
  2.264   2.270   2.286   2.297   2.304   2.324   2.331   2.337
  2.367   2.375   2.391   2.396   2.423   2.451   2.457   2.467
  2.475   2.484   2.515   2.521   2.533   2.552   2.568   2.580
  2.598   2.613   2.640   2.653   2.671   2.683   2.699   2.712
  2.785   2.793   2.795   2.800   2.815   2.824   2.872   2.881
  2.898   2.912   2.917   2.922   2.954   2.969   2.996   2.999
  3.023   3.039   3.043   3.062   3.078   3.101   3.138   3.163
  3.170   3.183   3.200   3.212   3.222   3.242   3.253   3.269
  3.282   3.296   3.307   3.319   3.328   3.343   3.346   3.354
  3.357   3.377   3.382   3.408   3.416   3.439   3.447   3.452
  3.454   3.477   3.485   3.498   3.522   3.541   3.545   3.572
  3.584   3.596   3.601   3.626   3.642   3.652   3.663   3.676
  3.679   3.698   3.709   3.733   3.756   3.767   3.807   3.816
  3.824   3.847   3.906   3.925   3.950   4.065   4.079   4.094
  4.104   4.111   4.127   4.199   4.252   4.256   4.284   4.344
  4.383   4.422   4.486   4.593   4.601   4.624   4.644   4.685
  4.739   4.850   4.853   4.862   4.876   4.883   4.903   4.910
  4.913   4.941   5.005   5.036   5.078   5.133   5.207   5.247
  5.255   5.315   5.318   5.341   5.350   5.354   5.357   5.368
  5.371   5.378   5.386   5.396   5.492   5.505   5.566   5.628
  5.657   5.708   5.712   5.714   5.716   5.724   5.728   5.771
  5.776   5.996   6.004   6.188   6.252   6.253   6.298   6.307
  6.314   6.324   6.336   6.367   6.417   6.492   6.552   6.605
  6.621   6.625   6.628   6.629   6.635   6.666   6.670   6.693
  6.716   6.722   6.724   6.746   6.750   6.768   6.783   6.832
  6.834   6.937   6.965   6.974   7.006   7.039   7.051   7.171
  7.207   7.221   7.236   7.269   7.338   7.353   7.388   7.393
  7.409   7.434   7.475   7.498   8.634  22.580  22.675  22.787
 23.716  23.723  43.635  44.144  44.271  44.302  44.403  44.421
 44.451
 --------------------------------------------------------------
 
          Ground-State Mulliken Net Atomic Charges

     Atom                 Charge (a.u.)    Spin (a.u.)
  --------------------------------------------------------
      1 C                     0.213444       0.023982
      2 O                    -0.708781       0.009396
      3 O                    -0.696652       0.002707
      4 C                     0.414288      -0.073821
      5 H                    -0.064977       0.008699
      6 H                     0.189387       0.082177
      7 C                    -0.922344       0.899887
      8 H                     0.256443       0.008323
      9 H                     0.293027       0.033894
     10 C                     0.565399       0.001851
     11 C                    -0.758259       0.007474
     12 H                     0.233060      -0.000875
     13 H                     0.227943      -0.000262
     14 H                     0.222432      -0.004878
     15 O                    -0.791741       0.001832
     16 O                    -0.694920      -0.000372
     17 H                     0.342644      -0.000775
     18 O                    -0.693361      -0.001322
     19 H                     0.339302       0.002230
     20 O                    -0.508262      -0.477912
     21 O                    -0.458072      -0.522237
  --------------------------------------------------------
  Sum of atomic charges =    -3.000000
  Sum of spin   charges =    -0.000000

 -----------------------------------------------------------------
                    Cartesian Multipole Moments
 -----------------------------------------------------------------
    Charge (ESU x 10^10)
               -14.4096
    Dipole Moment (Debye)
         X      -3.4829      Y      -7.9313      Z      -2.7214
       Tot       9.0798
    Quadrupole Moments (Debye-Ang)
        XX    -103.6770     XY       7.0960     YY     -97.4927
        XZ      41.5154     YZ       5.6608     ZZ    -321.4068
    Octopole Moments (Debye-Ang^2)
       XXX     -76.7633    XXY     -34.4906    XYY      -3.5737
       YYY    -102.4728    XXZ      56.5308    XYZ      22.1767
       YYZ      39.2930    XZZ    -111.1689    YZZ    -203.8707
       ZZZ     276.9892
    Hexadecapole Moments (Debye-Ang^3)
      XXXX   -1028.1253   XXXY      12.1527   XXYY    -223.2561
      XYYY      13.9759   YYYY    -440.6948   XXXZ     710.5300
      XXYZ      20.8098   XYYZ     184.8096   YYYZ     153.4163
      XXZZ   -1579.1192   XYZZ      75.6403   YYZZ   -1198.2665
      XZZZ    1685.7388   YZZZ     306.2211   ZZZZ  -11370.4839
 -----------------------------------------------------------------
 Calculating analytic gradient of the SCF energy
 Gradient of SCF Energy
            1           2           3           4           5           6
    1   0.0112478   0.0471805  -0.0489009  -0.0731933   0.0955063  -0.0391446
    2  -0.0207399  -0.0306807   0.0341810   0.1102480  -0.0083983  -0.0653095
    3  -0.0758340   0.0434265   0.0387413   0.1013996  -0.0438800  -0.0141442
            7           8           9          10          11          12
    1   0.0650451  -0.0759110   0.0138017   0.0996625  -0.0865643   0.0319014
    2  -0.0999841   0.0510521   0.0287594   0.0260291  -0.0045152  -0.0842650
    3   0.0251212   0.0332439  -0.0951746   0.0684361  -0.0953393   0.0479000
           13          14          15          16          17          18
    1   0.0835603  -0.0589746  -0.0528629  -0.0267522   0.0515605  -0.0768613
    2   0.0472995   0.0615402   0.0293776  -0.0778455   0.0221878   0.0181815
    3  -0.0384210   0.0689250  -0.0478314  -0.0172806   0.0825150  -0.0094342
           19          20          21
    1   0.0398432   0.0454769  -0.0456212
    2  -0.0411054   0.0012579   0.0027293
    3  -0.0704568   0.0200265  -0.0219391
 Max gradient component =       1.102E-01
 RMS gradient           =       5.681E-02
 Computing fast CPCM-ISWIG gradient
 Updating gradient with PCM contributions...
 -- total gradient after adding PCM contribution --
---------------------------------------------------
  Atom         X              Y              Z     
---------------------------------------------------
   1      -0.001236       0.000503       0.000005
   2       0.000531      -0.000251       0.000242
   3       0.000549      -0.000264      -0.000242
   4       0.000150       0.000005       0.000007
   5       0.000005      -0.000002      -0.000057
   6       0.000005       0.000004       0.000040
   7      -0.000003       0.000011       0.000008
   8       0.000005      -0.000007       0.000001
   9       0.000001      -0.000003       0.000000
  10      -0.000004       0.000007      -0.000005
  11       0.000001       0.000002      -0.000005
  12       0.000001      -0.000001      -0.000002
  13      -0.000002       0.000001      -0.000001
  14      -0.000001      -0.000001       0.000002
  15       0.000004      -0.000002       0.000006
  16      -0.000001      -0.000006       0.000001
  17      -0.000002       0.000001      -0.000002
  18       0.000008      -0.000008      -0.000003
  19      -0.000008       0.000003       0.000005
  20      -0.000007       0.000003       0.000000
  21       0.000005       0.000005      -0.000000
---------------------------------------------------
 Number of fixed atoms: 0
 Gradient time:  CPU 1032.91 s  wall 79.72 s
 ----------------------------------------------------------------
             Standard Nuclear Orientation (Angstroms)
    I     Atom           X                Y                Z
 ----------------------------------------------------------------
    1      C       1.2260187121     0.8093142067    -4.3447431156
    2      O       0.2952824610     1.4233778576    -4.9280226376
    3      O       2.1656443195     0.1915621214    -4.9058661547
    4      C       1.2205953329     0.8650285172    -2.8019530315
    5      H       0.2079516791     1.0892660948    -2.4544078839
    6      H       1.8213514796     1.7589740628    -2.5500623204
    7      C       1.7705563243    -0.3315482620    -2.1166260548
    8      H       2.5804343017    -0.8937256874    -2.5668982740
    9      H       1.4423495481    -0.5909430940    -1.1152440467
   10      C      -0.9361316173     0.1475828647     0.3070478661
   11      C      -1.9107719259    -0.2243568550    -0.8090175686
   12      H      -2.2904742140     0.6592332730    -1.3246974035
   13      H      -2.7491717017    -0.7864746441    -0.3865375750
   14      H      -1.4084642405    -0.8780645672    -1.5286451779
   15      O      -0.4169548047    -0.8186520559     0.9401510655
   16      O      -0.7111128178     1.3614129740     0.5283459553
   17      H       0.6246632991    -0.4296141826     2.3244054343
   18      O       1.2301749229    -0.3021692589     3.0901602315
   19      H       0.6769283199     0.0887921974     3.8100952323
   20      O      -0.3249879139     0.7682559528     5.0619398980
   21      O      -1.4956520076     0.7926246354     4.4500289371
 ----------------------------------------------------------------
 Nuclear Repulsion Energy =   636.9283508877 hartrees
 There are       49 alpha and       49 beta electrons
 Discretize the solute cavity surface with Lebedev spheres
	Using 110 Lebedev grid points for each H atom
	Using 110 Lebedev grid points for other atoms
	Atomic van der Waals radii will be scaled by 1.20
 Remove points where switching function is < 1.0e-08
 Keep 1399 surface tesserae and discard 911 interior tesserae
 Molecular Surface Area = 271.463 Angst**2
 Requested basis set is def2-TZVPD
 There are 208 shells and 546 basis functions
 A cutoff of  1.0D-14 yielded  17512 shell pairs
 There are    118380 function pairs (    149319 Cartesian)
 Smallest overlap matrix eigenvalue = 5.65E-06
 Guess MOs from SCF MO coefficient file
 Reading MOs from coefficient file
 Reading MOs from coefficient file
 Long-range K will be added via erf
 Coulomb attenuation parameter = 0.3 bohr**(-1)
 An unrestricted hybrid HF-DFT SCF calculation will be
 performed using Pulay DIIS extrapolation
 Polarizable Continuum solvation model will be applied
 Exchange:     0.1670 Hartree-Fock + 1.0000 wB97X-V + LR-HF
 Correlation:  1.0000 wB97X-V
 Using SG-2 standard quadrature grid
 Nonlocal Correlation:  VV10 with C = 0.0100 and b = 6.00
 Grid used for NLC:  SG-1 standard quadrature
 SCF converges when DIIS error is below 1.0E-08
Using Q-Chem read-in guess as SCF_GUESS READ specified.

 using 16 threads for integral computing
 -------------------------------------------------------
 OpenMP Integral computing Module                
 Release: version 1.0, May 2013, Q-Chem Inc. Pittsburgh 
 -------------------------------------------------------
 using 16 threads for integral computing
 -------------------------------------------------------
 OpenMP Integral computing Module                
 Release: version 1.0, May 2013, Q-Chem Inc. Pittsburgh 
 -------------------------------------------------------
 -------------------------------------------------------
 OpenMP BLAS3 based DFT computing Module                
 Release: version 1.0, May 2013, Q-Chem Inc. Pittsburgh 
 -------------------------------------------------------
 -------------------------------------------------------
 OpenMP BLAS3 based DFT computing Module                
 Release: version 1.0, May 2013, Q-Chem Inc. Pittsburgh 
 -------------------------------------------------------
 -------------------------------------------------------
 OpenMP BLAS3 based DFT computing Module                
 Release: version 1.0, May 2013, Q-Chem Inc. Pittsburgh 
 -------------------------------------------------------
 ---------------------------------------
  Cycle       Energy         DIIS Error
 ---------------------------------------
    1    -722.2991495796      3.66E-04
    2    -722.8623119727      3.75E-04
    3    -722.8700108502      1.78E-04
    4    -722.8713497104      1.32E-04
    5    -722.8722186675      1.00E-04
    6    -722.8726674672      7.98E-05
    7    -722.8730094736      5.99E-05
    8    -722.8732380643      4.16E-05
    9    -722.8733753793      2.49E-05
   10    -722.8734270505      1.42E-05
   11    -722.8734490677      4.81E-06
   12    -722.8734516761      1.41E-06
   13    -722.8734519228      1.99E-07
   14    -722.8734519295      6.55E-08
   15    -722.8734519305      3.84E-08
   16    -722.8734519310      2.39E-08
   17    -722.8734519314      1.62E-08
   18    -722.8734519316      1.58E-08
   19    -722.8734519322      1.52E-08
   20    -722.8734519336      1.38E-08
   21    -722.8734519369      9.78E-09 Convergence criterion met
 ---------------------------------------

************** Final PCM Free Energy Summary **************
 G_electrostatic  =      -0.57428425 hartree =    -360.36880389 kcal/mol
 G_cavitation     =       0.00000000 hartree =       0.00000000 kcal/mol
 G_dispersion     =       0.00000000 hartree =       0.00000000 kcal/mol
 G_repulsion      =       0.00000000 hartree =       0.00000000 kcal/mol
 --------------------------------------------------
 Non-electrostatic Free Energy =       0.00000000 hartree =       0.00000000 kcal/mol
 Total                         =      -0.57428425 hartree =    -360.36880389 kcal/mol
 --------------------------------------------------
 SCF Energy (H0 + V/2)                       =    -722.87345194 
 Solute Internal Energy (H0)                 =    -722.29916769 
 Total Free Energy (H0 + V/2 + non-elec)     =    -722.87345194 hartree
                                             = -453609.93742486 kcal/mol
***********************************************************

 <S^2> = 1.0097
 SCF time:  CPU 7651.98 s  wall 559.23 s
 SCF   energy in the final basis set = -722.87345194
 Total energy in the final basis set = -722.87345194
 
 --------------------------------------------------------------
 
                    Orbital Energies (a.u.)
 --------------------------------------------------------------
 
 Alpha MOs
 -- Occupied --
-19.192 -19.190 -19.162 -19.145 -19.144 -19.140 -19.140 -10.347
-10.343 -10.259 -10.253 -10.243  -1.176  -1.149  -1.145  -1.083
 -1.054  -1.051  -0.885  -0.834  -0.804  -0.737  -0.620  -0.606
 -0.589  -0.560  -0.544  -0.535  -0.534  -0.532  -0.523  -0.496
 -0.492  -0.485  -0.475  -0.465  -0.458  -0.449  -0.441  -0.424
 -0.387  -0.355  -0.349  -0.344  -0.342  -0.335  -0.332  -0.285
 -0.260
 -- Virtual --
  0.054   0.060   0.073   0.079   0.085   0.092   0.095   0.103
  0.112   0.116   0.119   0.124   0.129   0.137   0.143   0.144
  0.148   0.152   0.155   0.165   0.169   0.171   0.181   0.184
  0.187   0.191   0.199   0.206   0.211   0.214   0.221   0.222
  0.230   0.237   0.239   0.249   0.253   0.258   0.262   0.272
  0.273   0.284   0.291   0.295   0.296   0.306   0.310   0.320
  0.321   0.328   0.341   0.342   0.346   0.347   0.351   0.356
  0.358   0.363   0.368   0.374   0.377   0.384   0.388   0.391
  0.397   0.402   0.403   0.412   0.413   0.419   0.423   0.426
  0.432   0.439   0.441   0.448   0.454   0.458   0.461   0.468
  0.475   0.479   0.480   0.489   0.491   0.498   0.505   0.511
  0.514   0.519   0.523   0.526   0.532   0.533   0.538   0.551
  0.554   0.559   0.564   0.566   0.574   0.577   0.580   0.582
  0.587   0.594   0.595   0.605   0.608   0.611   0.615   0.621
  0.625   0.629   0.632   0.647   0.649   0.652   0.655   0.664
  0.671   0.671   0.676   0.682   0.692   0.694   0.703   0.715
  0.722   0.723   0.726   0.730   0.738   0.745   0.747   0.752
  0.757   0.764   0.777   0.784   0.788   0.794   0.800   0.804
  0.810   0.817   0.823   0.829   0.832   0.840   0.845   0.846
  0.850   0.864   0.867   0.872   0.878   0.879   0.895   0.903
  0.913   0.922   0.928   0.939   0.945   0.952   0.969   0.974
  0.980   0.988   0.992   1.002   1.020   1.024   1.035   1.042
  1.048   1.058   1.071   1.079   1.087   1.090   1.110   1.113
  1.129   1.133   1.140   1.159   1.170   1.185   1.186   1.200
[...]
 O         -0.030  0.001  0.026   -0.000  0.000  0.000    0.001 -0.001  0.000
 O         -0.035 -0.002  0.029   -0.000 -0.000  0.000    0.000  0.000  0.000
 H          0.000 -0.002  0.000    0.000 -0.000  0.000   -0.000  0.000 -0.000
 O          0.000  0.000 -0.000   -0.000 -0.000  0.000    0.000  0.000  0.000
 H         -0.003 -0.004 -0.000    0.000  0.002 -0.001   -0.000 -0.000  0.000
 O          0.000  0.000 -0.000   -0.000 -0.000  0.000    0.000  0.000 -0.000
 O          0.000 -0.000  0.000   -0.000  0.000  0.000    0.000 -0.000  0.000
 TransDip   0.081  0.006 -0.076    0.031 -0.040 -0.018    0.006 -0.044  0.066

 Mode:                37                     38                     39
 Frequency:      1283.56                1322.74                1358.28
 Force Cnst:     15.4878                 1.6805                 1.5129
 Red. Mass:      15.9554                 1.6302                 1.3919
 IR Active:          YES                    YES                    YES
 IR Intens:        1.121                 39.733                 28.783
 Raman Active:       YES                    YES                    YES
               X      Y      Z        X      Y      Z        X      Y      Z
 C         -0.000  0.000  0.000   -0.026  0.009 -0.072   -0.001  0.000 -0.004
 O         -0.000  0.000 -0.000    0.062 -0.038  0.050    0.002 -0.001  0.001
 O         -0.000 -0.000 -0.000   -0.025  0.017  0.017   -0.001  0.001  0.001
 C          0.000 -0.000  0.000   -0.024  0.072 -0.170    0.001 -0.001 -0.001
 H          0.000  0.000 -0.000    0.216 -0.253  0.760    0.008  0.011  0.015
 H         -0.000 -0.000 -0.000   -0.058 -0.060  0.359   -0.016  0.007  0.008
 C         -0.000  0.000 -0.000   -0.028 -0.006  0.053   -0.000  0.000 -0.000
 H         -0.000 -0.000  0.000   -0.012  0.032  0.016    0.000 -0.000  0.002
 H         -0.000  0.000 -0.000    0.188 -0.285  0.061    0.001 -0.003  0.000
 C          0.000 -0.001  0.000    0.002 -0.001  0.002   -0.060 -0.002 -0.069
 C         -0.000  0.000  0.000    0.001  0.001  0.001   -0.082 -0.042 -0.091
 H          0.000  0.000  0.000   -0.005 -0.004 -0.003    0.288  0.329  0.299
 H          0.000 -0.000  0.001   -0.002 -0.003 -0.011    0.164  0.103  0.554
 H          0.000  0.000  0.000   -0.008 -0.004 -0.001    0.527  0.086  0.238
 O          0.000 -0.000 -0.000   -0.001  0.002 -0.002    0.031 -0.047  0.037
 O          0.000  0.000 -0.000   -0.000 -0.001 -0.000    0.013  0.048  0.014
 H         -0.033  0.017  0.028    0.000 -0.000  0.000   -0.002  0.000 -0.006
 O         -0.001  0.002  0.005   -0.000 -0.000 -0.000    0.000  0.000  0.001
 H          0.002  0.004 -0.020    0.001  0.003 -0.001    0.001 -0.004  0.002
 O          0.629 -0.017  0.321    0.000 -0.000  0.000    0.000  0.000 -0.000
 O         -0.626  0.014 -0.326   -0.000  0.000 -0.000    0.000 -0.000  0.000
 TransDip  -0.030 -0.001 -0.017   -0.142  0.102 -0.101   -0.082  0.093 -0.119

 Mode:                40                     41                     42
 Frequency:      1415.61                1434.40                1436.60
 Force Cnst:      3.7570                 1.5362                 3.1295
 Red. Mass:       3.1820                 1.2672                 2.5737
 IR Active:          YES                    YES                    YES
 IR Intens:      335.706                 68.312                345.013
 Raman Active:       YES                    YES                    YES
               X      Y      Z        X      Y      Z        X      Y      Z
 C         -0.019  0.010  0.311   -0.008 -0.006 -0.096    0.001 -0.000  0.010
 O         -0.102  0.068 -0.085    0.034 -0.022  0.028   -0.004  0.002 -0.003
 O          0.123 -0.080 -0.098   -0.032  0.023  0.028    0.003 -0.002 -0.003
 C          0.003 -0.008 -0.142    0.026 -0.078  0.018    0.001 -0.002 -0.001
 H          0.248  0.332  0.375    0.185  0.714  0.033    0.002  0.001  0.000
 H         -0.398  0.176  0.210   -0.537  0.276  0.219   -0.002 -0.000  0.001
 C          0.018 -0.066  0.052    0.011 -0.007 -0.015   -0.003  0.005 -0.003
 H          0.019  0.264 -0.344    0.022  0.002 -0.002   -0.001 -0.018  0.029
 H         -0.231  0.181  0.028   -0.059  0.075 -0.020    0.025 -0.029 -0.003
 C         -0.001  0.000 -0.003   -0.006  0.004 -0.005    0.181  0.041  0.210
 C         -0.001  0.001  0.001    0.006 -0.003  0.008   -0.059 -0.067 -0.062
 H          0.013  0.003 -0.005   -0.018 -0.040 -0.042   -0.086 -0.084 -0.114
 H          0.008 -0.014 -0.003   -0.026  0.044  0.006   -0.170  0.468  0.411
 H         -0.008 -0.003 -0.000    0.000  0.052 -0.044    0.461  0.437 -0.148
 O          0.000 -0.001  0.002    0.003 -0.004  0.003   -0.065  0.093 -0.079
 O          0.000  0.001  0.001    0.000  0.000  0.000   -0.039 -0.126 -0.041
 H          0.000  0.000  0.000   -0.000  0.000 -0.001    0.006  0.008  0.007
 O         -0.000 -0.000 -0.000    0.000  0.000  0.000   -0.000 -0.000 -0.001
 H         -0.000  0.001 -0.001    0.000 -0.001  0.000   -0.000 -0.002  0.003
 O         -0.000 -0.000  0.000    0.000  0.000 -0.000   -0.000  0.000  0.000
 O         -0.000 -0.000 -0.000    0.000 -0.000  0.000   -0.000 -0.000  0.000
 TransDip  -0.060  0.056  0.581   -0.066  0.125 -0.224    0.372  0.148  0.440

 Mode:                43                     44                     45
 Frequency:      1451.16                1454.78                1466.73
 Force Cnst:      1.6577                 1.8019                 1.3322
 Red. Mass:       1.3360                 1.4451                 1.0510
 IR Active:          YES                    YES                    YES
 IR Intens:       38.775                229.271                 11.078
 Raman Active:       YES                    YES                    YES
               X      Y      Z        X      Y      Z        X      Y      Z
 C          0.016 -0.009  0.078   -0.000  0.001  0.007    0.001 -0.000  0.004
 O         -0.035  0.022 -0.030   -0.002  0.001 -0.001   -0.002  0.001 -0.001
 O          0.022 -0.015 -0.018    0.003 -0.002 -0.002    0.001 -0.001 -0.001
 C          0.016 -0.044 -0.002   -0.003  0.010 -0.003   -0.000  0.001 -0.000
 H          0.058  0.136 -0.001   -0.020 -0.083  0.005   -0.003 -0.017 -0.000
 H         -0.100  0.029  0.045    0.058 -0.029 -0.024    0.013 -0.007 -0.005
 C         -0.049  0.101 -0.058    0.001 -0.004  0.004   -0.002  0.005 -0.002
 H         -0.019 -0.355  0.559   -0.001  0.017 -0.026   -0.002 -0.016  0.024
 H          0.480 -0.512 -0.040   -0.017  0.016  0.004    0.023 -0.024 -0.001
 C         -0.009 -0.004 -0.010   -0.085  0.039 -0.105   -0.027  0.002  0.006
 C          0.007  0.001  0.002    0.057 -0.040  0.061   -0.035  0.000  0.042
 H         -0.041 -0.010  0.018   -0.303 -0.324 -0.197    0.523 -0.067 -0.489
 H         -0.022  0.024 -0.022   -0.331  0.542  0.044    0.262 -0.240  0.275
 H          0.003 -0.010  0.010    0.187  0.446 -0.274   -0.198  0.311 -0.373
 O          0.003 -0.004  0.003    0.040 -0.061  0.049    0.006 -0.005  0.002
 O          0.002  0.006  0.002    0.009  0.020  0.011    0.003  0.003 -0.000
 H         -0.000 -0.001 -0.001   -0.002 -0.002 -0.010   -0.001  0.001 -0.000
 O          0.000  0.000  0.000    0.000  0.000  0.001    0.000  0.000  0.000
 H         -0.000 -0.002  0.001    0.004 -0.001  0.002   -0.002 -0.002 -0.000
 O          0.000  0.000 -0.000    0.000 -0.000 -0.000    0.000  0.000 -0.000
 O          0.000 -0.000  0.000   -0.000 -0.000 -0.000    0.000 -0.000  0.000
 TransDip   0.061 -0.064  0.179   -0.254  0.288 -0.296    0.058  0.006 -0.089

 Mode:                46                     47                     48
 Frequency:      1589.01                1594.37                1660.18
 Force Cnst:     11.3952                15.0860                 1.7355
 Red. Mass:       7.6599                10.0727                 1.0688
 IR Active:          YES                    YES                    YES
 IR Intens:     1139.227               1260.290                 82.194
 Raman Active:       YES                    YES                    YES
               X      Y      Z        X      Y      Z        X      Y      Z
 C          0.002 -0.002  0.001    0.639 -0.421 -0.007    0.000 -0.000  0.000
 O         -0.001  0.001 -0.001   -0.213  0.141 -0.118   -0.000  0.000 -0.000
 O         -0.000  0.000  0.000   -0.230  0.152  0.121   -0.000  0.000 -0.000
 C          0.000 -0.001 -0.001   -0.058  0.045 -0.037   -0.000  0.000  0.000
 H          0.003  0.005  0.006    0.112 -0.003  0.434   -0.000 -0.000 -0.000
 H         -0.003  0.000  0.004   -0.040  0.015  0.049   -0.000  0.000 -0.000
 C         -0.002  0.004 -0.003    0.009 -0.029  0.007    0.000 -0.000  0.000
 H         -0.000 -0.015  0.023    0.023  0.053 -0.094   -0.000  0.000 -0.001
 H          0.025 -0.020  0.003   -0.096  0.102  0.005   -0.001  0.000 -0.000
 C         -0.018  0.656 -0.041    0.000 -0.002 -0.001   -0.000 -0.015  0.000
 C         -0.011 -0.040 -0.012    0.000 -0.000  0.000    0.001  0.001 -0.000
 H          0.250  0.253  0.258   -0.002 -0.001 -0.001   -0.004 -0.005 -0.007
 H          0.049 -0.253 -0.188   -0.002  0.003  0.001    0.001  0.004  0.005
 H         -0.232 -0.231  0.016    0.004  0.003  0.000    0.003  0.004 -0.001
 O          0.064 -0.156  0.079   -0.000  0.000  0.000   -0.005  0.006 -0.000
 O         -0.050 -0.293 -0.048    0.000  0.001  0.000    0.001  0.006  0.002
 H          0.052 -0.016 -0.123   -0.000  0.000  0.001    0.517 -0.259 -0.370
 O         -0.006  0.003  0.008   -0.000 -0.000 -0.000   -0.060  0.013 -0.003
 H          0.108  0.003  0.077   -0.001  0.001 -0.001    0.573  0.018  0.442
 O          0.001 -0.001 -0.001   -0.000  0.000  0.000   -0.000 -0.000 -0.002
 O         -0.001  0.000 -0.000   -0.000  0.000 -0.000   -0.005  0.001 -0.001
 TransDip  -0.083  1.064 -0.173    0.957 -0.613  0.016    0.263 -0.121  0.024

 Mode:                49                     50                     51
 Frequency:      2956.49                3057.98                3104.61
 Force Cnst:      5.5234                 5.7083                 6.1654
 Red. Mass:       1.0725                 1.0361                 1.0857
 IR Active:          YES                    YES                    YES
 IR Intens:       26.756                 14.680                 26.957
 Raman Active:       YES                    YES                    YES
               X      Y      Z        X      Y      Z        X      Y      Z
 C         -0.001 -0.001  0.001    0.000 -0.000  0.000   -0.002  0.000 -0.002
 O          0.000  0.000 -0.000   -0.000  0.000 -0.000    0.001 -0.000  0.000
 O          0.000  0.000 -0.000    0.000 -0.000 -0.000    0.000 -0.000  0.000
 C         -0.036 -0.064 -0.023    0.000  0.000 -0.000   -0.080  0.011  0.024
 H         -0.113  0.003  0.027   -0.002  0.000  0.001    0.919 -0.198 -0.311
 H          0.546  0.794  0.227    0.000  0.000 -0.000    0.038  0.083  0.030
 C          0.000 -0.002  0.001    0.000 -0.000  0.000    0.002 -0.000 -0.004
 H          0.002 -0.003 -0.000   -0.001  0.001  0.001   -0.008  0.001  0.002
 H         -0.001 -0.004  0.001    0.001  0.001 -0.002   -0.015 -0.008  0.046
 C         -0.000 -0.000 -0.000    0.002  0.000  0.002   -0.000  0.000 -0.000
 C         -0.000 -0.000  0.000   -0.030 -0.023 -0.034   -0.002  0.000  0.001
 H         -0.000  0.001 -0.000    0.165 -0.405  0.226    0.000 -0.002  0.001
 H          0.000  0.000 -0.000    0.467  0.311 -0.246    0.013  0.009 -0.007
 H          0.000 -0.000 -0.000   -0.293  0.365  0.401    0.007 -0.010 -0.010
 O         -0.000  0.000  0.000   -0.000  0.000 -0.000    0.000 -0.000  0.000
 O          0.000  0.000  0.000   -0.000 -0.000 -0.000   -0.000 -0.000  0.000
 H          0.000  0.000  0.000   -0.003 -0.001 -0.003    0.000  0.000  0.000
 O         -0.000 -0.000 -0.000    0.000  0.000  0.000   -0.000 -0.000 -0.000
 H          0.000  0.000 -0.000    0.000  0.000 -0.001   -0.000 -0.000  0.000
 O         -0.000 -0.000  0.000   -0.000 -0.000 -0.000   -0.000  0.000 -0.000
 O          0.000  0.000 -0.000   -0.000  0.000 -0.000   -0.000 -0.000 -0.000
 TransDip  -0.033 -0.162 -0.001   -0.072 -0.046 -0.088   -0.149  0.051  0.054

 Mode:                52                     53                     54
 Frequency:      3129.15                3151.73                3160.21
 Force Cnst:      6.3512                 6.4646                 6.1871
 Red. Mass:       1.1009                 1.1046                 1.0515
 IR Active:          YES                    YES                    YES
 IR Intens:       22.734                 40.263                 17.799
 Raman Active:       YES                    YES                    YES
               X      Y      Z        X      Y      Z        X      Y      Z
 C          0.000 -0.000 -0.000   -0.000  0.000 -0.000   -0.000  0.000  0.001
 O          0.000  0.000  0.000    0.000 -0.000  0.000   -0.000  0.000 -0.000
 O         -0.000  0.000  0.000   -0.000  0.000  0.000    0.000 -0.000 -0.000
 C          0.002 -0.000 -0.001   -0.000  0.000  0.000    0.003 -0.003  0.001
 H         -0.022  0.005  0.007    0.001 -0.000 -0.000   -0.027  0.008  0.009
 H         -0.001 -0.002 -0.001   -0.000 -0.000 -0.000   -0.003 -0.006 -0.001
 C         -0.000  0.000  0.000    0.000 -0.000  0.000   -0.022  0.046 -0.037
 H          0.002 -0.001 -0.001   -0.001  0.001  0.001    0.483 -0.334 -0.278
 H          0.000 -0.000 -0.000    0.001  0.001 -0.002   -0.237 -0.177  0.697
 C         -0.001  0.000  0.001   -0.000 -0.003 -0.000    0.000 -0.000  0.000
 C         -0.070  0.004  0.060    0.017 -0.088  0.026    0.000 -0.000 -0.000
 H         -0.014  0.004  0.009   -0.300  0.708 -0.407   -0.000  0.001 -0.001
 H          0.538  0.372 -0.270    0.266  0.162 -0.132    0.001  0.000 -0.000
 H          0.317 -0.427 -0.456   -0.162  0.196  0.235   -0.002  0.002  0.002
 O          0.000 -0.000 -0.000    0.000  0.001  0.000   -0.000  0.000 -0.000
 O         -0.000 -0.000  0.000   -0.000  0.001 -0.000   -0.000  0.000  0.000
 H         -0.000 -0.000 -0.000    0.005  0.001  0.007    0.001  0.000  0.001
 O          0.000  0.000  0.000   -0.000 -0.000 -0.001   -0.000 -0.000 -0.000
 H          0.000  0.000 -0.000   -0.001  0.001  0.001   -0.000  0.000  0.000
 O         -0.000 -0.000  0.000   -0.000 -0.000  0.000   -0.000 -0.000  0.000
 O          0.000  0.000 -0.000   -0.000  0.000 -0.000   -0.000  0.000 -0.000
 TransDip  -0.114  0.006  0.101    0.058 -0.172  0.090   -0.062  0.094 -0.075

 Mode:                55                     56                     57
 Frequency:      3268.61                3310.31                3401.32
 Force Cnst:      7.0390                 6.8862                 7.3223
 Red. Mass:       1.1182                 1.0666                 1.0742
 IR Active:          YES                    YES                    YES
 IR Intens:        6.598               1313.774               1360.275
 Raman Active:       YES                    YES                    YES
               X      Y      Z        X      Y      Z        X      Y      Z
 C          0.001 -0.001 -0.000   -0.000 -0.000 -0.000   -0.000 -0.000 -0.000
 O         -0.000  0.000  0.000    0.000 -0.000  0.000    0.000 -0.000  0.000
 O         -0.000  0.000 -0.000   -0.000 -0.000 -0.000   -0.000  0.000  0.000
 C          0.003 -0.001 -0.001   -0.000 -0.000 -0.000    0.000  0.000  0.000
 H         -0.036  0.009  0.011   -0.000  0.000  0.000   -0.000  0.000 -0.000
 H         -0.001 -0.002 -0.001    0.000  0.000  0.000   -0.000 -0.000 -0.000
 C          0.063 -0.020 -0.075   -0.000  0.000  0.000   -0.000 -0.000  0.000
 H         -0.567  0.397  0.313    0.000 -0.000 -0.000   -0.001  0.000  0.001
 H         -0.192 -0.157  0.592    0.000  0.000 -0.000    0.001  0.000 -0.001
 C          0.000 -0.000  0.000   -0.000  0.000 -0.000   -0.002  0.006 -0.002
 C         -0.000 -0.000  0.000   -0.000  0.000 -0.000    0.000  0.000  0.000
 H          0.000 -0.000  0.000    0.000 -0.000  0.000    0.006 -0.006  0.007
 H          0.001  0.000 -0.000    0.000  0.000 -0.000    0.000 -0.000  0.000
 H         -0.000 -0.000 -0.000   -0.000  0.000  0.000    0.000 -0.001 -0.000
 O          0.000  0.000 -0.000    0.000  0.000  0.000    0.002 -0.002  0.003
 O         -0.000  0.000 -0.000    0.000 -0.000  0.000   -0.000 -0.002 -0.000
 H          0.000  0.000  0.000   -0.048 -0.023 -0.096    0.597  0.135  0.783
 O          0.000 -0.000 -0.000    0.038 -0.025 -0.043   -0.034 -0.011 -0.055
 H         -0.000  0.000  0.000   -0.539  0.394  0.733   -0.065  0.033  0.050
 O          0.000 -0.000  0.000   -0.001  0.001  0.003   -0.000  0.000  0.001
 O          0.000 -0.000  0.000   -0.001 -0.000 -0.001   -0.000 -0.000 -0.000
 TransDip   0.061 -0.033 -0.045   -0.802  0.436  0.717    0.552  0.128  1.037

 STANDARD THERMODYNAMIC QUANTITIES AT   298.15 K  AND     1.00 ATM

   This Molecule has  0 Imaginary Frequencies
   Zero point vibrational energy:       88.440 kcal/mol

   Atom    1 Element C  Has Mass   12.00000
   Atom    2 Element O  Has Mass   15.99491
   Atom    3 Element O  Has Mass   15.99491
   Atom    4 Element C  Has Mass   12.00000
   Atom    5 Element H  Has Mass    1.00783
   Atom    6 Element H  Has Mass    1.00783
   Atom    7 Element C  Has Mass   12.00000
   Atom    8 Element H  Has Mass    1.00783
   Atom    9 Element H  Has Mass    1.00783
   Atom   10 Element C  Has Mass   12.00000
   Atom   11 Element C  Has Mass   12.00000
   Atom   12 Element H  Has Mass    1.00783
   Atom   13 Element H  Has Mass    1.00783
   Atom   14 Element H  Has Mass    1.00783
   Atom   15 Element O  Has Mass   15.99491
   Atom   16 Element O  Has Mass   15.99491
   Atom   17 Element H  Has Mass    1.00783
   Atom   18 Element O  Has Mass   15.99491
   Atom   19 Element H  Has Mass    1.00783
   Atom   20 Element O  Has Mass   15.99491
   Atom   21 Element O  Has Mass   15.99491
   Molecular Mass:   181.034840 amu
   Principal axes and moments of inertia in amu*Bohr^2:
                             1           2           3
    Eigenvalues --     1084.58033  8066.48427  8538.06513
          X              -0.21179     0.95566     0.20459
          Y              -0.03018    -0.21563     0.97601
          Z               0.97685     0.20053     0.07451
   Rotational Symmetry Number is   1
   The Molecule is an Asymmetric Top
   Translational Enthalpy:        0.889 kcal/mol
   Rotational Enthalpy:           0.889 kcal/mol
   Vibrational Enthalpy:         98.319 kcal/mol
   gas constant (RT):             0.592 kcal/mol
   Translational Entropy:        41.487  cal/mol.K
   Rotational Entropy:           32.679  cal/mol.K
   Vibrational Entropy:          84.441  cal/mol.K

   Total Enthalpy:              100.688 kcal/mol
   Total Entropy:               158.608  cal/mol.K
Archival summary:
1\1\c5-81\FREQ\ProcedureUnspecified\BasisUnspecified\759(3-,1)\leeping\SatMar2111:51:292020SatMar2111:51:292020\0\\#,FREQ,ProcedureUnspecified,BasisUnspecified,\\-3,1\O\C,1,1.26648\O,2,1.25419,1,125.214\C,2,1.5277,1,116.167,3,-179.963,0\H,4,1.09125,2,111.721,1,-178.271,0\H,4,1.09425,2,109.379,1,60.4811,0\H,4,1.09431,2,109.452,1,-56.9097,0\H,1,1.77552,2,117.584,3,4.51736,0\O,8,0.984514,1,174.608,2,-167.085,0\H,9,0.988554,8,105.869,1,-126.601,0\O,10,1.74144,9,178.908,8,16.057,0\O,11,1.32117,10,100.606,9,-14.5028,0\H,7,2.70929,4,93.7147,2,-69.5103,0\C,13,1.09385,7,120.799,4,147.53,0\H,14,1.10612,13,105.353,7,-147.361,0\C,14,1.48456,13,111.193,7,-28.0033,0\H,16,1.08383,14,120.206,13,158.211,0\H,16,1.08525,14,120.436,13,-28.3789,0\C,14,1.54384,13,109.165,7,100.567,0\O,19,1.25624,14,117.842,13,-159.37,0\O,19,1.25888,14,116.262,13,22.4914,0\\\@

 Total job time:  82485.18s(wall), 1122543.39s(cpu) 
 Sat Mar 21 11:51:29 2020

        *************************************************************
        *                                                           *
        *  Thank you very much for using Q-Chem.  Have a nice day.  *
        *                                                           *
        *************************************************************


