
Running Job 1 of 1 qc-freq1.in
qchem qc-freq1.in_17375.0 /scratch/lmgong/1862647/qc-freq1.d/ 1
/home/leeping/opt/qchem/5.0.2-openmp/exe/qcprog.exe_s qc-freq1.in_17375.0 /scratch/lmgong/1862647/qc-freq1.d/
Check license passed

                  Welcome to Q-Chem
     A Quantum Leap Into The Future Of Chemistry


 Q-Chem 5.0, Q-Chem, Inc., Pleasanton, CA (2017)

 Yihan Shao,  Zhengting Gan,  E. Epifanovsky,  A. T. B. Gilbert,  M. Wormit,  
 J. Kussmann,  A. W. Lange,  A. Behn,  Jia Deng,  Xintian Feng,  D. Ghosh,  
 M. Goldey,  P. R. Horn,  L. D. Jacobson,  I. Kaliman,  T. Kus,  A. Landau,  
 Jie Liu,  E. I. Proynov,  R. M. Richard,  R. P. Steele,  E. J. Sundstrom,  
 H. L. Woodcock III,  P. M. Zimmerman,  D. Zuev,  B. Albrecht,  E. Alguire,  
 S. A. Baeppler,  D. Barton,  Z. Benda,  Y. A. Bernard,  E. J. Berquist,  
 K. B. Bravaya,  H. Burton,  D. Casanova,  Chun-Min Chang,  Yunqing Chen,  
 A. Chien,  K. D. Closser,  M. P. Coons,  S. Dasgupta,  A. L. Dempwolff,  
 M. Diedenhofen,  Hainam Do,  R. G. Edgar,  Po-Tung Fang,  S. Fatehi,  
 Qingguo Feng,  J. Fosso-Tande,  Qinghui Ge,  A. Ghysels,  G. Gidofalvi,  
 J. Gomes,  J. Gonthier,  A. Gunina,  M. W. D. Hanson-Heine,  
 P. H. P. Harbach,  A. W. Hauser,  J. E. Herr,  E. G. Hohenstein,  
 Z. C. Holden,  Kerwin Hui,  T.-C. Jagau,  Hyunjun Ji,  B. Kaduk,  
 K. Khistyaev,  Jaehoon Kim,  P. Klunzinger,  K. Koh,  D. Kosenkov,  
 L. Koulias,  T. Kowalczyk,  C. M. Krauter,  A. Kunitsa,  Ka Un Lao,  
 A. Laurent,  K. V. Lawler,  Joonho Lee,  D. Lefrancois,  S. Lehtola,  
 D. S. Levine,  Yi-Pei Li,  You-Sheng Lin,  Fenglai Liu,  E. Livshits,  
 A. Luenser,  P. Manohar,  E. Mansoor,  S. F. Manzer,  Shan-Ping Mao,  
 Yuezhi Mao,  N. Mardirossian,  A. V. Marenich,  T. Markovich,  
 L. A. Martinez-Martinez,  S. A. Maurer,  N. J. Mayhall,  S. C. McKenzie,  
 J.-M. Mewes,  A. F. Morrison,  J. W. Mullinax,  K. Nanda,  
 T. S. Nguyen-Beck,  R. Olivares-Amaya,  J. A. Parkhill,  T. M. Perrine,  
 F. Plasser,  S. Prager,  A. Prociuk,  E. Ramos,  D. R. Rehn,  F. Rob,  
 M. Schneider,  N. Sergueev,  S. M. Sharada,  S. Sharma,  D. W. Small,  
 T. Stauch,  T. Stein,  Yu-Chuan Su,  A. J. W. Thom,  A. Tkatchenko,  
 T. Tsuchimochi,  L. Vogt,  O. Vydrov,  M. A. Watson,  J. Wenzel,  
 M. de Wergifosse,  T. A. Wesolowski,  A. White,  J. Witte,  A. Yamada,  
 Jun Yang,  K. Yao,  S. Yeganeh,  S. R. Yost,  Zhi-Qiang You,  A. Zech,  
 Igor Ying Zhang,  Xing Zhang,  Yan Zhao,  Ying Zhu,  B. R. Brooks,  
 G. K. L. Chan,  C. J. Cramer,  M. S. Gordon,  W. J. Hehre,  A. Klamt,  
 M. W. Schmidt,  C. D. Sherrill,  D. G. Truhlar,  A. Aspuru-Guzik,  R. Baer,  
 A. T. Bell,  N. A. Besley,  Jeng-Da Chai,  R. A. DiStasio Jr.,  A. Dreuw,  
 B. D. Dunietz,  T. R. Furlani,  Chao-Ping Hsu,  Yousung Jung,  Jing Kong,  
 D. S. Lambrecht,  WanZhen Liang,  C. Ochsenfeld,  V. A. Rassolov,  
 L. V. Slipchenko,  J. E. Subotnik,  T. Van Voorhis,  J. M. Herbert,  
 A. I. Krylov,  P. M. W. Gill,  M. Head-Gordon

 Contributors to earlier versions of Q-Chem not listed above: 
 R. D. Adamson,  B. Austin,  J. Baker,  G. J. O. Beran,  K. Brandhorst,  
 S. T. Brown,  E. F. C. Byrd,  A. K. Chakraborty,  C.-L. Cheng,  
 Siu Hung Chien,  D. M. Chipman,  D. L. Crittenden,  H. Dachsel,  
 R. J. Doerksen,  A. D. Dutoi,  L. Fusti-Molnar,  W. A. Goddard III,  
 A. Golubeva-Zadorozhnaya,  S. R. Gwaltney,  G. Hawkins,  A. Heyden,  
 S. Hirata,  G. Kedziora,  F. J. Keil,  C. Kelley,  Jihan Kim,  R. A. King,  
 R. Z. Khaliullin,  P. P. Korambath,  W. Kurlancheek,  A. M. Lee,  M. S. Lee,  
 S. V. Levchenko,  Ching Yeh Lin,  D. Liotard,  R. C. Lochan,  I. Lotan,  
 P. E. Maslen,  N. Nair,  D. P. O'Neill,  D. Neuhauser,  E. Neuscamman,  
 C. M. Oana,  R. Olson,  B. Peters,  R. Peverati,  P. A. Pieniazek,  
 Y. M. Rhee,  J. Ritchie,  M. A. Rohrdanz,  E. Rosta,  N. J. Russ,  
 H. F. Schaefer III,  N. E. Schultz,  N. Shenvi,  A. C. Simmonett,  A. Sodt,  
 D. Stuck,  K. S. Thanthiriwatte,  V. Vanovschi,  Tao Wang,  A. Warshel,  
 C. F. Williams,  Q. Wu,  X. Xu,  W. Zhang

 Please cite Q-Chem as follows:
 Y. Shao et al., Mol. Phys. 113, 184-215 (2015)
 DOI: 10.1080/00268976.2014.952696

 Q-Chem 5.0.2 for Intel X86 EM64T Linux

 Parts of Q-Chem use Armadillo 5.200.1 (Boston Tea Smuggler).
 http://arma.sourceforge.net/

 Q-Chem begins on Fri Mar 20 12:06:31 2020  

Host: 
0

     Scratch files written to /scratch/lmgong/1862647/qc-freq1.d//
 Dec517 15110_ 26548  26544 5633   
Processing $rem in /home/leeping/opt/qchem/5.0.2-openmp/config/preferences.
 MEM_STATIC 2000
 MEM_TOTAL  8000
 SYMMETRY   OFF
 SYM_IGNORE TRUE 
Symmetry turned off for PCM/SM12/SMD calculation

Checking the input file for inconsistencies... 	...done.

--------------------------------------------------------------
User input:
--------------------------------------------------------------
$molecule
-2 1
C       -1.3612995316   -1.0336185602   -1.2784772980
C       -2.1946303943   -0.6922027889   -2.5245976755
O       -3.0267720523   -1.5621138694   -2.8903709511
O       -1.9932297883    0.4170327282   -3.0801440153
C       -0.3084341575    0.0061379547   -0.9451634482
H       -0.8855789707   -2.0066085505   -1.4407040866
H       -2.0506574598   -1.1538961420   -0.4362295340
O        0.4761544798   -0.4095325171    0.2008371259
H       -0.7506556127    0.9806339008   -0.7377606000
H        0.4188804150    0.1079893365   -1.7508997392
C       -0.0178886289   -0.1455159611    1.4137601894
C        0.8881763092   -0.6480236055    2.5016909772
H        0.8416245397   -1.7408949429    2.5210828771
H        0.5648350828   -0.2535974514    3.4639247253
H        1.9216272300   -0.3604951698    2.2976541670
O       -1.0755458725    0.4195637085    1.5987895208
O        1.8085003477    3.0277160649    0.8338390714
O        3.0024608304    2.2373284520    0.4929259179
H        3.0620878336    1.6216939555    1.2321283780
$end

$rem
jobtype               freq
method                wb97x-v
basis                 def2-tzvpd
symmetry              off
sym_ignore            true
incdft                false
incfock               0
!scf_algorithm        diis_gdm
scf_convergence       8
thresh                14
!purecart             112
max_scf_cycles        1000
geom_opt_max_cycles   500
geom_opt_dmax         100
geom_opt_tol_gradient 10
solvent_method        pcm
ideriv                1
rpath_tol_displacement 1000
rpath_max_cycles      100
rpath_direction       1
!scf_guess            read
scf_guess             read
$end

$pcm
theory              cosmo
method              iswig
Radii               bondi
vdwScale            1.20
hpoints             110
heavypoints         110
$end

$solvent
dielectric 78.400000
$end

--------------------------------------------------------------
 ----------------------------------------------------------------
             Standard Nuclear Orientation (Angstroms)
    I     Atom           X                Y                Z
 ----------------------------------------------------------------
    1      C      -1.3612995316    -1.0336185602    -1.2784772980
    2      C      -2.1946303943    -0.6922027889    -2.5245976755
    3      O      -3.0267720523    -1.5621138694    -2.8903709511
    4      O      -1.9932297883     0.4170327282    -3.0801440153
    5      C      -0.3084341575     0.0061379547    -0.9451634482
    6      H      -0.8855789707    -2.0066085505    -1.4407040866
    7      H      -2.0506574598    -1.1538961420    -0.4362295340
    8      O       0.4761544798    -0.4095325171     0.2008371259
    9      H      -0.7506556127     0.9806339008    -0.7377606000
   10      H       0.4188804150     0.1079893365    -1.7508997392
   11      C      -0.0178886289    -0.1455159611     1.4137601894
   12      C       0.8881763092    -0.6480236055     2.5016909772
   13      H       0.8416245397    -1.7408949429     2.5210828771
   14      H       0.5648350828    -0.2535974514     3.4639247253
   15      H       1.9216272300    -0.3604951698     2.2976541670
   16      O      -1.0755458725     0.4195637085     1.5987895208
   17      O       1.8085003477     3.0277160649     0.8338390714
   18      O       3.0024608304     2.2373284520     0.4929259179
   19      H       3.0620878336     1.6216939555     1.2321283780
 ----------------------------------------------------------------
 Nuclear Repulsion Energy =   596.9476786797 hartrees
 There are       44 alpha and       44 beta electrons
 Requested basis set is def2-TZVPD
 There are 189 shells and 497 basis functions

 Total QAlloc Memory Limit   8000 MB
 Mega-Array Size      1956 MB
 MEM_STATIC part      2000 MB
 Discretize the solute cavity surface with Lebedev spheres
	Using 110 Lebedev grid points for each H atom
	Using 110 Lebedev grid points for other atoms
	Atomic van der Waals radii will be scaled by 1.20
 Remove points where switching function is < 1.0e-08
 Keep 1213 surface tesserae and discard 877 interior tesserae
 Molecular Surface Area = 231.064 Angst**2
 A cutoff of  1.0D-14 yielded  15587 shell pairs
 There are    107357 function pairs (    136394 Cartesian)
 
 -------------------------------------------------------
 OpenMP Integral Computing Module                       
 Release: version 1.0, May 2013, Q-Chem Inc. Pittsburgh 
 -------------------------------------------------------
 Integral Job Info:
 Integral job number is                      11
 Integral operator is                         1
 short-range coefficients              16700000
 long-range coefficients              100000000
 Omega coefficients                         300
 if combine SR and LR in K                    1
 Integral screening is                        0
 Integral computing path is                   2
 max size of driver memory is            800000
 size of driver memory is                776718
 size of scratch memory is              4473992
 max col of scratch BK array              10000
 max len of scratch array in speh3          662
 max len of scratch index in speh4           32
 max int batch size is                      520
 min int batch size is                       52
 fixed nKL is                                52
 max L of basis functions is                  3
 order of int derivative is                   0
 number of shells is                        189
 number of basis is                         563
 number of cartesian basis is               563
 number of contracted shell pairs         15587
 number of primitive shell pairs          30943
 maxK2 (contraction) of shell pair           36
 max number of K2 of shell pair               1
 max number of CS2 of shell pair           2627
 max number of PS2 of shell pair           3546
 mem total for path MDJ                  804092
 -------------------------------------------------------
 Smallest overlap matrix eigenvalue = 4.35E-06
 Guess MOs from SCF MO coefficient file
 Reading MOs from coefficient file
 Reading MOs from coefficient file
 Long-range K will be added via erf
 Coulomb attenuation parameter = 0.3 bohr**(-1)
 A restricted hybrid HF-DFT SCF calculation will be
 performed using Pulay DIIS extrapolation
 Polarizable Continuum solvation model will be applied
 Exchange:     0.1670 Hartree-Fock + 1.0000 wB97X-V + LR-HF
 Correlation:  1.0000 wB97X-V
 Using SG-2 standard quadrature grid
 Nonlocal Correlation:  VV10 with C = 0.0100 and b = 6.00
 Grid used for NLC:  SG-1 standard quadrature
 SCF converges when DIIS error is below 1.0E-08
Using Q-Chem read-in guess as SCF_GUESS READ specified.

 using 16 threads for integral computing
 -------------------------------------------------------
 OpenMP Integral computing Module                
 Release: version 1.0, May 2013, Q-Chem Inc. Pittsburgh 
 -------------------------------------------------------
 using 16 threads for integral computing
 -------------------------------------------------------
 OpenMP Integral computing Module                
 Release: version 1.0, May 2013, Q-Chem Inc. Pittsburgh 
 -------------------------------------------------------
 -------------------------------------------------------
 OpenMP BLAS3 based DFT computing Module                
 Release: version 1.0, May 2013, Q-Chem Inc. Pittsburgh 
 -------------------------------------------------------
 -------------------------------------------------------
 OpenMP BLAS3 based DFT computing Module                
 Release: version 1.0, May 2013, Q-Chem Inc. Pittsburgh 
 -------------------------------------------------------
 -------------------------------------------------------
 OpenMP BLAS3 based DFT computing Module                
 Release: version 1.0, May 2013, Q-Chem Inc. Pittsburgh 
 -------------------------------------------------------
 ---------------------------------------
  Cycle       Energy         DIIS Error
 ---------------------------------------
    1    -646.6323392647      4.54E-04
    2    -646.9410948535      5.04E-04
    3    -646.9511285276      2.29E-04
    4    -646.9527487166      1.68E-04
    5    -646.9537608482      1.27E-04
    6    -646.9542354161      1.04E-04
    7    -646.9546324198      7.96E-05
    8    -646.9548783833      5.99E-05
    9    -646.9550108947      4.61E-05
   10    -646.9550935229      3.47E-05
   11    -646.9551437357      2.54E-05
   12    -646.9551656995      1.99E-05
   13    -646.9551815971      1.48E-05
   14    -646.9551893495      1.16E-05
   15    -646.9551931085      9.57E-06
   16    -646.9551960844      7.63E-06
   17    -646.9552012963      7.73E-09 Convergence criterion met
 ---------------------------------------

************** Final PCM Free Energy Summary **************
 G_electrostatic  =      -0.32286394 hartree =    -202.60017972 kcal/mol
 G_cavitation     =       0.00000000 hartree =       0.00000000 kcal/mol
 G_dispersion     =       0.00000000 hartree =       0.00000000 kcal/mol
 G_repulsion      =       0.00000000 hartree =       0.00000000 kcal/mol
 --------------------------------------------------
 Non-electrostatic Free Energy =       0.00000000 hartree =       0.00000000 kcal/mol
 Total                         =      -0.32286394 hartree =    -202.60017972 kcal/mol
 --------------------------------------------------
 SCF Energy (H0 + V/2)                       =    -646.95520130 
 Solute Internal Energy (H0)                 =    -646.63233736 
 Total Free Energy (H0 + V/2 + non-elec)     =    -646.95520130 hartree
                                             = -405970.51612617 kcal/mol
***********************************************************

 SCF time:  CPU 4856.49 s  wall 351.84 s
 SCF   energy in the final basis set = -646.95520130
 Total energy in the final basis set = -646.95520130
 
 --------------------------------------------------------------
 
                    Orbital Energies (a.u.)
 --------------------------------------------------------------
 
 Alpha MOs
 -- Occupied --
-19.254 -19.202 -19.199 -19.144 -19.141 -19.135 -10.402 -10.346
-10.313 -10.268 -10.255  -1.238  -1.148  -1.145  -1.133  -1.053
 -0.912  -0.878  -0.864  -0.778  -0.671  -0.625  -0.617  -0.596
 -0.582  -0.557  -0.549  -0.539  -0.524  -0.515  -0.497  -0.492
 -0.469  -0.465  -0.455  -0.437  -0.434  -0.411  -0.387  -0.350
 -0.339  -0.335  -0.301  -0.273
 -- Virtual --
  0.059   0.071   0.075   0.081   0.093   0.097   0.101   0.103
  0.114   0.120   0.124   0.128   0.137   0.140   0.147   0.155
  0.158   0.162   0.168   0.173   0.180   0.183   0.188   0.200
  0.203   0.209   0.215   0.225   0.228   0.230   0.235   0.240
  0.244   0.254   0.259   0.267   0.272   0.283   0.288   0.289
  0.304   0.305   0.317   0.319   0.324   0.329   0.337   0.339
  0.349   0.351   0.356   0.359   0.365   0.368   0.373   0.376
  0.384   0.386   0.394   0.401   0.405   0.411   0.414   0.417
  0.426   0.427   0.432   0.435   0.439   0.442   0.454   0.457
  0.470   0.473   0.475   0.480   0.483   0.493   0.495   0.500
  0.505   0.515   0.521   0.526   0.528   0.533   0.539   0.543
  0.547   0.556   0.560   0.567   0.574   0.576   0.581   0.589
  0.595   0.597   0.604   0.608   0.616   0.624   0.628   0.631
  0.636   0.646   0.654   0.656   0.667   0.676   0.680   0.685
  0.694   0.696   0.701   0.715   0.720   0.726   0.734   0.739
  0.744   0.750   0.759   0.761   0.773   0.779   0.785   0.794
  0.799   0.808   0.814   0.816   0.820   0.828   0.834   0.836
  0.837   0.848   0.857   0.862   0.867   0.874   0.881   0.884
  0.887   0.896   0.911   0.917   0.928   0.935   0.943   0.948
  0.964   0.978   0.997   1.001   1.005   1.021   1.026   1.038
  1.048   1.061   1.072   1.078   1.081   1.095   1.096   1.116
  1.139   1.144   1.151   1.164   1.179   1.195   1.212   1.230
  1.238   1.260   1.269   1.277   1.286   1.306   1.310   1.332
  1.344   1.360   1.371   1.386   1.396   1.409   1.415   1.426
  1.465   1.474   1.477   1.495   1.504   1.537   1.562   1.584
  1.597   1.667   1.687   1.710   1.713   1.740   1.780   1.784
  1.823   1.860   1.890   1.904   1.914   1.923   1.925   1.935
  1.942   1.952   1.961   1.968   1.974   1.981   1.990   1.996
  2.005   2.023   2.026   2.031   2.042   2.059   2.076   2.103
  2.122   2.135   2.161   2.192   2.206   2.221   2.227   2.241
  2.246   2.259   2.277   2.283   2.289   2.321   2.325   2.345
  2.363   2.383   2.430   2.450   2.461   2.479   2.487   2.489
  2.498   2.512   2.535   2.553   2.560   2.592   2.597   2.608
  2.650   2.663   2.678   2.679   2.723   2.751   2.762   2.774
  2.814   2.835   2.859   2.878   2.896   2.901   2.916   2.940
  2.956   2.971   2.979   2.994   3.004   3.031   3.033   3.048
  3.073   3.078   3.113   3.130   3.134   3.198   3.216   3.234
  3.243   3.264   3.291   3.297   3.317   3.330   3.338   3.350
  3.363   3.371   3.392   3.410   3.415   3.428   3.433   3.438
  3.455   3.468   3.485   3.494   3.513   3.528   3.544   3.581
  3.588   3.599   3.605   3.624   3.647   3.658   3.668   3.675
  3.689   3.699   3.704   3.728   3.745   3.753   3.780   3.803
  3.818   3.828   3.862   3.951   3.960   4.028   4.047   4.089
  4.098   4.121   4.138   4.155   4.172   4.243   4.265   4.304
  4.373   4.393   4.504   4.583   4.604   4.635   4.664   4.713
  4.740   4.788   4.806   4.814   4.833   4.886   4.946   5.011
  5.017   5.048   5.086   5.141   5.156   5.199   5.227   5.312
  5.322   5.352   5.360   5.366   5.371   5.373   5.379   5.439
  5.505   5.523   5.570   5.608   5.628   5.657   5.707   5.725
  5.757   5.771   5.875   5.986   6.015   6.026   6.040   6.148
  6.252   6.303   6.310   6.324   6.328   6.347   6.439   6.543
  6.603   6.612   6.628   6.632   6.635   6.642   6.654   6.672
  6.692   6.697   6.746   6.747   6.771   6.837   6.897   6.954
  6.964   6.971   6.998   7.050   7.070   7.078   7.103   7.168
  7.251   7.255   7.362   7.369   7.389   7.412   7.416   7.515
  7.652   8.141  22.643  22.855  22.889  23.613  23.736  43.720
 44.263  44.282  44.415  44.422  44.619
 --------------------------------------------------------------
 
          Ground-State Mulliken Net Atomic Charges

     Atom                 Charge (a.u.)
  ----------------------------------------
      1 C                    -0.128059
      2 C                     0.065404
      3 O                    -0.703776
      4 O                    -0.688360
      5 C                    -0.130299
      6 H                     0.268497
      7 H                     0.212825
      8 O                    -0.269543
      9 H                     0.213986
     10 H                     0.203935
     11 C                     0.581850
     12 C                    -0.798788
     13 H                     0.244666
     14 H                     0.241538
     15 H                     0.197170
     16 O                    -0.523649
     17 O                    -0.840786
     18 O                    -0.440817
     19 H                     0.294207
  ----------------------------------------
  Sum of atomic charges =    -2.000000

 -----------------------------------------------------------------
                    Cartesian Multipole Moments
 -----------------------------------------------------------------
    Charge (ESU x 10^10)
                -9.6064
    Dipole Moment (Debye)
         X       5.4026      Y     -13.9044      Z      11.9636
       Tot      19.1219
    Quadrupole Moments (Debye-Ang)
        XX    -128.8559     XY     -40.0399     YY    -123.4553
        XZ     -38.4517     YZ     -20.1652     ZZ    -117.5520
    Octopole Moments (Debye-Ang^2)
       XXX     117.7968    XXY     -42.7537    XYY     -47.0419
       YYY    -171.8768    XXZ     133.1119    XYZ      16.9071
       YYZ      14.3367    XZZ     164.7647    YZZ      -7.7383
       ZZZ     228.1608
    Hexadecapole Moments (Debye-Ang^3)
      XXXX   -1902.9432   XXXY    -665.6669   XXYY    -684.9815
      XYYY    -697.0385   YYYY   -1361.8953   XXXZ    -830.4105
      XXYZ    -206.8946   XYYZ    -314.0156   YYYZ    -321.2411
      XXZZ    -867.4993   XYZZ    -225.3729   YYZZ    -517.8106
      XZZZ    -909.3443   YZZZ    -250.1784   ZZZZ   -2064.9073
 -----------------------------------------------------------------
 Calculating analytic gradient of the SCF energy
 Gradient of SCF Energy
            1           2           3           4           5           6
    1  -0.0114941  -0.0244880   0.0377361  -0.0063491   0.0219889  -0.0208924
    2  -0.0572713   0.0137048   0.0328242  -0.0447114   0.0916206   0.0408832
    3   0.0587980  -0.0314561   0.0216204   0.0278025  -0.0811221   0.0104403
            7           8           9          10          11          12
    1   0.0383227   0.0010482   0.0278639  -0.0473918  -0.0615131   0.0216814
    2   0.0028547   0.0014583  -0.0712766  -0.0017974  -0.0008224   0.0141942
    3  -0.0431472   0.0235522  -0.0218533   0.0571429  -0.0336521   0.0547602
           13          14          15          16          17          18
    1   0.0027691   0.0209041  -0.0575301   0.0628189  -0.0536872   0.0448618
    2   0.0501540  -0.0228687  -0.0162277  -0.0294992   0.0355674  -0.0743239
    3  -0.0005447  -0.0551799   0.0120059   0.0036263   0.0036601   0.0348802
           19
    1   0.0033507
    2   0.0355370
    3  -0.0413334
 Max gradient component =       9.162E-02
 RMS gradient           =       3.916E-02
 Computing fast CPCM-ISWIG gradient
 Updating gradient with PCM contributions...
 -- total gradient after adding PCM contribution --
---------------------------------------------------
  Atom         X              Y              Z     
---------------------------------------------------
   1       0.000006      -0.000013      -0.000008
   2      -0.000019       0.000009       0.000008
   3       0.000011      -0.000007      -0.000005
   4      -0.000002      -0.000004       0.000002
   5      -0.000009      -0.000002       0.000004
   6      -0.000009      -0.000000      -0.000001
   7       0.000004       0.000006       0.000007
   8       0.000001      -0.000007      -0.000010
   9       0.000001       0.000002      -0.000016
  10       0.000008      -0.000011       0.000006
  11      -0.000022      -0.000000       0.000019
  12      -0.000009       0.000007       0.000006
  13       0.000006       0.000005      -0.000010
  14      -0.000007      -0.000002      -0.000003
  15      -0.000000       0.000005       0.000002
  16       0.000015       0.000015      -0.000009
  17       0.000009       0.000007       0.000025
  18      -0.000002      -0.000019      -0.000016
  19       0.000017       0.000010      -0.000001
---------------------------------------------------
 Number of fixed atoms: 0
 Gradient time:  CPU 950.09 s  wall 70.86 s
 ######################################################
 ######################################################
 # Starting finite difference calculation for IDERIV  #
 Finite diff step size:  1.88973e-03 a.u.
 ----------------------------------------------------------------
             Standard Nuclear Orientation (Angstroms)
    I     Atom           X                Y                Z
 ----------------------------------------------------------------
    1      C      -1.3602995316    -1.0336185602    -1.2784772980
    2      C      -2.1946303943    -0.6922027889    -2.5245976755
    3      O      -3.0267720523    -1.5621138694    -2.8903709511
    4      O      -1.9932297883     0.4170327282    -3.0801440153
    5      C      -0.3084341575     0.0061379547    -0.9451634482
    6      H      -0.8855789707    -2.0066085505    -1.4407040866
    7      H      -2.0506574598    -1.1538961420    -0.4362295340
    8      O       0.4761544798    -0.4095325171     0.2008371259
    9      H      -0.7506556127     0.9806339008    -0.7377606000
   10      H       0.4188804150     0.1079893365    -1.7508997392
   11      C      -0.0178886289    -0.1455159611     1.4137601894
   12      C       0.8881763092    -0.6480236055     2.5016909772
   13      H       0.8416245397    -1.7408949429     2.5210828771
   14      H       0.5648350828    -0.2535974514     3.4639247253
   15      H       1.9216272300    -0.3604951698     2.2976541670
   16      O      -1.0755458725     0.4195637085     1.5987895208
   17      O       1.8085003477     3.0277160649     0.8338390714
   18      O       3.0024608304     2.2373284520     0.4929259179
   19      H       3.0620878336     1.6216939555     1.2321283780
 ----------------------------------------------------------------
 Nuclear Repulsion Energy =   596.9510668403 hartrees
 There are       44 alpha and       44 beta electrons
 Discretize the solute cavity surface with Lebedev spheres
	Using 110 Lebedev grid points for each H atom
	Using 110 Lebedev grid points for other atoms
	Atomic van der Waals radii will be scaled by 1.20
 Remove points where switching function is < 1.0e-08
 Keep 1214 surface tesserae and discard 876 interior tesserae
 Molecular Surface Area = 231.061 Angst**2
 Requested basis set is def2-TZVPD
 There are 189 shells and 497 basis functions
 A cutoff of  1.0D-14 yielded  15587 shell pairs
 There are    107357 function pairs (    136394 Cartesian)
 Smallest overlap matrix eigenvalue = 4.34E-06
 Guess MOs from SCF MO coefficient file
 Reading MOs from coefficient file
 Reading MOs from coefficient file
 Long-range K will be added via erf
 Coulomb attenuation parameter = 0.3 bohr**(-1)
 A restricted hybrid HF-DFT SCF calculation will be
 performed using Pulay DIIS extrapolation
 Polarizable Continuum solvation model will be applied
 Exchange:     0.1670 Hartree-Fock + 1.0000 wB97X-V + LR-HF
 Correlation:  1.0000 wB97X-V
 Using SG-2 standard quadrature grid
 Nonlocal Correlation:  VV10 with C = 0.0100 and b = 6.00
 Grid used for NLC:  SG-1 standard quadrature
 SCF converges when DIIS error is below 1.0E-08
Using Q-Chem read-in guess as SCF_GUESS READ specified.

 using 16 threads for integral computing
 -------------------------------------------------------
 OpenMP Integral computing Module                
 Release: version 1.0, May 2013, Q-Chem Inc. Pittsburgh 
 -------------------------------------------------------
 using 16 threads for integral computing
 -------------------------------------------------------
 OpenMP Integral computing Module                
 Release: version 1.0, May 2013, Q-Chem Inc. Pittsburgh 
 -------------------------------------------------------
 -------------------------------------------------------
 OpenMP BLAS3 based DFT computing Module                
 Release: version 1.0, May 2013, Q-Chem Inc. Pittsburgh 
 -------------------------------------------------------
 -------------------------------------------------------
 OpenMP BLAS3 based DFT computing Module                
 Release: version 1.0, May 2013, Q-Chem Inc. Pittsburgh 
 -------------------------------------------------------
 -------------------------------------------------------
 OpenMP BLAS3 based DFT computing Module                
 Release: version 1.0, May 2013, Q-Chem Inc. Pittsburgh 
 -------------------------------------------------------
 ---------------------------------------
  Cycle       Energy         DIIS Error
 ---------------------------------------
    1    -646.6323113500      4.54E-04
    2    -646.9410955802      5.04E-04
    3    -646.9511297395      2.29E-04
    4    -646.9527505486      1.67E-04
    5    -646.9537662223      1.27E-04
    6    -646.9542521163      1.03E-04
    7    -646.9546849214      7.57E-05
    8    -646.9549739871      5.02E-05
    9    -646.9551143898      3.09E-05
   10    -646.9551832098      1.38E-05
   11    -646.9551989287      4.00E-06
   12    -646.9552002204      1.19E-06
   13    -646.9552003426      1.89E-07
   14    -646.9552003457      2.36E-08
   15    -646.9552003458      7.08E-09 Convergence criterion met
 ---------------------------------------

************** Final PCM Free Energy Summary **************
 G_electrostatic  =      -0.32285802 hartree =    -202.59646628 kcal/mol
 G_cavitation     =       0.00000000 hartree =       0.00000000 kcal/mol
 G_dispersion     =       0.00000000 hartree =       0.00000000 kcal/mol
 G_repulsion      =       0.00000000 hartree =       0.00000000 kcal/mol
 --------------------------------------------------
 Non-electrostatic Free Energy =       0.00000000 hartree =       0.00000000 kcal/mol
 Total                         =      -0.32285802 hartree =    -202.59646628 kcal/mol
 --------------------------------------------------
 SCF Energy (H0 + V/2)                       =    -646.95520035 
 Solute Internal Energy (H0)                 =    -646.63234232 
 Total Free Energy (H0 + V/2 + non-elec)     =    -646.95520035 hartree
                                             = -405970.51552968 kcal/mol
***********************************************************

 SCF time:  CPU 4292.98 s  wall 310.01 s
 SCF   energy in the final basis set = -646.95520035
 Total energy in the final basis set = -646.95520035
 
 --------------------------------------------------------------
 
                    Orbital Energies (a.u.)
 --------------------------------------------------------------
 
 Alpha MOs
 -- Occupied --
-19.254 -19.202 -19.199 -19.144 -19.141 -19.135 -10.402 -10.346
-10.313 -10.268 -10.255  -1.238  -1.148  -1.145  -1.133  -1.053
 -0.912  -0.878  -0.864  -0.778  -0.671  -0.625  -0.617  -0.596
 -0.582  -0.557  -0.549  -0.539  -0.524  -0.515  -0.497  -0.492
 -0.469  -0.465  -0.455  -0.437  -0.434  -0.411  -0.387  -0.350
 -0.339  -0.335  -0.301  -0.273
 -- Virtual --
  0.059   0.071   0.075   0.081   0.093   0.097   0.101   0.103
  0.114   0.120   0.124   0.128   0.137   0.140   0.147   0.155
  0.158   0.162   0.168   0.173   0.180   0.183   0.188   0.200
  0.203   0.209   0.215   0.225   0.228   0.230   0.235   0.240
  0.244   0.254   0.259   0.267   0.272   0.283   0.288   0.289
  0.304   0.305   0.317   0.319   0.324   0.329   0.337   0.339
  0.349   0.351   0.356   0.359   0.365   0.368   0.373   0.376
  0.384   0.386   0.394   0.401   0.405   0.411   0.414   0.417
  0.426   0.427   0.432   0.435   0.439   0.442   0.454   0.457
  0.470   0.473   0.475   0.480   0.483   0.493   0.495   0.500
  0.505   0.515   0.521   0.526   0.528   0.533   0.539   0.543
  0.547   0.556   0.560   0.567   0.574   0.576   0.581   0.589
  0.595   0.597   0.604   0.608   0.616   0.624   0.628   0.631
  0.636   0.645   0.654   0.656   0.667   0.676   0.680   0.685
  0.694   0.696   0.701   0.715   0.720   0.726   0.734   0.739
  0.744   0.750   0.759   0.761   0.773   0.779   0.785   0.794
  0.799   0.808   0.814   0.816   0.820   0.827   0.834   0.836
  0.837   0.848   0.857   0.862   0.867   0.874   0.881   0.884
  0.887   0.896   0.911   0.917   0.928   0.935   0.943   0.948
  0.964   0.978   0.997   1.001   1.005   1.021   1.026   1.038
  1.048   1.061   1.072   1.078   1.081   1.095   1.096   1.116
  1.139   1.144   1.150   1.164   1.179   1.195   1.212   1.230
  1.238   1.260   1.269   1.277   1.286   1.306   1.310   1.332
  1.344   1.360   1.371   1.386   1.396   1.409   1.415   1.426
  1.465   1.474   1.477   1.495   1.504   1.537   1.562   1.584
  1.597   1.667   1.687   1.710   1.713   1.740   1.780   1.784
  1.823   1.860   1.890   1.904   1.914   1.923   1.925   1.935
  1.942   1.952   1.961   1.968   1.974   1.981   1.990   1.996
  2.005   2.023   2.026   2.031   2.042   2.059   2.076   2.103
  2.122   2.135   2.161   2.192   2.206   2.221   2.227   2.241
  2.246   2.259   2.277   2.283   2.289   2.321   2.325   2.345
  2.363   2.383   2.430   2.450   2.461   2.479   2.487   2.489
  2.498   2.512   2.535   2.553   2.561   2.592   2.597   2.607
  2.650   2.663   2.677   2.679   2.723   2.751   2.762   2.774
  2.814   2.835   2.859   2.878   2.896   2.901   2.916   2.940
  2.956   2.971   2.979   2.994   3.004   3.031   3.033   3.047
  3.073   3.078   3.113   3.130   3.134   3.199   3.216   3.234
  3.243   3.264   3.291   3.297   3.317   3.330   3.338   3.350
  3.363   3.371   3.392   3.410   3.415   3.428   3.433   3.438
  3.455   3.468   3.485   3.494   3.513   3.527   3.544   3.581
  3.588   3.599   3.605   3.624   3.647   3.658   3.668   3.675
  3.689   3.699   3.704   3.728   3.745   3.753   3.780   3.803
  3.819   3.828   3.863   3.950   3.960   4.028   4.047   4.089
  4.098   4.121   4.138   4.155   4.172   4.243   4.265   4.304
  4.373   4.393   4.504   4.583   4.604   4.635   4.664   4.713
  4.740   4.788   4.806   4.814   4.833   4.886   4.946   5.011
  5.017   5.048   5.086   5.141   5.156   5.199   5.227   5.312
  5.322   5.352   5.359   5.366   5.371   5.373   5.379   5.439
  5.505   5.523   5.570   5.608   5.628   5.657   5.707   5.725
  5.757   5.771   5.875   5.986   6.015   6.026   6.040   6.148
  6.252   6.303   6.310   6.324   6.327   6.347   6.439   6.543
  6.603   6.612   6.628   6.632   6.635   6.642   6.654   6.672
  6.692   6.697   6.746   6.747   6.771   6.837   6.897   6.954
  6.963   6.971   6.998   7.050   7.070   7.078   7.103   7.168
  7.251   7.255   7.362   7.369   7.389   7.412   7.416   7.515
  7.652   8.141  22.643  22.855  22.889  23.613  23.736  43.720
 44.263  44.282  44.415  44.422  44.620
 --------------------------------------------------------------
 
          Ground-State Mulliken Net Atomic Charges

     Atom                 Charge (a.u.)
  ----------------------------------------
      1 C                    -0.128367
      2 C                     0.065320
      3 O                    -0.703762
      4 O                    -0.688319
      5 C                    -0.129735
      6 H                     0.269093
      7 H                     0.212329
      8 O                    -0.269558
      9 H                     0.213880
     10 H                     0.203728
     11 C                     0.581863
     12 C                    -0.798812
     13 H                     0.244666
     14 H                     0.241543
     15 H                     0.197173
     16 O                    -0.523649
     17 O                    -0.840785
     18 O                    -0.440816
     19 H                     0.294209
  ----------------------------------------
  Sum of atomic charges =    -2.000000

 -----------------------------------------------------------------
                    Cartesian Multipole Moments
 -----------------------------------------------------------------
    Charge (ESU x 10^10)
                -9.6064
    Dipole Moment (Debye)
         X       5.4025      Y     -13.9043      Z      11.9622
       Tot      19.1210
    Quadrupole Moments (Debye-Ang)
        XX    -128.8560     XY     -40.0389     YY    -123.4535
        XZ     -38.4483     YZ     -20.1626     ZZ    -117.5483
    Octopole Moments (Debye-Ang^2)
       XXX     117.7811    XXY     -42.7581    XYY     -47.0501
       YYY    -171.8816    XXZ     133.1026    XYZ      16.8996
       YYZ      14.3305    XZZ     164.7482    YZZ      -7.7463
       ZZZ     228.1424
    Hexadecapole Moments (Debye-Ang^3)
      XXXX   -1902.8584   XXXY    -665.6359   XXYY    -684.9604
      XYYY    -697.0134   YYYY   -1361.8747   XXXZ    -830.3621
      XXYZ    -206.8702   XYYZ    -313.9953   YYYZ    -321.2252
      XXZZ    -867.4508   XYZZ    -225.3428   YYZZ    -517.7956
      XZZZ    -909.2746   YZZZ    -250.1475   ZZZZ   -2064.8331
 -----------------------------------------------------------------
 Calculating analytic gradient of the SCF energy
 Gradient of SCF Energy
            1           2           3           4           5           6
    1  -0.0107404  -0.0246728   0.0377276  -0.0063262   0.0217573  -0.0209895
    2  -0.0574618   0.0137512   0.0328130  -0.0447089   0.0916437   0.0410974
    3   0.0586482  -0.0315153   0.0215845   0.0277920  -0.0811780   0.0104976
            7           8           9          10          11          12
    1   0.0380955   0.0010355   0.0278653  -0.0473976  -0.0615262   0.0216782
    2   0.0027947   0.0014794  -0.0712491  -0.0018511  -0.0008424   0.0142005
    3  -0.0428423   0.0235342  -0.0218621   0.0571292  -0.0336675   0.0547637
           13          14          15          16          17          18
    1   0.0027696   0.0209036  -0.0575287   0.0628223  -0.0536868   0.0448623
    2   0.0501561  -0.0228696  -0.0162307  -0.0295032   0.0355677  -0.0743247
    3  -0.0005443  -0.0551833   0.0120082   0.0036274   0.0036607   0.0348812
           19
    1   0.0033509
    2   0.0355379
    3  -0.0413340
 Max gradient component =       9.164E-02
 RMS gradient           =       3.915E-02
 Computing fast CPCM-ISWIG gradient
 Updating gradient with PCM contributions...
 -- total gradient after adding PCM contribution --
---------------------------------------------------
  Atom         X              Y              Z     
---------------------------------------------------
   1       0.001000      -0.000018      -0.000093
   2      -0.000225       0.000038      -0.000049
   3      -0.000026      -0.000029      -0.000078
   4       0.000027      -0.000012      -0.000012
   5      -0.000271      -0.000118      -0.000016
   6      -0.000200       0.000196       0.000030
   7      -0.000279      -0.000028       0.000257
   8      -0.000035      -0.000027      -0.000042
   9       0.000022       0.000018      -0.000009
  10      -0.000020      -0.000046      -0.000002
  11      -0.000024       0.000000       0.000023
  12      -0.000008       0.000008       0.000006
  13       0.000006       0.000006      -0.000010
  14      -0.000007      -0.000002      -0.000003
  15      -0.000000       0.000005       0.000002
  16       0.000016       0.000012      -0.000011
  17       0.000009       0.000007       0.000025
  18      -0.000001      -0.000019      -0.000015
  19       0.000017       0.000010      -0.000001
---------------------------------------------------
 Number of fixed atoms: 0
 Gradient time:  CPU 956.83 s  wall 70.52 s
 ----------------------------------------------------------------
             Standard Nuclear Orientation (Angstroms)
    I     Atom           X                Y                Z
 ----------------------------------------------------------------
    1      C      -1.3622995316    -1.0336185602    -1.2784772980
    2      C      -2.1946303943    -0.6922027889    -2.5245976755
    3      O      -3.0267720523    -1.5621138694    -2.8903709511
    4      O      -1.9932297883     0.4170327282    -3.0801440153
    5      C      -0.3084341575     0.0061379547    -0.9451634482
    6      H      -0.8855789707    -2.0066085505    -1.4407040866
    7      H      -2.0506574598    -1.1538961420    -0.4362295340
    8      O       0.4761544798    -0.4095325171     0.2008371259
    9      H      -0.7506556127     0.9806339008    -0.7377606000
   10      H       0.4188804150     0.1079893365    -1.7508997392
   11      C      -0.0178886289    -0.1455159611     1.4137601894
   12      C       0.8881763092    -0.6480236055     2.5016909772
   13      H       0.8416245397    -1.7408949429     2.5210828771
   14      H       0.5648350828    -0.2535974514     3.4639247253
   15      H       1.9216272300    -0.3604951698     2.2976541670
   16      O      -1.0755458725     0.4195637085     1.5987895208
   17      O       1.8085003477     3.0277160649     0.8338390714
   18      O       3.0024608304     2.2373284520     0.4929259179
   19      H       3.0620878336     1.6216939555     1.2321283780
 ----------------------------------------------------------------
 Nuclear Repulsion Energy =   596.9442915174 hartrees
 There are       44 alpha and       44 beta electrons
 Discretize the solute cavity surface with Lebedev spheres
	Using 110 Lebedev grid points for each H atom
	Using 110 Lebedev grid points for other atoms
	Atomic van der Waals radii will be scaled by 1.20
 Remove points where switching function is < 1.0e-08
 Keep 1213 surface tesserae and discard 877 interior tesserae
 Molecular Surface Area = 231.067 Angst**2
 Requested basis set is def2-TZVPD
 There are 189 shells and 497 basis functions
 A cutoff of  1.0D-14 yielded  15587 shell pairs
 There are    107357 function pairs (    136394 Cartesian)
 Smallest overlap matrix eigenvalue = 4.35E-06
 Guess MOs from SCF MO coefficient file
 Reading MOs from coefficient file
 Reading MOs from coefficient file
 Long-range K will be added via erf
 Coulomb attenuation parameter = 0.3 bohr**(-1)
 A restricted hybrid HF-DFT SCF calculation will be
 performed using Pulay DIIS extrapolation
 Polarizable Continuum solvation model will be applied
 Exchange:     0.1670 Hartree-Fock + 1.0000 wB97X-V + LR-HF
 Correlation:  1.0000 wB97X-V
 Using SG-2 standard quadrature grid
 Nonlocal Correlation:  VV10 with C = 0.0100 and b = 6.00
 Grid used for NLC:  SG-1 standard quadrature
 SCF converges when DIIS error is below 1.0E-08
Using Q-Chem read-in guess as SCF_GUESS READ specified.

 using 16 threads for integral computing
 -------------------------------------------------------
 OpenMP Integral computing Module                
 Release: version 1.0, May 2013, Q-Chem Inc. Pittsburgh 
 -------------------------------------------------------
 using 16 threads for integral computing
 -------------------------------------------------------
 OpenMP Integral computing Module                
 Release: version 1.0, May 2013, Q-Chem Inc. Pittsburgh 
 -------------------------------------------------------
 -------------------------------------------------------
 OpenMP BLAS3 based DFT computing Module                
 Release: version 1.0, May 2013, Q-Chem Inc. Pittsburgh 
 -------------------------------------------------------
 -------------------------------------------------------
 OpenMP BLAS3 based DFT computing Module                
 Release: version 1.0, May 2013, Q-Chem Inc. Pittsburgh 
 -------------------------------------------------------
 -------------------------------------------------------
 OpenMP BLAS3 based DFT computing Module                
 Release: version 1.0, May 2013, Q-Chem Inc. Pittsburgh 
 -------------------------------------------------------
 ---------------------------------------
  Cycle       Energy         DIIS Error
 ---------------------------------------
    1    -646.6323988982      4.55E-04
    2    -646.9410916616      5.04E-04
    3    -646.9511320218      2.29E-04
    4    -646.9527552952      1.67E-04
    5    -646.9537844425      1.26E-04
    6    -646.9543012417      1.00E-04
    7    -646.9548026839      6.64E-05
    8    -646.9551012822      3.31E-05
    9    -646.9551819105      1.43E-05
   10    -646.9551991249      3.74E-06
   11    -646.9552003325      6.55E-07
   12    -646.9552003676      1.31E-07
   13    -646.9552003691      2.32E-08
   14    -646.9552003691      1.91E-08
   15    -646.9552003691      9.54E-09 Convergence criterion met
 ---------------------------------------

************** Final PCM Free Energy Summary **************
 G_electrostatic  =      -0.32287011 hartree =    -202.60405389 kcal/mol
 G_cavitation     =       0.00000000 hartree =       0.00000000 kcal/mol
 G_dispersion     =       0.00000000 hartree =       0.00000000 kcal/mol
 G_repulsion      =       0.00000000 hartree =       0.00000000 kcal/mol
 --------------------------------------------------
 Non-electrostatic Free Energy =       0.00000000 hartree =       0.00000000 kcal/mol
 Total                         =      -0.32287011 hartree =    -202.60405389 kcal/mol
 --------------------------------------------------
 SCF Energy (H0 + V/2)                       =    -646.95520037 
 Solute Internal Energy (H0)                 =    -646.63233026 
 Total Free Energy (H0 + V/2 + non-elec)     =    -646.95520037 hartree
                                             = -405970.51554434 kcal/mol
***********************************************************

 SCF time:  CPU 4297.11 s  wall 311.09 s
 SCF   energy in the final basis set = -646.95520037
 Total energy in the final basis set = -646.95520037
 
 --------------------------------------------------------------
 
                    Orbital Energies (a.u.)
 --------------------------------------------------------------
 
 Alpha MOs
 -- Occupied --
-19.254 -19.202 -19.199 -19.144 -19.141 -19.135 -10.402 -10.346
-10.313 -10.268 -10.255  -1.238  -1.148  -1.145  -1.133  -1.053
 -0.912  -0.878  -0.864  -0.778  -0.671  -0.625  -0.617  -0.596
 -0.582  -0.557  -0.549  -0.539  -0.524  -0.515  -0.497  -0.492
 -0.469  -0.465  -0.455  -0.437  -0.434  -0.411  -0.387  -0.350
 -0.339  -0.335  -0.301  -0.273
 -- Virtual --
  0.059   0.071   0.075   0.081   0.093   0.097   0.101   0.103
  0.114   0.120   0.124   0.128   0.137   0.140   0.147   0.155
  0.158   0.162   0.168   0.173   0.180   0.183   0.188   0.200
  0.203   0.209   0.215   0.225   0.228   0.230   0.235   0.240
  0.244   0.254   0.259   0.267   0.272   0.283   0.288   0.289
  0.304   0.305   0.317   0.319   0.324   0.329   0.337   0.339
  0.349   0.351   0.356   0.359   0.365   0.368   0.373   0.376
  0.384   0.386   0.394   0.401   0.405   0.411   0.414   0.417
  0.426   0.427   0.432   0.435   0.439   0.442   0.454   0.457
  0.470   0.473   0.475   0.480   0.483   0.493   0.495   0.500
  0.505   0.515   0.521   0.526   0.528   0.533   0.539   0.543
  0.547   0.556   0.560   0.567   0.574   0.577   0.581   0.589
  0.595   0.597   0.604   0.608   0.616   0.624   0.628   0.631
  0.636   0.646   0.654   0.656   0.667   0.676   0.680   0.685
  0.694   0.696   0.701   0.715   0.720   0.726   0.734   0.739
  0.744   0.750   0.759   0.761   0.773   0.779   0.785   0.794
  0.799   0.808   0.814   0.816   0.820   0.828   0.834   0.836
  0.837   0.848   0.857   0.862   0.867   0.874   0.881   0.884
  0.887   0.896   0.911   0.917   0.928   0.935   0.943   0.948
  0.964   0.978   0.997   1.001   1.005   1.021   1.026   1.038
  1.048   1.061   1.072   1.078   1.081   1.095   1.096   1.116
  1.139   1.144   1.151   1.164   1.179   1.195   1.212   1.230
  1.238   1.260   1.269   1.277   1.286   1.306   1.310   1.332
  1.344   1.360   1.371   1.386   1.396   1.409   1.415   1.426
  1.465   1.474   1.477   1.495   1.504   1.537   1.562   1.584
  1.597   1.667   1.687   1.710   1.713   1.740   1.780   1.784
  1.823   1.860   1.890   1.904   1.914   1.923   1.925   1.935
  1.942   1.952   1.961   1.968   1.974   1.981   1.990   1.996
  2.005   2.023   2.026   2.031   2.041   2.059   2.076   2.103
  2.122   2.135   2.161   2.192   2.206   2.221   2.227   2.241
  2.246   2.259   2.277   2.283   2.289   2.321   2.325   2.345
  2.363   2.383   2.430   2.450   2.461   2.479   2.487   2.489
  2.498   2.512   2.535   2.553   2.560   2.592   2.597   2.608
  2.650   2.663   2.678   2.679   2.723   2.751   2.762   2.774
  2.814   2.835   2.858   2.878   2.896   2.901   2.916   2.940
  2.956   2.971   2.979   2.994   3.004   3.031   3.034   3.048
  3.074   3.078   3.113   3.130   3.134   3.198   3.216   3.234
  3.243   3.264   3.291   3.297   3.317   3.330   3.338   3.350
  3.363   3.371   3.392   3.410   3.415   3.428   3.433   3.438
  3.455   3.468   3.485   3.494   3.513   3.528   3.545   3.581
  3.588   3.599   3.605   3.624   3.647   3.658   3.668   3.675
  3.689   3.699   3.704   3.728   3.745   3.753   3.780   3.803
  3.818   3.828   3.862   3.951   3.960   4.028   4.047   4.089
  4.098   4.121   4.138   4.155   4.172   4.243   4.265   4.304
  4.373   4.393   4.504   4.583   4.603   4.635   4.664   4.712
  4.740   4.787   4.806   4.814   4.833   4.886   4.946   5.011
  5.018   5.048   5.086   5.141   5.156   5.199   5.227   5.312
  5.322   5.352   5.360   5.366   5.371   5.373   5.379   5.439
  5.505   5.523   5.570   5.608   5.628   5.657   5.707   5.725
  5.757   5.771   5.875   5.986   6.015   6.026   6.040   6.148
  6.252   6.303   6.310   6.324   6.328   6.347   6.439   6.543
  6.603   6.612   6.628   6.632   6.635   6.642   6.654   6.672
  6.692   6.697   6.746   6.747   6.772   6.837   6.897   6.955
  6.964   6.971   6.998   7.050   7.070   7.078   7.103   7.168
  7.251   7.255   7.362   7.369   7.389   7.413   7.416   7.515
  7.652   8.141  22.643  22.854  22.889  23.613  23.737  43.720
 44.263  44.282  44.415  44.422  44.619
 --------------------------------------------------------------
 
          Ground-State Mulliken Net Atomic Charges

     Atom                 Charge (a.u.)
  ----------------------------------------
      1 C                    -0.127763
      2 C                     0.065490
      3 O                    -0.703789
      4 O                    -0.688401
      5 C                    -0.130861
      6 H                     0.267903
      7 H                     0.213324
      8 O                    -0.269529
      9 H                     0.214090
     10 H                     0.204144
     11 C                     0.581836
     12 C                    -0.798765
     13 H                     0.244666
     14 H                     0.241535
     15 H                     0.197167
     16 O                    -0.523649
     17 O                    -0.840788
     18 O                    -0.440817
     19 H                     0.294207
  ----------------------------------------
  Sum of atomic charges =    -2.000000

 -----------------------------------------------------------------
                    Cartesian Multipole Moments
 -----------------------------------------------------------------
    Charge (ESU x 10^10)
                -9.6064
    Dipole Moment (Debye)
         X       5.4027      Y     -13.9044      Z      11.9650
       Tot      19.1229
    Quadrupole Moments (Debye-Ang)
        XX    -128.8558     XY     -40.0409     YY    -123.4571
        XZ     -38.4550     YZ     -20.1677     ZZ    -117.5558
    Octopole Moments (Debye-Ang^2)
       XXX     117.8128    XXY     -42.7494    XYY     -47.0340
       YYY    -171.8727    XXZ     133.1213    XYZ      16.9144
       YYZ      14.3427    XZZ     164.7814    YZZ      -7.7306
       ZZZ     228.1795
    Hexadecapole Moments (Debye-Ang^3)
      XXXX   -1903.0272   XXXY    -665.6976   XXYY    -685.0027
      XYYY    -697.0645   YYYY   -1361.9182   XXXZ    -830.4588
      XXYZ    -206.9189   XYYZ    -314.0361   YYYZ    -321.2577
      XXZZ    -867.5479   XYZZ    -225.4031   YYZZ    -517.8259
      XZZZ    -909.4144   YZZZ    -250.2096   ZZZZ   -2064.9819
 -----------------------------------------------------------------
 Calculating analytic gradient of the SCF energy
 Gradient of SCF Energy
            1           2           3           4           5           6
    1  -0.0122473  -0.0243032   0.0377451  -0.0063720   0.0222195  -0.0207954
    2  -0.0570807   0.0136588   0.0328357  -0.0447144   0.0915975   0.0406696
    3   0.0589491  -0.0313973   0.0216567   0.0278134  -0.0810673   0.0103833
            7           8           9          10          11          12
    1   0.0385505   0.0010610   0.0278626  -0.0473865  -0.0615007   0.0216849
    2   0.0029147   0.0014371  -0.0713046  -0.0017437  -0.0008021   0.0141881
    3  -0.0434535   0.0235704  -0.0218448   0.0571573  -0.0336371   0.0547571
           13          14          15          16          17          18
    1   0.0027685   0.0209049  -0.0575321   0.0628160  -0.0536882   0.0448618
    2   0.0501524  -0.0228679  -0.0162248  -0.0294956   0.0355675  -0.0743238
    3  -0.0005451  -0.0551770   0.0120037   0.0036253   0.0036594   0.0348797
           19
    1   0.0033505
    2   0.0355364
    3  -0.0413333
 Max gradient component =       9.160E-02
 RMS gradient           =       3.916E-02
 Computing fast CPCM-ISWIG gradient
 Updating gradient with PCM contributions...
 -- total gradient after adding PCM contribution --
---------------------------------------------------
  Atom         X              Y              Z     
---------------------------------------------------
   1      -0.000988      -0.000008       0.000079
   2       0.000187      -0.000020       0.000064
   3       0.000048       0.000015       0.000068
   4      -0.000032       0.000004       0.000017
   5       0.000253       0.000113       0.000023
   6       0.000182      -0.000196      -0.000031
   7       0.000287       0.000041      -0.000245
   8       0.000036       0.000012       0.000022
   9      -0.000019      -0.000014      -0.000022
  10       0.000036       0.000023       0.000015
  11      -0.000019      -0.000001       0.000013
  12      -0.000009       0.000006       0.000006
  13       0.000006       0.000005      -0.000009
  14      -0.000007      -0.000002      -0.000003
  15      -0.000001       0.000005       0.000002
  16       0.000015       0.000019      -0.000007
  17       0.000009       0.000007       0.000025
  18      -0.000002      -0.000019      -0.000015
  19       0.000017       0.000010      -0.000001
---------------------------------------------------
 Number of fixed atoms: 0
 Gradient time:  CPU 948.56 s  wall 70.67 s
 ----------------------------------------------------------------
             Standard Nuclear Orientation (Angstroms)
    I     Atom           X                Y                Z
 ----------------------------------------------------------------
    1      C      -1.3612995316    -1.0326185602    -1.2784772980
    2      C      -2.1946303943    -0.6922027889    -2.5245976755
    3      O      -3.0267720523    -1.5621138694    -2.8903709511
    4      O      -1.9932297883     0.4170327282    -3.0801440153
    5      C      -0.3084341575     0.0061379547    -0.9451634482
    6      H      -0.8855789707    -2.0066085505    -1.4407040866
    7      H      -2.0506574598    -1.1538961420    -0.4362295340
    8      O       0.4761544798    -0.4095325171     0.2008371259
    9      H      -0.7506556127     0.9806339008    -0.7377606000
   10      H       0.4188804150     0.1079893365    -1.7508997392
   11      C      -0.0178886289    -0.1455159611     1.4137601894
   12      C       0.8881763092    -0.6480236055     2.5016909772
   13      H       0.8416245397    -1.7408949429     2.5210828771
   14      H       0.5648350828    -0.2535974514     3.4639247253
   15      H       1.9216272300    -0.3604951698     2.2976541670
   16      O      -1.0755458725     0.4195637085     1.5987895208
   17      O       1.8085003477     3.0277160649     0.8338390714
   18      O       3.0024608304     2.2373284520     0.4929259179
   19      H       3.0620878336     1.6216939555     1.2321283780
 ----------------------------------------------------------------
 Nuclear Repulsion Energy =   596.9590588537 hartrees
 There are       44 alpha and       44 beta electrons
 Discretize the solute cavity surface with Lebedev spheres
	Using 110 Lebedev grid points for each H atom
	Using 110 Lebedev grid points for other atoms
	Atomic van der Waals radii will be scaled by 1.20
 Remove points where switching function is < 1.0e-08
 Keep 1214 surface tesserae and discard 876 interior tesserae
 Molecular Surface Area = 231.068 Angst**2
 Requested basis set is def2-TZVPD
 There are 189 shells and 497 basis functions
 A cutoff of  1.0D-14 yielded  15587 shell pairs
 There are    107357 function pairs (    136394 Cartesian)
 Smallest overlap matrix eigenvalue = 4.34E-06
 Guess MOs from SCF MO coefficient file
 Reading MOs from coefficient file
 Reading MOs from coefficient file
 Long-range K will be added via erf
 Coulomb attenuation parameter = 0.3 bohr**(-1)
 A restricted hybrid HF-DFT SCF calculation will be
 performed using Pulay DIIS extrapolation
 Polarizable Continuum solvation model will be applied
 Exchange:     0.1670 Hartree-Fock + 1.0000 wB97X-V + LR-HF
 Correlation:  1.0000 wB97X-V
 Using SG-2 standard quadrature grid
 Nonlocal Correlation:  VV10 with C = 0.0100 and b = 6.00
 Grid used for NLC:  SG-1 standard quadrature
 SCF converges when DIIS error is below 1.0E-08
Using Q-Chem read-in guess as SCF_GUESS READ specified.

 using 16 threads for integral computing
 -------------------------------------------------------
 OpenMP Integral computing Module                
 Release: version 1.0, May 2013, Q-Chem Inc. Pittsburgh 
 -------------------------------------------------------
 using 16 threads for integral computing
 -------------------------------------------------------
 OpenMP Integral computing Module                
 Release: version 1.0, May 2013, Q-Chem Inc. Pittsburgh 
 -------------------------------------------------------
 -------------------------------------------------------
 OpenMP BLAS3 based DFT computing Module                
 Release: version 1.0, May 2013, Q-Chem Inc. Pittsburgh 
 -------------------------------------------------------
 -------------------------------------------------------
 OpenMP BLAS3 based DFT computing Module                
 Release: version 1.0, May 2013, Q-Chem Inc. Pittsburgh 
 -------------------------------------------------------
 -------------------------------------------------------
 OpenMP BLAS3 based DFT computing Module                
 Release: version 1.0, May 2013, Q-Chem Inc. Pittsburgh 
 -------------------------------------------------------
 ---------------------------------------
  Cycle       Energy         DIIS Error
 ---------------------------------------
    1    -646.6319635670      4.55E-04
    2    -646.9410845562      5.04E-04
    3    -646.9511289564      2.29E-04
    4    -646.9527519678      1.67E-04
    5    -646.9537738893      1.26E-04
    6    -646.9542711031      1.02E-04
    7    -646.9547317953      7.22E-05
    8    -646.9550363246      4.27E-05
    9    -646.9551551059      2.24E-05
   10    -646.9551953007      7.49E-06
   11    -646.9552000892      1.60E-06
   12    -646.9552002994      3.96E-07
   13    -646.9552003128      4.15E-08
   14    -646.9552003130      1.80E-08
   15    -646.9552003130      1.23E-08
   16    -646.9552003130      3.98E-09 Convergence criterion met
 ---------------------------------------

************** Final PCM Free Energy Summary **************
 G_electrostatic  =      -0.32286390 hartree =    -202.60015495 kcal/mol
 G_cavitation     =       0.00000000 hartree =       0.00000000 kcal/mol
 G_dispersion     =       0.00000000 hartree =       0.00000000 kcal/mol
 G_repulsion      =       0.00000000 hartree =       0.00000000 kcal/mol
 --------------------------------------------------
 Non-electrostatic Free Energy =       0.00000000 hartree =       0.00000000 kcal/mol
 Total                         =      -0.32286390 hartree =    -202.60015495 kcal/mol
 --------------------------------------------------
 SCF Energy (H0 + V/2)                       =    -646.95520031 
 Solute Internal Energy (H0)                 =    -646.63233641 
 Total Free Energy (H0 + V/2 + non-elec)     =    -646.95520031 hartree
                                             = -405970.51550913 kcal/mol
***********************************************************

 SCF time:  CPU 4580.42 s  wall 330.87 s
 SCF   energy in the final basis set = -646.95520031
 Total energy in the final basis set = -646.95520031
 
 --------------------------------------------------------------
 
                    Orbital Energies (a.u.)
 --------------------------------------------------------------
 
 Alpha MOs
 -- Occupied --
-19.254 -19.202 -19.199 -19.144 -19.141 -19.135 -10.402 -10.346
-10.313 -10.268 -10.255  -1.238  -1.148  -1.145  -1.133  -1.053
 -0.912  -0.878  -0.864  -0.778  -0.671  -0.625  -0.617  -0.596
 -0.582  -0.557  -0.549  -0.539  -0.524  -0.515  -0.497  -0.492
 -0.469  -0.465  -0.455  -0.437  -0.434  -0.411  -0.387  -0.350
 -0.339  -0.335  -0.301  -0.273
 -- Virtual --
  0.059   0.071   0.075   0.081   0.093   0.097   0.101   0.103
  0.114   0.120   0.124   0.128   0.137   0.140   0.147   0.155
  0.158   0.162   0.168   0.173   0.180   0.183   0.188   0.200
  0.203   0.209   0.215   0.225   0.228   0.230   0.235   0.240
  0.244   0.254   0.259   0.267   0.272   0.283   0.288   0.289
  0.304   0.305   0.317   0.319   0.324   0.329   0.337   0.339
  0.349   0.351   0.356   0.359   0.365   0.368   0.373   0.376
  0.384   0.386   0.394   0.401   0.405   0.411   0.414   0.417
  0.426   0.427   0.432   0.435   0.439   0.442   0.454   0.457
  0.470   0.473   0.475   0.480   0.483   0.493   0.495   0.500
  0.505   0.515   0.521   0.526   0.528   0.533   0.539   0.543
  0.547   0.556   0.560   0.567   0.574   0.577   0.581   0.589
  0.595   0.597   0.604   0.608   0.616   0.624   0.628   0.631
  0.636   0.646   0.654   0.656   0.667   0.676   0.680   0.685
  0.694   0.696   0.702   0.715   0.720   0.726   0.734   0.739
  0.744   0.750   0.759   0.761   0.773   0.779   0.785   0.794
  0.799   0.808   0.814   0.816   0.820   0.828   0.834   0.836
  0.837   0.848   0.857   0.862   0.867   0.874   0.881   0.884
  0.887   0.896   0.911   0.917   0.928   0.935   0.943   0.948
  0.964   0.978   0.997   1.001   1.005   1.021   1.026   1.038
  1.048   1.061   1.072   1.078   1.081   1.095   1.096   1.116
  1.139   1.144   1.151   1.164   1.179   1.195   1.212   1.230
  1.238   1.260   1.269   1.277   1.286   1.306   1.310   1.332
  1.344   1.360   1.371   1.386   1.396   1.409   1.415   1.426
  1.465   1.474   1.477   1.495   1.504   1.537   1.562   1.584
  1.597   1.667   1.687   1.710   1.713   1.740   1.780   1.784
  1.823   1.860   1.890   1.904   1.914   1.923   1.925   1.935
  1.942   1.952   1.961   1.968   1.974   1.981   1.990   1.996
  2.005   2.023   2.026   2.031   2.041   2.059   2.076   2.103
  2.122   2.135   2.161   2.192   2.206   2.221   2.227   2.241
  2.246   2.259   2.277   2.283   2.289   2.321   2.325   2.345
  2.363   2.383   2.430   2.450   2.461   2.480   2.487   2.489
  2.498   2.512   2.535   2.553   2.560   2.592   2.597   2.608
  2.650   2.663   2.678   2.679   2.723   2.751   2.762   2.774
  2.814   2.835   2.859   2.878   2.896   2.901   2.916   2.940
  2.956   2.971   2.979   2.994   3.004   3.031   3.033   3.048
  3.073   3.078   3.113   3.130   3.134   3.198   3.216   3.234
  3.243   3.264   3.291   3.297   3.317   3.330   3.338   3.350
  3.363   3.371   3.392   3.410   3.415   3.428   3.433   3.438
  3.455   3.468   3.485   3.494   3.513   3.528   3.544   3.580
  3.588   3.599   3.605   3.624   3.647   3.658   3.668   3.675
  3.689   3.699   3.704   3.728   3.745   3.753   3.780   3.803
  3.818   3.828   3.863   3.951   3.960   4.028   4.047   4.089
  4.098   4.121   4.138   4.155   4.172   4.243   4.265   4.304
  4.373   4.393   4.504   4.583   4.604   4.635   4.664   4.713
  4.740   4.787   4.807   4.814   4.833   4.886   4.946   5.011
  5.018   5.048   5.086   5.141   5.156   5.199   5.227   5.312
  5.322   5.352   5.359   5.366   5.371   5.373   5.379   5.439
  5.505   5.523   5.570   5.608   5.628   5.657   5.707   5.725
  5.757   5.771   5.875   5.986   6.015   6.026   6.040   6.148
  6.252   6.303   6.310   6.324   6.328   6.347   6.439   6.543
  6.603   6.612   6.628   6.632   6.635   6.642   6.654   6.672
  6.692   6.697   6.746   6.747   6.772   6.837   6.897   6.955
  6.963   6.971   6.998   7.050   7.070   7.078   7.103   7.168
  7.251   7.255   7.362   7.369   7.389   7.413   7.416   7.515
  7.652   8.141  22.643  22.855  22.889  23.613  23.736  43.720
 44.263  44.282  44.415  44.422  44.619
 --------------------------------------------------------------
 
          Ground-State Mulliken Net Atomic Charges

     Atom                 Charge (a.u.)
  ----------------------------------------
      1 C                    -0.127619
      2 C                     0.064870
      3 O                    -0.703818
      4 O                    -0.688400
      5 C                    -0.129577
      6 H                     0.268052
      7 H                     0.213073
      8 O                    -0.269528
      9 H                     0.213802
     10 H                     0.203698
     11 C                     0.581872
     12 C                    -0.798805
     13 H                     0.244667
     14 H                     0.241544
     15 H                     0.197189
     16 O                    -0.523624
     17 O                    -0.840784
     18 O                    -0.440818
     19 H                     0.294207
  ----------------------------------------
  Sum of atomic charges =    -2.000000

 -----------------------------------------------------------------
                    Cartesian Multipole Moments
 -----------------------------------------------------------------
    Charge (ESU x 10^10)
                -9.6064
    Dipole Moment (Debye)
         X       5.4024      Y     -13.9041      Z      11.9645
       Tot      19.1222
    Quadrupole Moments (Debye-Ang)
        XX    -128.8539     XY     -40.0387     YY    -123.4580
        XZ     -38.4511     YZ     -20.1657     ZZ    -117.5533
    Octopole Moments (Debye-Ang^2)
       XXX     117.7892    XXY     -42.7632    XYY     -47.0428
       YYY    -171.8849    XXZ     133.1069    XYZ      16.9032
       YYZ      14.3421    XZZ     164.7643    YZZ      -7.7447
       ZZZ     228.1728
    Hexadecapole Moments (Debye-Ang^3)
      XXXX   -1902.9008   XXXY    -665.6290   XXYY    -684.9652
      XYYY    -697.0179   YYYY   -1361.8618   XXXZ    -830.3793
      XXYZ    -206.8744   XYYZ    -314.0147   YYYZ    -321.2346
      XXZZ    -867.4791   XYZZ    -225.3520   YYZZ    -517.8089
      XZZZ    -909.3438   YZZZ    -250.1500   ZZZZ   -2064.9371
 -----------------------------------------------------------------
 Calculating analytic gradient of the SCF energy
 Gradient of SCF Energy
            1           2           3           4           5           6
    1  -0.0116308  -0.0244154   0.0377088  -0.0063399   0.0218553  -0.0206564
    2  -0.0563810   0.0135447   0.0328449  -0.0447120   0.0913397   0.0404032
    3   0.0588317  -0.0313861   0.0215963   0.0278384  -0.0812675   0.0103888
            7           8           9          10          11          12
    1   0.0383008   0.0010516   0.0278296  -0.0473788  -0.0614778   0.0216683
    2   0.0028258   0.0014701  -0.0712729  -0.0017886  -0.0008062   0.0141900
    3  -0.0430621   0.0235650  -0.0218293   0.0571018  -0.0336572   0.0547615
           13          14          15          16          17          18
    1   0.0027687   0.0209053  -0.0575285   0.0628150  -0.0536877   0.0448615
    2   0.0501533  -0.0228680  -0.0162273  -0.0294966   0.0355672  -0.0743226
    3  -0.0005444  -0.0551781   0.0120054   0.0036300   0.0036593   0.0348795
           19
    1   0.0033504
    2   0.0355362
    3  -0.0413329
 Max gradient component =       9.134E-02
 RMS gradient           =       3.911E-02
 Computing fast CPCM-ISWIG gradient
 Updating gradient with PCM contributions...
 -- total gradient after adding PCM contribution --
---------------------------------------------------
  Atom         X              Y              Z     
---------------------------------------------------
   1       0.000002       0.001053       0.000001
   2       0.000014      -0.000143       0.000030
   3      -0.000042      -0.000001      -0.000047
   4       0.000013      -0.000036       0.000079
   5      -0.000144      -0.000303      -0.000035
   6       0.000190      -0.000479      -0.000068
   7      -0.000031      -0.000082       0.000044
   8       0.000020       0.000015       0.000012
   9      -0.000040      -0.000033      -0.000025
  10       0.000006      -0.000015       0.000005
  11      -0.000012      -0.000004       0.000007
  12      -0.000010       0.000006       0.000007
  13       0.000006       0.000005      -0.000009
  14      -0.000007      -0.000002      -0.000002
  15      -0.000001       0.000005       0.000002
  16       0.000010       0.000018      -0.000007
  17       0.000009       0.000007       0.000025
  18      -0.000002      -0.000019      -0.000015
  19       0.000017       0.000010      -0.000001
---------------------------------------------------
 Number of fixed atoms: 0
 Gradient time:  CPU 968.31 s  wall 71.48 s
 ----------------------------------------------------------------
             Standard Nuclear Orientation (Angstroms)
    I     Atom           X                Y                Z
 ----------------------------------------------------------------
    1      C      -1.3612995316    -1.0346185602    -1.2784772980
    2      C      -2.1946303943    -0.6922027889    -2.5245976755
    3      O      -3.0267720523    -1.5621138694    -2.8903709511
    4      O      -1.9932297883     0.4170327282    -3.0801440153
    5      C      -0.3084341575     0.0061379547    -0.9451634482
    6      H      -0.8855789707    -2.0066085505    -1.4407040866
    7      H      -2.0506574598    -1.1538961420    -0.4362295340
    8      O       0.4761544798    -0.4095325171     0.2008371259
    9      H      -0.7506556127     0.9806339008    -0.7377606000
   10      H       0.4188804150     0.1079893365    -1.7508997392
   11      C      -0.0178886289    -0.1455159611     1.4137601894
   12      C       0.8881763092    -0.6480236055     2.5016909772
   13      H       0.8416245397    -1.7408949429     2.5210828771
   14      H       0.5648350828    -0.2535974514     3.4639247253
   15      H       1.9216272300    -0.3604951698     2.2976541670
   16      O      -1.0755458725     0.4195637085     1.5987895208
   17      O       1.8085003477     3.0277160649     0.8338390714
   18      O       3.0024608304     2.2373284520     0.4929259179
   19      H       3.0620878336     1.6216939555     1.2321283780
 ----------------------------------------------------------------
 Nuclear Repulsion Energy =   596.9362938705 hartrees
 There are       44 alpha and       44 beta electrons
 Discretize the solute cavity surface with Lebedev spheres
	Using 110 Lebedev grid points for each H atom
	Using 110 Lebedev grid points for other atoms
	Atomic van der Waals radii will be scaled by 1.20
 Remove points where switching function is < 1.0e-08
 Keep 1213 surface tesserae and discard 877 interior tesserae
 Molecular Surface Area = 231.060 Angst**2
 Requested basis set is def2-TZVPD
 There are 189 shells and 497 basis functions
 A cutoff of  1.0D-14 yielded  15587 shell pairs
 There are    107357 function pairs (    136394 Cartesian)
 Smallest overlap matrix eigenvalue = 4.35E-06
 Guess MOs from SCF MO coefficient file
 Reading MOs from coefficient file
 Reading MOs from coefficient file
 Long-range K will be added via erf
 Coulomb attenuation parameter = 0.3 bohr**(-1)
 A restricted hybrid HF-DFT SCF calculation will be
 performed using Pulay DIIS extrapolation
 Polarizable Continuum solvation model will be applied
 Exchange:     0.1670 Hartree-Fock + 1.0000 wB97X-V + LR-HF
 Correlation:  1.0000 wB97X-V
 Using SG-2 standard quadrature grid
 Nonlocal Correlation:  VV10 with C = 0.0100 and b = 6.00
 Grid used for NLC:  SG-1 standard quadrature
 SCF converges when DIIS error is below 1.0E-08
Using Q-Chem read-in guess as SCF_GUESS READ specified.

 using 16 threads for integral computing
 -------------------------------------------------------
 OpenMP Integral computing Module                
 Release: version 1.0, May 2013, Q-Chem Inc. Pittsburgh 
 -------------------------------------------------------
 using 16 threads for integral computing
 -------------------------------------------------------
 OpenMP Integral computing Module                
 Release: version 1.0, May 2013, Q-Chem Inc. Pittsburgh 
 -------------------------------------------------------
 -------------------------------------------------------
 OpenMP BLAS3 based DFT computing Module                
 Release: version 1.0, May 2013, Q-Chem Inc. Pittsburgh 
 -------------------------------------------------------
 -------------------------------------------------------
 OpenMP BLAS3 based DFT computing Module                
 Release: version 1.0, May 2013, Q-Chem Inc. Pittsburgh 
 -------------------------------------------------------
 -------------------------------------------------------
 OpenMP BLAS3 based DFT computing Module                
 Release: version 1.0, May 2013, Q-Chem Inc. Pittsburgh 
 -------------------------------------------------------
 ---------------------------------------
  Cycle       Energy         DIIS Error
 ---------------------------------------
    1    -646.6330296351      4.54E-04
    2    -646.9411117936      5.04E-04
    3    -646.9511360783      2.29E-04
    4    -646.9527568787      1.67E-04
    5    -646.9537812798      1.26E-04
    6    -646.9542979842      1.00E-04
    7    -646.9548024376      6.64E-05
    8    -646.9551000296      3.33E-05
    9    -646.9551813995      1.45E-05
   10    -646.9551989326      3.87E-06
   11    -646.9552002235      6.84E-07
   12    -646.9552002616      1.49E-07
   13    -646.9552002636      2.42E-08
   14    -646.9552002636      1.88E-08
   15    -646.9552002636      1.01E-08
   16    -646.9552002637      2.73E-09 Convergence criterion met
 ---------------------------------------

************** Final PCM Free Energy Summary **************
 G_electrostatic  =      -0.32286391 hartree =    -202.60016122 kcal/mol
 G_cavitation     =       0.00000000 hartree =       0.00000000 kcal/mol
 G_dispersion     =       0.00000000 hartree =       0.00000000 kcal/mol
 G_repulsion      =       0.00000000 hartree =       0.00000000 kcal/mol
 --------------------------------------------------
 Non-electrostatic Free Energy =       0.00000000 hartree =       0.00000000 kcal/mol
 Total                         =      -0.32286391 hartree =    -202.60016122 kcal/mol
 --------------------------------------------------
 SCF Energy (H0 + V/2)                       =    -646.95520026 
 Solute Internal Energy (H0)                 =    -646.63233635 
 Total Free Energy (H0 + V/2 + non-elec)     =    -646.95520026 hartree
                                             = -405970.51547814 kcal/mol
***********************************************************

 SCF time:  CPU 4589.37 s  wall 332.48 s
 SCF   energy in the final basis set = -646.95520026
 Total energy in the final basis set = -646.95520026
 
 --------------------------------------------------------------
 
                    Orbital Energies (a.u.)
 --------------------------------------------------------------
 
 Alpha MOs
 -- Occupied --
-19.254 -19.202 -19.199 -19.144 -19.141 -19.135 -10.402 -10.346
-10.313 -10.268 -10.255  -1.238  -1.148  -1.145  -1.133  -1.053
 -0.912  -0.878  -0.864  -0.778  -0.671  -0.625  -0.617  -0.596
 -0.582  -0.557  -0.549  -0.539  -0.524  -0.515  -0.497  -0.492
 -0.469  -0.465  -0.455  -0.437  -0.434  -0.411  -0.387  -0.350
 -0.339  -0.335  -0.301  -0.273
 -- Virtual --
  0.059   0.071   0.075   0.081   0.093   0.097   0.101   0.103
  0.114   0.120   0.124   0.128   0.137   0.140   0.147   0.155
  0.158   0.162   0.168   0.173   0.180   0.183   0.188   0.200
  0.203   0.209   0.215   0.225   0.228   0.230   0.235   0.240
  0.244   0.254   0.259   0.267   0.272   0.283   0.288   0.289
  0.304   0.305   0.317   0.319   0.324   0.329   0.337   0.339
  0.349   0.351   0.356   0.359   0.365   0.368   0.373   0.376
  0.384   0.386   0.394   0.401   0.405   0.411   0.414   0.417
  0.426   0.427   0.432   0.435   0.439   0.442   0.454   0.457
  0.470   0.473   0.475   0.480   0.483   0.493   0.495   0.500
  0.505   0.515   0.521   0.526   0.528   0.533   0.539   0.543
  0.547   0.556   0.560   0.567   0.574   0.576   0.581   0.589
  0.595   0.597   0.604   0.608   0.616   0.624   0.628   0.631
  0.636   0.645   0.654   0.656   0.667   0.676   0.680   0.685
  0.694   0.696   0.701   0.715   0.720   0.726   0.734   0.739
  0.744   0.750   0.759   0.761   0.773   0.779   0.785   0.794
  0.799   0.808   0.814   0.816   0.820   0.827   0.834   0.836
  0.837   0.848   0.857   0.862   0.867   0.874   0.881   0.884
  0.887   0.896   0.911   0.917   0.928   0.935   0.943   0.948
  0.964   0.978   0.997   1.001   1.005   1.021   1.026   1.038
  1.048   1.061   1.072   1.078   1.081   1.095   1.096   1.116
  1.139   1.144   1.150   1.164   1.179   1.195   1.212   1.230
  1.238   1.261   1.269   1.277   1.286   1.306   1.310   1.332
  1.344   1.360   1.371   1.386   1.396   1.409   1.415   1.425
  1.465   1.474   1.477   1.495   1.504   1.537   1.562   1.584
  1.597   1.667   1.687   1.710   1.713   1.740   1.780   1.784
  1.823   1.860   1.890   1.904   1.914   1.923   1.925   1.935
  1.942   1.952   1.961   1.968   1.974   1.981   1.990   1.996
  2.005   2.023   2.026   2.031   2.042   2.059   2.076   2.103
  2.122   2.135   2.161   2.192   2.206   2.221   2.227   2.241
  2.246   2.259   2.277   2.283   2.289   2.321   2.325   2.345
  2.363   2.383   2.430   2.450   2.461   2.479   2.487   2.489
  2.498   2.512   2.535   2.553   2.561   2.592   2.597   2.607
  2.650   2.663   2.677   2.679   2.723   2.751   2.762   2.774
  2.814   2.835   2.859   2.878   2.896   2.901   2.916   2.940
  2.956   2.971   2.979   2.994   3.004   3.031   3.034   3.047
  3.074   3.078   3.113   3.130   3.134   3.199   3.216   3.234
  3.243   3.264   3.291   3.297   3.317   3.330   3.338   3.350
  3.363   3.371   3.392   3.410   3.415   3.428   3.433   3.438
  3.455   3.467   3.485   3.494   3.513   3.527   3.544   3.581
  3.588   3.599   3.605   3.624   3.647   3.658   3.668   3.675
  3.689   3.699   3.704   3.728   3.745   3.753   3.780   3.802
  3.818   3.827   3.862   3.951   3.960   4.028   4.047   4.089
  4.098   4.121   4.137   4.155   4.172   4.243   4.265   4.304
  4.372   4.393   4.504   4.583   4.603   4.635   4.664   4.713
  4.740   4.788   4.806   4.814   4.833   4.886   4.946   5.011
  5.017   5.048   5.086   5.141   5.156   5.199   5.227   5.312
  5.322   5.352   5.360   5.366   5.371   5.373   5.379   5.439
  5.505   5.523   5.570   5.608   5.628   5.657   5.707   5.725
  5.757   5.771   5.875   5.986   6.015   6.026   6.040   6.148
  6.252   6.303   6.310   6.324   6.327   6.347   6.439   6.543
  6.603   6.612   6.628   6.632   6.635   6.642   6.654   6.672
  6.692   6.697   6.746   6.747   6.771   6.837   6.897   6.954
  6.964   6.971   6.998   7.050   7.070   7.078   7.103   7.168
  7.251   7.255   7.362   7.369   7.389   7.412   7.416   7.515
  7.652   8.141  22.643  22.855  22.889  23.613  23.736  43.720
 44.263  44.282  44.415  44.422  44.619
 --------------------------------------------------------------
 
          Ground-State Mulliken Net Atomic Charges

     Atom                 Charge (a.u.)
  ----------------------------------------
      1 C                    -0.128509
      2 C                     0.065938
      3 O                    -0.703734
      4 O                    -0.688320
      5 C                    -0.131017
      6 H                     0.268945
      7 H                     0.212577
      8 O                    -0.269558
      9 H                     0.214169
     10 H                     0.204171
     11 C                     0.581829
     12 C                    -0.798772
     13 H                     0.244665
     14 H                     0.241532
     15 H                     0.197151
     16 O                    -0.523674
     17 O                    -0.840788
     18 O                    -0.440815
     19 H                     0.294207
  ----------------------------------------
  Sum of atomic charges =    -2.000000

[...]
 Red. Mass:       2.0651                 2.8641                 1.1025
 IR Active:          YES                    YES                    YES
 IR Intens:       12.502                 20.891                 52.774
 Raman Active:       YES                    YES                    YES
               X      Y      Z        X      Y      Z        X      Y      Z
 C          0.115 -0.084 -0.100    0.157  0.223 -0.016    0.000 -0.000 -0.000
 C         -0.125  0.076  0.106   -0.022  0.001 -0.006   -0.000  0.000  0.001
 O          0.023 -0.013 -0.018   -0.018 -0.007 -0.020    0.000 -0.000 -0.000
 O          0.024 -0.012 -0.022    0.007 -0.016  0.016   -0.000  0.000 -0.000
 C         -0.072  0.057  0.100   -0.196 -0.198 -0.039    0.001 -0.000 -0.001
 H          0.157 -0.153  0.487    0.366  0.302  0.157    0.003  0.001  0.003
 H         -0.310  0.227 -0.391    0.323  0.311  0.125   -0.004 -0.002 -0.004
 O          0.041 -0.028 -0.056    0.053 -0.004  0.064   -0.000  0.000 -0.001
 H          0.250  0.261 -0.179   -0.281 -0.234 -0.114    0.002 -0.001  0.004
 H         -0.067 -0.378  0.045   -0.260 -0.280 -0.095   -0.005  0.002 -0.006
 C         -0.012  0.024 -0.028    0.001 -0.002  0.024    0.001  0.001  0.003
 C          0.004 -0.014  0.022    0.018 -0.016 -0.048    0.001 -0.001 -0.000
 H          0.054 -0.016  0.039   -0.024 -0.009  0.081   -0.001 -0.001  0.002
 H          0.059 -0.006  0.039   -0.147  0.078 -0.140   -0.011  0.001 -0.004
 H         -0.002  0.005 -0.001    0.031  0.030  0.098   -0.001  0.003 -0.004
 O         -0.029  0.012  0.019   -0.011  0.009 -0.004   -0.000 -0.000 -0.000
 O         -0.000  0.000  0.000   -0.000 -0.000  0.000   -0.023  0.041 -0.027
 O          0.000 -0.000 -0.000   -0.000 -0.000 -0.000   -0.028 -0.013  0.049
 H         -0.001  0.000  0.001   -0.001  0.000  0.000    0.816 -0.448 -0.357
 TransDip  -0.048  0.043  0.093   -0.095  0.001 -0.111    0.194 -0.107 -0.070

 Mode:                31                     32                     33
 Frequency:      1248.18                1275.05                1298.38
 Force Cnst:      1.2547                 1.7812                 1.6880
 Red. Mass:       1.3669                 1.8595                 1.6995
 IR Active:          YES                    YES                    YES
 IR Intens:       23.190                338.323                185.637
 Raman Active:       YES                    YES                    YES
               X      Y      Z        X      Y      Z        X      Y      Z
 C         -0.018  0.002  0.002    0.090  0.021  0.057   -0.084 -0.057 -0.111
 C         -0.038  0.020  0.032    0.036  0.000  0.024   -0.004 -0.018 -0.032
 O          0.009 -0.001 -0.003   -0.040 -0.036 -0.020    0.034  0.032  0.023
 O          0.005 -0.000 -0.007    0.004  0.020 -0.007   -0.005 -0.007  0.005
 C          0.083 -0.051 -0.074    0.030  0.049  0.040   -0.018 -0.003  0.048
 H          0.399  0.150  0.308   -0.428 -0.161 -0.358    0.070 -0.045  0.228
 H         -0.335 -0.186 -0.285   -0.178 -0.001 -0.166    0.583  0.176  0.474
 O         -0.047  0.031  0.014    0.010 -0.033 -0.074    0.006  0.011 -0.076
 H          0.154 -0.124  0.399   -0.208  0.031 -0.352    0.356  0.149  0.163
 H         -0.262  0.190 -0.364   -0.322 -0.080 -0.302   -0.079 -0.045 -0.021
 C          0.008 -0.007  0.088    0.001  0.001  0.204    0.004 -0.002  0.152
 C          0.002  0.000 -0.021    0.019 -0.010 -0.044    0.017 -0.011 -0.024
 H         -0.079  0.006 -0.020   -0.191  0.005 -0.013   -0.157  0.001 -0.028
 H         -0.103  0.045 -0.076   -0.237  0.106 -0.179   -0.180  0.085 -0.130
 H         -0.018  0.054 -0.027   -0.034  0.146 -0.039   -0.036  0.127 -0.055
 O          0.021 -0.010 -0.021   -0.005  0.001 -0.021   -0.007  0.004 -0.016
 O          0.000 -0.001  0.000    0.000 -0.000  0.000    0.000 -0.000  0.000
 O          0.001  0.000 -0.001    0.000 -0.000 -0.000    0.000 -0.000 -0.000
 H         -0.014  0.006  0.005   -0.012  0.003  0.002   -0.007  0.001  0.000
 TransDip  -0.002 -0.027  0.152    0.046  0.166  0.563   -0.066 -0.072  0.425

 Mode:                34                     35                     36
 Frequency:      1327.96                1397.72                1419.21
 Force Cnst:      1.2730                 1.5196                 2.3575
 Red. Mass:       1.2253                 1.3202                 1.9866
 IR Active:          YES                    YES                    YES
 IR Intens:      105.925                 45.657                287.078
 Raman Active:       YES                    YES                    YES
               X      Y      Z        X      Y      Z        X      Y      Z
 C          0.070 -0.016  0.003   -0.031  0.002 -0.039    0.014 -0.002  0.024
 C          0.016 -0.002 -0.003   -0.015 -0.003 -0.017    0.090 -0.022  0.125
 O         -0.012 -0.009 -0.006    0.015  0.013  0.009   -0.064 -0.056 -0.036
 O         -0.001  0.002 -0.000   -0.001 -0.009  0.006    0.005  0.068 -0.044
 C         -0.032  0.012 -0.013    0.056  0.022  0.043   -0.087 -0.049 -0.063
 H         -0.330 -0.164 -0.270    0.014 -0.017  0.162    0.031  0.047 -0.166
 H          0.107  0.193  0.057    0.126 -0.081  0.083   -0.119  0.113 -0.077
 O         -0.032  0.023  0.063   -0.004 -0.011  0.009    0.013  0.012 -0.060
 H          0.425  0.116  0.440   -0.203 -0.033 -0.240    0.369  0.084  0.286
 H         -0.391 -0.167 -0.357   -0.266 -0.014 -0.257    0.403  0.127  0.402
 C          0.003 -0.005 -0.068   -0.008  0.009  0.034    0.009  0.002  0.112
 C         -0.012  0.008  0.007   -0.074  0.051 -0.095   -0.049  0.035 -0.089
 H          0.086  0.002  0.013    0.364  0.036  0.384    0.158  0.032  0.339
 H          0.081 -0.041  0.058    0.258 -0.282  0.155    0.126 -0.240  0.085
 H          0.018 -0.074  0.028    0.118 -0.321  0.334    0.057 -0.139  0.212
 O          0.011 -0.005  0.001    0.016 -0.010 -0.007   -0.001  0.001 -0.011
 O         -0.000  0.000 -0.000    0.000  0.000 -0.000    0.000  0.000 -0.000
 O         -0.000  0.000 -0.000   -0.000  0.000 -0.000   -0.000  0.000 -0.000
 H          0.003  0.000  0.000    0.007  0.002  0.002    0.003  0.001  0.001
 TransDip   0.071 -0.017 -0.322    0.028 -0.062  0.206    0.188 -0.046  0.507

 Mode:                37                     38                     39
 Frequency:      1433.49                1454.13                1458.12
 Force Cnst:      4.0479                 1.3214                 1.5330
 Red. Mass:       3.3434                 1.0607                 1.2238
 IR Active:          YES                    YES                    YES
 IR Intens:      195.291                 27.809                 17.508
 Raman Active:       YES                    YES                    YES
               X      Y      Z        X      Y      Z        X      Y      Z
 C         -0.076  0.049 -0.133   -0.008 -0.019  0.008   -0.063 -0.074 -0.009
 C          0.169 -0.077  0.254    0.001  0.004 -0.001    0.035 -0.003  0.045
 O         -0.102 -0.089 -0.057   -0.000 -0.001  0.000   -0.019 -0.018 -0.009
 O          0.009  0.143 -0.091   -0.000 -0.002  0.001    0.001  0.018 -0.012
 C          0.039  0.021  0.030    0.002 -0.001  0.002    0.050  0.033  0.029
 H         -0.131 -0.089  0.481    0.104  0.060 -0.114    0.449  0.252 -0.378
 H          0.309 -0.388  0.131   -0.043  0.155 -0.000   -0.079  0.621  0.060
 O          0.002 -0.000  0.055    0.002 -0.001 -0.011   -0.003 -0.002  0.007
 H         -0.217 -0.074 -0.102    0.006  0.004 -0.010   -0.239 -0.099  0.017
 H         -0.208 -0.124 -0.204    0.011  0.015  0.010   -0.081 -0.215 -0.114
 C         -0.009 -0.001 -0.087    0.013 -0.007  0.035   -0.004  0.001 -0.022
 C          0.019 -0.019  0.057   -0.028  0.012  0.033    0.008 -0.005 -0.001
 H          0.019 -0.025 -0.259    0.542 -0.024 -0.370   -0.126  0.003  0.058
 H         -0.051  0.206 -0.063   -0.208  0.360 -0.184    0.054 -0.062  0.041
 H         -0.005 -0.014 -0.083    0.119 -0.536 -0.049   -0.028  0.127  0.010
 O          0.002 -0.000  0.009   -0.020  0.010 -0.002    0.005 -0.002  0.002
 O          0.000 -0.000  0.000    0.000 -0.000 -0.000    0.000  0.000 -0.000
 O          0.000  0.000  0.000   -0.000  0.000 -0.000    0.000 -0.000  0.000
 H         -0.000  0.000  0.000    0.003  0.004  0.004   -0.001 -0.001 -0.001
 TransDip   0.286 -0.156  0.307    0.165 -0.035 -0.007    0.079  0.094  0.053

 Mode:                40                     41                     42
 Frequency:      1461.09                1485.27                1595.35
 Force Cnst:      1.3289                 1.4624                15.8695
 Red. Mass:       1.0565                 1.1251                10.5828
 IR Active:          YES                    YES                    YES
 IR Intens:       18.067                 30.115               1281.091
 Raman Active:       YES                    YES                    YES
               X      Y      Z        X      Y      Z        X      Y      Z
 C          0.002 -0.001  0.004   -0.010 -0.014  0.002   -0.046 -0.045 -0.022
 C         -0.002  0.001 -0.003    0.016  0.004  0.017    0.352  0.698 -0.081
 O          0.001  0.001  0.001   -0.010 -0.009 -0.006   -0.189 -0.210 -0.074
 O         -0.000 -0.002  0.001   -0.000  0.005 -0.004   -0.059 -0.277  0.130
 C         -0.003 -0.005 -0.001   -0.016 -0.069  0.036   -0.000  0.018 -0.019
 H          0.002  0.002 -0.013    0.108  0.063 -0.087    0.079 -0.031  0.321
 H         -0.009  0.009 -0.004   -0.020  0.147  0.012    0.191 -0.142  0.151
 O          0.002  0.002 -0.005   -0.002 -0.004  0.029    0.000 -0.003  0.003
 H          0.037  0.019 -0.019    0.357  0.232 -0.514   -0.028  0.004  0.044
 H          0.001  0.047  0.008   -0.217  0.664 -0.070    0.031 -0.040 -0.010
 C         -0.017 -0.021  0.017   -0.011  0.006 -0.037    0.004 -0.002  0.001
 C         -0.037 -0.035 -0.024    0.010 -0.002  0.012   -0.001  0.001 -0.001
 H         -0.067 -0.029 -0.345   -0.037 -0.001  0.010   -0.000  0.000 -0.001
 H          0.544  0.441 -0.021   -0.025 -0.028  0.012    0.002  0.000  0.000
 H          0.013  0.233  0.567   -0.009  0.025 -0.048   -0.000  0.000  0.001
 O          0.007 -0.000 -0.002    0.010 -0.005  0.001   -0.002  0.001  0.000
 O         -0.000  0.000 -0.000    0.000  0.000  0.000   -0.000 -0.000  0.000
 O         -0.000 -0.000  0.000    0.000 -0.000  0.000    0.000 -0.000  0.000
 H          0.006 -0.002 -0.002   -0.001 -0.000 -0.000    0.000 -0.000  0.000
 TransDip   0.027  0.125  0.047    0.035  0.135 -0.107    0.543  1.006 -0.086

 Mode:                43                     44                     45
 Frequency:      1764.40                3071.03                3077.67
 Force Cnst:     19.6786                 5.8969                 5.7899
 Red. Mass:      10.7288                 1.0612                 1.0375
 IR Active:          YES                    YES                    YES
 IR Intens:      573.592                 20.858                  0.775
 Raman Active:       YES                    YES                    YES
               X      Y      Z        X      Y      Z        X      Y      Z
 C         -0.007  0.006 -0.008   -0.008 -0.061  0.033    0.000  0.002 -0.001
 C          0.002 -0.005  0.008   -0.001 -0.001 -0.001    0.000  0.000  0.000
 O         -0.002 -0.001 -0.002    0.000  0.000  0.000   -0.000 -0.000  0.000
 O         -0.000  0.003 -0.003    0.000  0.000  0.000   -0.000 -0.000  0.000
 C          0.034 -0.017  0.020    0.002  0.004 -0.000   -0.000  0.000  0.000
 H          0.011  0.010  0.023   -0.329  0.657  0.123    0.010 -0.019 -0.004
 H         -0.000 -0.021 -0.015    0.421  0.058 -0.506   -0.012 -0.002  0.014
 O         -0.044  0.021 -0.004   -0.000 -0.000 -0.001    0.000  0.000  0.000
 H          0.012 -0.018 -0.129    0.016 -0.034 -0.008    0.000 -0.001 -0.000
 H         -0.129  0.115 -0.111   -0.020 -0.001  0.021   -0.001 -0.000  0.001
 C          0.664 -0.357 -0.033   -0.001  0.000  0.000   -0.001  0.000 -0.002
 C         -0.072  0.036 -0.042    0.001 -0.001  0.001    0.030 -0.032  0.027
 H         -0.134  0.037  0.027    0.001  0.020 -0.000    0.034  0.701 -0.012
 H          0.221 -0.145  0.098    0.004 -0.005 -0.011    0.137 -0.168 -0.396
 H         -0.102  0.158 -0.037   -0.015 -0.005  0.003   -0.516 -0.153  0.106
 O         -0.411  0.220  0.059    0.000  0.000  0.000   -0.000  0.000  0.000
 O         -0.000  0.000 -0.000   -0.000 -0.000 -0.000   -0.000 -0.000  0.000
 O          0.000  0.000  0.000   -0.000 -0.000 -0.000   -0.000  0.000 -0.000
 H         -0.002 -0.001 -0.002    0.000  0.000 -0.000    0.001 -0.001  0.001
 TransDip   0.633 -0.365 -0.234   -0.028 -0.141  0.029    0.023 -0.008  0.015

 Mode:                46                     47                     48
 Frequency:      3113.37                3116.33                3151.59
 Force Cnst:      6.2464                 6.1022                 6.4355
 Red. Mass:       1.0938                 1.0665                 1.0997
 IR Active:          YES                    YES                    YES
 IR Intens:       13.251                 37.038                  4.697
 Raman Active:       YES                    YES                    YES
               X      Y      Z        X      Y      Z        X      Y      Z
 C          0.055 -0.037 -0.048   -0.027  0.016  0.025    0.000 -0.000 -0.000
 C          0.000 -0.001 -0.000   -0.000 -0.001  0.001    0.000 -0.000  0.000
 O         -0.000  0.000  0.000   -0.000  0.000 -0.000   -0.000 -0.000 -0.000
 O          0.000  0.000 -0.000    0.000  0.001  0.000    0.000  0.000 -0.000
 C         -0.018 -0.019  0.022   -0.013 -0.054  0.025    0.000  0.000 -0.000
 H         -0.255  0.530  0.083    0.109 -0.226 -0.035   -0.001  0.001  0.000
 H         -0.401 -0.075  0.495    0.222  0.042 -0.272   -0.001 -0.000  0.001
 O          0.000  0.000  0.001    0.001 -0.000  0.001    0.000  0.000 -0.000
 H         -0.086  0.181  0.045   -0.279  0.590  0.136    0.000 -0.001 -0.000
 H          0.287  0.034 -0.319    0.403  0.045 -0.443   -0.001 -0.000  0.001
 C          0.001 -0.000 -0.001    0.001 -0.001 -0.002    0.000 -0.001  0.001
 C         -0.000  0.000  0.000   -0.000 -0.000  0.001   -0.052 -0.075 -0.004
 H         -0.000  0.001  0.000    0.000  0.002  0.000    0.018  0.672 -0.014
 H          0.001 -0.001 -0.003    0.002 -0.002 -0.003   -0.070  0.065  0.187
 H         -0.000  0.000 -0.000    0.002  0.001 -0.001    0.668  0.176 -0.135
 O         -0.000  0.000 -0.000   -0.000  0.000 -0.000   -0.000 -0.000  0.000
 O          0.000  0.000 -0.000    0.000 -0.000 -0.000   -0.000  0.000  0.000
 O          0.000  0.000  0.000    0.000  0.000  0.000    0.000 -0.000  0.000
 H         -0.000  0.000  0.000   -0.000 -0.000  0.000   -0.000  0.001 -0.001
 TransDip   0.046 -0.107  0.005   -0.086 -0.094  0.147   -0.053 -0.042 -0.018

 Mode:                49                     50                     51
 Frequency:      3174.25                3187.51                3823.68
 Force Cnst:      6.5898                 6.6165                 9.2032
 Red. Mass:       1.1100                 1.1053                 1.0684
 IR Active:          YES                    YES                    YES
 IR Intens:       20.516                  8.719                 32.770
 Raman Active:       YES                    YES                    YES
               X      Y      Z        X      Y      Z        X      Y      Z
 C          0.011 -0.007 -0.009    0.000 -0.000 -0.000   -0.000 -0.000  0.000
 C         -0.000 -0.000  0.000    0.000 -0.000  0.000    0.000 -0.000  0.000
 O          0.000  0.000 -0.000   -0.000 -0.000 -0.000    0.000 -0.000 -0.000
 O         -0.000  0.000  0.000   -0.000  0.000 -0.000    0.000  0.000  0.000
 C          0.062 -0.048 -0.054    0.000 -0.001  0.000   -0.000  0.000 -0.000
 H         -0.047  0.103  0.018   -0.000  0.001  0.000   -0.000  0.000  0.000
 H         -0.076 -0.015  0.089   -0.001 -0.000  0.001    0.000  0.000 -0.000
 O         -0.000  0.000  0.000   -0.000  0.000  0.000    0.000  0.000 -0.000
 H         -0.287  0.640  0.138   -0.004  0.008  0.001   -0.000 -0.000 -0.000
 H         -0.452 -0.064  0.494   -0.001 -0.000  0.001   -0.000 -0.000  0.000
 C          0.001 -0.000  0.000    0.002 -0.001 -0.001    0.000 -0.000  0.000
 C         -0.000  0.000  0.001    0.054 -0.032 -0.070    0.000 -0.000 -0.000
 H         -0.000 -0.002  0.000    0.018  0.197 -0.014   -0.001 -0.000  0.000
 H          0.002 -0.002 -0.006   -0.256  0.316  0.767   -0.000 -0.000  0.000
 H          0.002  0.001 -0.001   -0.420 -0.125  0.078    0.001  0.002 -0.001
 O         -0.000  0.000 -0.000   -0.001  0.000  0.000   -0.000  0.000 -0.000
 O         -0.000 -0.000 -0.000    0.000 -0.000 -0.000    0.000 -0.001  0.000
 O          0.000  0.000 -0.000   -0.000  0.000 -0.000   -0.003  0.040 -0.049
 H         -0.000  0.000 -0.000    0.000 -0.000  0.001    0.047 -0.631  0.771
 TransDip   0.094 -0.076 -0.080    0.041 -0.023 -0.082    0.021 -0.127  0.130

 STANDARD THERMODYNAMIC QUANTITIES AT   298.15 K  AND     1.00 ATM

   This Molecule has  1 Imaginary Frequencies
   Zero point vibrational energy:       85.153 kcal/mol

   Atom    1 Element C  Has Mass   12.00000
   Atom    2 Element C  Has Mass   12.00000
   Atom    3 Element O  Has Mass   15.99491
   Atom    4 Element O  Has Mass   15.99491
   Atom    5 Element C  Has Mass   12.00000
   Atom    6 Element H  Has Mass    1.00783
   Atom    7 Element H  Has Mass    1.00783
   Atom    8 Element O  Has Mass   15.99491
   Atom    9 Element H  Has Mass    1.00783
   Atom   10 Element H  Has Mass    1.00783
   Atom   11 Element C  Has Mass   12.00000
   Atom   12 Element C  Has Mass   12.00000
   Atom   13 Element H  Has Mass    1.00783
   Atom   14 Element H  Has Mass    1.00783
   Atom   15 Element H  Has Mass    1.00783
   Atom   16 Element O  Has Mass   15.99491
   Atom   17 Element O  Has Mass   15.99491
   Atom   18 Element O  Has Mass   15.99491
   Atom   19 Element H  Has Mass    1.00783
   Molecular Mass:   164.032100 amu
   Principal axes and moments of inertia in amu*Bohr^2:
                             1           2           3
    Eigenvalues --     1230.66997  3990.26433  4733.37760
          X               0.67141    -0.27882     0.68664
          Y               0.38291    -0.66275    -0.64354
          Z               0.63450     0.69500    -0.33821
   Rotational Symmetry Number is   1
   The Molecule is an Asymmetric Top
   Translational Enthalpy:        0.889 kcal/mol
   Rotational Enthalpy:           0.889 kcal/mol
   Vibrational Enthalpy:         91.886 kcal/mol
   gas constant (RT):             0.592 kcal/mol
   Translational Entropy:        41.193  cal/mol.K
   Rotational Entropy:           31.519  cal/mol.K
   Vibrational Entropy:          51.038  cal/mol.K

   Total Enthalpy:               94.256 kcal/mol
   Total Entropy:               123.750  cal/mol.K
Archival summary:
1\1\c6-85\FREQ\ProcedureUnspecified\BasisUnspecified\658(2-,1)\lmgong\SatMar2101:09:272020SatMar2101:09:272020\0\\#,FREQ,ProcedureUnspecified,BasisUnspecified,\\-2,1\O\C,1,1.33603\O,2,1.21334,1,123.56\C,1,1.44972,2,117.443,3,-0.135323,0\H,4,1.09005,1,108.995,2,39.2934,0\H,4,1.09022,1,104.475,2,155.835,0\C,2,1.50235,1,111.612,3,179.331,0\H,7,1.08904,2,109.854,1,169.015,0\H,7,1.09194,2,110.329,1,46.9122,0\H,7,1.09403,2,108.741,1,-71.1869,0\C,4,1.51681,1,110.66,2,-84.1715,0\H,11,1.09502,4,110.075,1,61.4573,0\H,11,1.09514,4,109.88,1,-55.9473,0\C,11,1.53747,4,113.71,1,-177.411,0\O,14,1.25682,11,117.865,4,-4.40672,0\O,14,1.25817,11,116.14,4,175.833,0\H,9,2.52291,7,135.531,2,34.1026,0\O,17,0.963837,9,142.919,7,-41.4937,0\O,18,1.4719,17,102.447,9,68.6283,0\\\@

 Total job time:  46976.02s(wall), 645826.50s(cpu) 
 Sat Mar 21 01:09:27 2020

        *************************************************************
        *                                                           *
        *  Thank you very much for using Q-Chem.  Have a nice day.  *
        *                                                           *
        *************************************************************


