
Running Job 1 of 1 qc-freq2.in
qchem qc-freq2.in_32371.0 /scratch/lmgong/1862648/qc-freq2.d/ 1
/home/leeping/opt/qchem/5.0.2-openmp/exe/qcprog.exe_s qc-freq2.in_32371.0 /scratch/lmgong/1862648/qc-freq2.d/
Check license passed

                  Welcome to Q-Chem
     A Quantum Leap Into The Future Of Chemistry


 Q-Chem 5.0, Q-Chem, Inc., Pleasanton, CA (2017)

 Yihan Shao,  Zhengting Gan,  E. Epifanovsky,  A. T. B. Gilbert,  M. Wormit,  
 J. Kussmann,  A. W. Lange,  A. Behn,  Jia Deng,  Xintian Feng,  D. Ghosh,  
 M. Goldey,  P. R. Horn,  L. D. Jacobson,  I. Kaliman,  T. Kus,  A. Landau,  
 Jie Liu,  E. I. Proynov,  R. M. Richard,  R. P. Steele,  E. J. Sundstrom,  
 H. L. Woodcock III,  P. M. Zimmerman,  D. Zuev,  B. Albrecht,  E. Alguire,  
 S. A. Baeppler,  D. Barton,  Z. Benda,  Y. A. Bernard,  E. J. Berquist,  
 K. B. Bravaya,  H. Burton,  D. Casanova,  Chun-Min Chang,  Yunqing Chen,  
 A. Chien,  K. D. Closser,  M. P. Coons,  S. Dasgupta,  A. L. Dempwolff,  
 M. Diedenhofen,  Hainam Do,  R. G. Edgar,  Po-Tung Fang,  S. Fatehi,  
 Qingguo Feng,  J. Fosso-Tande,  Qinghui Ge,  A. Ghysels,  G. Gidofalvi,  
 J. Gomes,  J. Gonthier,  A. Gunina,  M. W. D. Hanson-Heine,  
 P. H. P. Harbach,  A. W. Hauser,  J. E. Herr,  E. G. Hohenstein,  
 Z. C. Holden,  Kerwin Hui,  T.-C. Jagau,  Hyunjun Ji,  B. Kaduk,  
 K. Khistyaev,  Jaehoon Kim,  P. Klunzinger,  K. Koh,  D. Kosenkov,  
 L. Koulias,  T. Kowalczyk,  C. M. Krauter,  A. Kunitsa,  Ka Un Lao,  
 A. Laurent,  K. V. Lawler,  Joonho Lee,  D. Lefrancois,  S. Lehtola,  
 D. S. Levine,  Yi-Pei Li,  You-Sheng Lin,  Fenglai Liu,  E. Livshits,  
 A. Luenser,  P. Manohar,  E. Mansoor,  S. F. Manzer,  Shan-Ping Mao,  
 Yuezhi Mao,  N. Mardirossian,  A. V. Marenich,  T. Markovich,  
 L. A. Martinez-Martinez,  S. A. Maurer,  N. J. Mayhall,  S. C. McKenzie,  
 J.-M. Mewes,  A. F. Morrison,  J. W. Mullinax,  K. Nanda,  
 T. S. Nguyen-Beck,  R. Olivares-Amaya,  J. A. Parkhill,  T. M. Perrine,  
 F. Plasser,  S. Prager,  A. Prociuk,  E. Ramos,  D. R. Rehn,  F. Rob,  
 M. Schneider,  N. Sergueev,  S. M. Sharada,  S. Sharma,  D. W. Small,  
 T. Stauch,  T. Stein,  Yu-Chuan Su,  A. J. W. Thom,  A. Tkatchenko,  
 T. Tsuchimochi,  L. Vogt,  O. Vydrov,  M. A. Watson,  J. Wenzel,  
 M. de Wergifosse,  T. A. Wesolowski,  A. White,  J. Witte,  A. Yamada,  
 Jun Yang,  K. Yao,  S. Yeganeh,  S. R. Yost,  Zhi-Qiang You,  A. Zech,  
 Igor Ying Zhang,  Xing Zhang,  Yan Zhao,  Ying Zhu,  B. R. Brooks,  
 G. K. L. Chan,  C. J. Cramer,  M. S. Gordon,  W. J. Hehre,  A. Klamt,  
 M. W. Schmidt,  C. D. Sherrill,  D. G. Truhlar,  A. Aspuru-Guzik,  R. Baer,  
 A. T. Bell,  N. A. Besley,  Jeng-Da Chai,  R. A. DiStasio Jr.,  A. Dreuw,  
 B. D. Dunietz,  T. R. Furlani,  Chao-Ping Hsu,  Yousung Jung,  Jing Kong,  
 D. S. Lambrecht,  WanZhen Liang,  C. Ochsenfeld,  V. A. Rassolov,  
 L. V. Slipchenko,  J. E. Subotnik,  T. Van Voorhis,  J. M. Herbert,  
 A. I. Krylov,  P. M. W. Gill,  M. Head-Gordon

 Contributors to earlier versions of Q-Chem not listed above: 
 R. D. Adamson,  B. Austin,  J. Baker,  G. J. O. Beran,  K. Brandhorst,  
 S. T. Brown,  E. F. C. Byrd,  A. K. Chakraborty,  C.-L. Cheng,  
 Siu Hung Chien,  D. M. Chipman,  D. L. Crittenden,  H. Dachsel,  
 R. J. Doerksen,  A. D. Dutoi,  L. Fusti-Molnar,  W. A. Goddard III,  
 A. Golubeva-Zadorozhnaya,  S. R. Gwaltney,  G. Hawkins,  A. Heyden,  
 S. Hirata,  G. Kedziora,  F. J. Keil,  C. Kelley,  Jihan Kim,  R. A. King,  
 R. Z. Khaliullin,  P. P. Korambath,  W. Kurlancheek,  A. M. Lee,  M. S. Lee,  
 S. V. Levchenko,  Ching Yeh Lin,  D. Liotard,  R. C. Lochan,  I. Lotan,  
 P. E. Maslen,  N. Nair,  D. P. O'Neill,  D. Neuhauser,  E. Neuscamman,  
 C. M. Oana,  R. Olson,  B. Peters,  R. Peverati,  P. A. Pieniazek,  
 Y. M. Rhee,  J. Ritchie,  M. A. Rohrdanz,  E. Rosta,  N. J. Russ,  
 H. F. Schaefer III,  N. E. Schultz,  N. Shenvi,  A. C. Simmonett,  A. Sodt,  
 D. Stuck,  K. S. Thanthiriwatte,  V. Vanovschi,  Tao Wang,  A. Warshel,  
 C. F. Williams,  Q. Wu,  X. Xu,  W. Zhang

 Please cite Q-Chem as follows:
 Y. Shao et al., Mol. Phys. 113, 184-215 (2015)
 DOI: 10.1080/00268976.2014.952696

 Q-Chem 5.0.2 for Intel X86 EM64T Linux

 Parts of Q-Chem use Armadillo 5.200.1 (Boston Tea Smuggler).
 http://arma.sourceforge.net/

 Q-Chem begins on Fri Mar 20 12:06:31 2020  

Host: 
0

     Scratch files written to /scratch/lmgong/1862648/qc-freq2.d//
 Dec517 15110_ 26548  26544 5633   
Processing $rem in /home/leeping/opt/qchem/5.0.2-openmp/config/preferences.
 MEM_STATIC 2000
 MEM_TOTAL  8000
 SYMMETRY   OFF
 SYM_IGNORE TRUE 
Symmetry turned off for PCM/SM12/SMD calculation

Checking the input file for inconsistencies... 	...done.

--------------------------------------------------------------
User input:
--------------------------------------------------------------
$molecule
-2 1
C       -1.1876411392   -0.7439408563   -1.6308375602
C       -1.9899356487   -0.2109067287   -2.8277903701
O       -2.4382076381   -1.0783204091   -3.6250445535
O       -2.1427276614    1.0324398838   -2.9418914211
C       -0.7564939051    0.3092384577   -0.6274479388
H       -0.3072685940   -1.2637608803   -2.0280573170
H       -1.7948228811   -1.5076592262   -1.1314773105
O       -0.0411185883   -0.3425494229    0.4120904044
H       -1.6308662868    0.8289561163   -0.2209420976
H       -0.1194478138    1.0599278185   -1.1097410149
C        0.4636737467    0.5231772144    1.4462677261
C        1.1325120936   -0.4174368219    2.4516757271
H        0.3562800705   -1.0124486542    2.9404631198
H        1.6473608391    0.1793418631    3.2093407441
H        1.8454703341   -1.0966106947    1.9774832317
O       -0.3726493992    1.3878832512    1.9254128340
O        1.5480397937    1.3641905267    0.8026141078
O        2.5455190658    0.5682068441    0.1522841637
H        3.2237562713    0.4785973476    0.8373433137
$end

$rem
jobtype               freq
method                wb97x-v
basis                 def2-tzvpd
symmetry              off
sym_ignore            true
incdft                false
incfock               0
!scf_algorithm        diis_gdm
scf_convergence       8
thresh                14
!purecart             112
max_scf_cycles        1000
geom_opt_max_cycles   500
geom_opt_dmax         100
geom_opt_tol_gradient 10
solvent_method        pcm
ideriv                1
rpath_tol_displacement 1000
rpath_max_cycles      100
rpath_direction       1
!scf_guess            read
scf_guess             read
$end

$pcm
theory              cosmo
method              iswig
Radii               bondi
vdwScale            1.20
hpoints             110
heavypoints         110
$end

$solvent
dielectric 78.400000
$end

--------------------------------------------------------------
 ----------------------------------------------------------------
             Standard Nuclear Orientation (Angstroms)
    I     Atom           X                Y                Z
 ----------------------------------------------------------------
    1      C      -1.1876411392    -0.7439408563    -1.6308375602
    2      C      -1.9899356487    -0.2109067287    -2.8277903701
    3      O      -2.4382076381    -1.0783204091    -3.6250445535
    4      O      -2.1427276614     1.0324398838    -2.9418914211
    5      C      -0.7564939051     0.3092384577    -0.6274479388
    6      H      -0.3072685940    -1.2637608803    -2.0280573170
    7      H      -1.7948228811    -1.5076592262    -1.1314773105
    8      O      -0.0411185883    -0.3425494229     0.4120904044
    9      H      -1.6308662868     0.8289561163    -0.2209420976
   10      H      -0.1194478138     1.0599278185    -1.1097410149
   11      C       0.4636737467     0.5231772144     1.4462677261
   12      C       1.1325120936    -0.4174368219     2.4516757271
   13      H       0.3562800705    -1.0124486542     2.9404631198
   14      H       1.6473608391     0.1793418631     3.2093407441
   15      H       1.8454703341    -1.0966106947     1.9774832317
   16      O      -0.3726493992     1.3878832512     1.9254128340
   17      O       1.5480397937     1.3641905267     0.8026141078
   18      O       2.5455190658     0.5682068441     0.1522841637
   19      H       3.2237562713     0.4785973476     0.8373433137
 ----------------------------------------------------------------
 Nuclear Repulsion Energy =   641.0020761860 hartrees
 There are       44 alpha and       44 beta electrons
 Requested basis set is def2-TZVPD
 There are 189 shells and 497 basis functions

 Total QAlloc Memory Limit   8000 MB
 Mega-Array Size      1956 MB
 MEM_STATIC part      2000 MB
 Discretize the solute cavity surface with Lebedev spheres
	Using 110 Lebedev grid points for each H atom
	Using 110 Lebedev grid points for other atoms
	Atomic van der Waals radii will be scaled by 1.20
 Remove points where switching function is < 1.0e-08
 Keep 1133 surface tesserae and discard 957 interior tesserae
 Molecular Surface Area = 202.509 Angst**2
 A cutoff of  1.0D-14 yielded  15973 shell pairs
 There are    110293 function pairs (    140447 Cartesian)
 
 -------------------------------------------------------
 OpenMP Integral Computing Module                       
 Release: version 1.0, May 2013, Q-Chem Inc. Pittsburgh 
 -------------------------------------------------------
 Integral Job Info:
 Integral job number is                      11
 Integral operator is                         1
 short-range coefficients              16700000
 long-range coefficients              100000000
 Omega coefficients                         300
 if combine SR and LR in K                    1
 Integral screening is                        0
 Integral computing path is                   2
 max size of driver memory is            800000
 size of driver memory is                776718
 size of scratch memory is              4473992
 max col of scratch BK array              10000
 max len of scratch array in speh3          662
 max len of scratch index in speh4           32
 max int batch size is                      520
 min int batch size is                       52
 fixed nKL is                                52
 max L of basis functions is                  3
 order of int derivative is                   0
 number of shells is                        189
 number of basis is                         563
 number of cartesian basis is               563
 number of contracted shell pairs         15973
 number of primitive shell pairs          32152
 maxK2 (contraction) of shell pair           36
 max number of K2 of shell pair               1
 max number of CS2 of shell pair           2643
 max number of PS2 of shell pair           3726
 mem total for path MDJ                  818596
 -------------------------------------------------------
 Smallest overlap matrix eigenvalue = 3.82E-06
 Guess MOs from SCF MO coefficient file
 Reading MOs from coefficient file
 Reading MOs from coefficient file
 Long-range K will be added via erf
 Coulomb attenuation parameter = 0.3 bohr**(-1)
 A restricted hybrid HF-DFT SCF calculation will be
 performed using Pulay DIIS extrapolation
 Polarizable Continuum solvation model will be applied
 Exchange:     0.1670 Hartree-Fock + 1.0000 wB97X-V + LR-HF
 Correlation:  1.0000 wB97X-V
 Using SG-2 standard quadrature grid
 Nonlocal Correlation:  VV10 with C = 0.0100 and b = 6.00
 Grid used for NLC:  SG-1 standard quadrature
 SCF converges when DIIS error is below 1.0E-08
Using Q-Chem read-in guess as SCF_GUESS READ specified.

 using 16 threads for integral computing
 -------------------------------------------------------
 OpenMP Integral computing Module                
 Release: version 1.0, May 2013, Q-Chem Inc. Pittsburgh 
 -------------------------------------------------------
 using 16 threads for integral computing
 -------------------------------------------------------
 OpenMP Integral computing Module                
 Release: version 1.0, May 2013, Q-Chem Inc. Pittsburgh 
 -------------------------------------------------------
 -------------------------------------------------------
 OpenMP BLAS3 based DFT computing Module                
 Release: version 1.0, May 2013, Q-Chem Inc. Pittsburgh 
 -------------------------------------------------------
 -------------------------------------------------------
 OpenMP BLAS3 based DFT computing Module                
 Release: version 1.0, May 2013, Q-Chem Inc. Pittsburgh 
 -------------------------------------------------------
 -------------------------------------------------------
 OpenMP BLAS3 based DFT computing Module                
 Release: version 1.0, May 2013, Q-Chem Inc. Pittsburgh 
 -------------------------------------------------------
 ---------------------------------------
  Cycle       Energy         DIIS Error
 ---------------------------------------
    1    -646.6459350542      4.04E-04
    2    -646.9495512157      4.47E-04
    3    -646.9577383545      2.02E-04
    4    -646.9590446342      1.49E-04
    5    -646.9598568742      1.13E-04
    6    -646.9602678591      9.07E-05
    7    -646.9605661668      7.03E-05
    8    -646.9607450621      5.47E-05
    9    -646.9608797346      3.90E-05
   10    -646.9609346469      3.03E-05
   11    -646.9609718532      2.26E-05
   12    -646.9609892013      1.79E-05
   13    -646.9610014974      1.36E-05
   14    -646.9610082167      1.05E-05
   15    -646.9610121311      8.20E-06
   16    -646.9610145990      6.32E-06
   17    -646.9610182287      4.43E-09 Convergence criterion met
 ---------------------------------------

************** Final PCM Free Energy Summary **************
 G_electrostatic  =      -0.31508544 hartree =    -197.71909889 kcal/mol
 G_cavitation     =       0.00000000 hartree =       0.00000000 kcal/mol
 G_dispersion     =       0.00000000 hartree =       0.00000000 kcal/mol
 G_repulsion      =       0.00000000 hartree =       0.00000000 kcal/mol
 --------------------------------------------------
 Non-electrostatic Free Energy =       0.00000000 hartree =       0.00000000 kcal/mol
 Total                         =      -0.31508544 hartree =    -197.71909889 kcal/mol
 --------------------------------------------------
 SCF Energy (H0 + V/2)                       =    -646.96101823 
 Solute Internal Energy (H0)                 =    -646.64593279 
 Total Free Energy (H0 + V/2 + non-elec)     =    -646.96101823 hartree
                                             = -405974.16630631 kcal/mol
***********************************************************

 SCF time:  CPU 5315.50 s  wall 379.25 s
 SCF   energy in the final basis set = -646.96101823
 Total energy in the final basis set = -646.96101823
 
 --------------------------------------------------------------
 
                    Orbital Energies (a.u.)
 --------------------------------------------------------------
 
 Alpha MOs
 -- Occupied --
-19.247 -19.234 -19.187 -19.140 -19.138 -19.110 -10.370 -10.341
-10.286 -10.246 -10.235  -1.230  -1.150  -1.143  -1.062  -1.049
 -0.974  -0.878  -0.832  -0.737  -0.665  -0.633  -0.600  -0.586
 -0.559  -0.556  -0.541  -0.522  -0.522  -0.504  -0.497  -0.476
 -0.467  -0.452  -0.438  -0.416  -0.394  -0.371  -0.357  -0.344
 -0.338  -0.331  -0.323  -0.314
 -- Virtual --
  0.060   0.072   0.075   0.083   0.098   0.100   0.104   0.112
  0.124   0.127   0.132   0.136   0.143   0.152   0.159   0.163
  0.170   0.174   0.179   0.182   0.187   0.190   0.198   0.211
  0.215   0.224   0.231   0.234   0.247   0.250   0.254   0.264
  0.269   0.274   0.281   0.282   0.288   0.293   0.301   0.307
  0.310   0.318   0.319   0.324   0.333   0.338   0.347   0.353
  0.361   0.363   0.366   0.367   0.375   0.381   0.385   0.387
  0.391   0.396   0.404   0.414   0.416   0.418   0.426   0.429
  0.438   0.440   0.441   0.449   0.453   0.456   0.468   0.471
  0.476   0.481   0.487   0.488   0.496   0.502   0.507   0.512
  0.518   0.522   0.528   0.530   0.537   0.547   0.551   0.557
  0.562   0.567   0.574   0.580   0.588   0.592   0.595   0.602
  0.609   0.617   0.623   0.624   0.631   0.642   0.650   0.659
  0.666   0.669   0.670   0.676   0.690   0.694   0.708   0.715
  0.718   0.730   0.735   0.739   0.758   0.763   0.765   0.770
  0.779   0.782   0.788   0.794   0.801   0.808   0.815   0.818
  0.820   0.831   0.836   0.840   0.844   0.851   0.855   0.865
  0.868   0.873   0.884   0.886   0.903   0.907   0.923   0.927
  0.932   0.934   0.941   0.946   0.965   0.983   0.986   1.005
  1.011   1.015   1.024   1.039   1.053   1.064   1.071   1.083
  1.096   1.119   1.124   1.128   1.157   1.162   1.173   1.176
  1.194   1.203   1.220   1.227   1.246   1.258   1.265   1.273
  1.300   1.308   1.311   1.324   1.336   1.349   1.369   1.376
  1.382   1.405   1.413   1.417   1.421   1.444   1.465   1.468
  1.480   1.499   1.515   1.521   1.552   1.591   1.600   1.620
  1.631   1.672   1.698   1.738   1.750   1.767   1.821   1.838
  1.857   1.889   1.913   1.935   1.942   1.943   1.949   1.963
  1.974   1.984   1.988   2.002   2.011   2.019   2.030   2.042
  2.047   2.064   2.072   2.100   2.100   2.127   2.156   2.176
  2.179   2.213   2.232   2.245   2.252   2.255   2.273   2.279
  2.308   2.321   2.346   2.348   2.357   2.380   2.391   2.409
  2.450   2.457   2.475   2.484   2.487   2.504   2.514   2.527
  2.572   2.576   2.613   2.629   2.646   2.675   2.691   2.706
  2.712   2.723   2.746   2.755   2.774   2.787   2.809   2.824
  2.856   2.872   2.896   2.917   2.941   2.948   2.966   2.990
  3.009   3.025   3.032   3.060   3.075   3.087   3.092   3.103
  3.119   3.157   3.182   3.218   3.234   3.244   3.255   3.267
  3.304   3.311   3.322   3.362   3.366   3.383   3.395   3.423
  3.449   3.461   3.470   3.484   3.486   3.504   3.519   3.537
  3.549   3.552   3.560   3.577   3.601   3.604   3.618   3.642
  3.657   3.667   3.684   3.696   3.698   3.714   3.723   3.743
  3.753   3.779   3.786   3.795   3.805   3.832   3.863   3.876
  3.902   3.935   3.972   4.006   4.054   4.060   4.080   4.106
  4.153   4.183   4.194   4.215   4.232   4.273   4.332   4.377
  4.434   4.533   4.602   4.627   4.632   4.638   4.692   4.723
  4.772   4.806   4.820   4.828   4.887   4.952   4.980   5.011
  5.068   5.109   5.143   5.201   5.222   5.308   5.324   5.361
  5.368   5.373   5.377   5.403   5.418   5.467   5.502   5.543
  5.576   5.584   5.643   5.678   5.713   5.718   5.729   5.778
  5.805   5.850   5.973   6.005   6.033   6.104   6.171   6.245
  6.258   6.282   6.313   6.334   6.343   6.414   6.460   6.516
  6.559   6.623   6.639   6.654   6.660   6.677   6.699   6.749
  6.756   6.776   6.803   6.815   6.876   6.947   6.958   6.970
  7.040   7.048   7.061   7.100   7.180   7.212   7.256   7.328
  7.338   7.365   7.403   7.410   7.412   7.488   7.533   7.681
  7.736   8.327  22.715  22.862  22.937  23.266  23.735  44.202
 44.263  44.434  44.493  44.672  44.735
 --------------------------------------------------------------
 
          Ground-State Mulliken Net Atomic Charges

     Atom                 Charge (a.u.)
  ----------------------------------------
      1 C                    -0.028297
      2 C                     0.038534
      3 O                    -0.711590
      4 O                    -0.692712
      5 C                    -0.272048
      6 H                     0.222440
      7 H                     0.237269
      8 O                    -0.290697
      9 H                     0.159240
     10 H                     0.166788
     11 C                     0.771413
     12 C                    -1.103842
     13 H                     0.235280
     14 H                     0.259908
     15 H                     0.237944
     16 O                    -0.866956
     17 O                    -0.282361
     18 O                    -0.420581
     19 H                     0.340268
  ----------------------------------------
  Sum of atomic charges =    -2.000000

 -----------------------------------------------------------------
                    Cartesian Multipole Moments
 -----------------------------------------------------------------
    Charge (ESU x 10^10)
                -9.6064
    Dipole Moment (Debye)
         X      12.2460      Y      -6.5013      Z      11.0742
       Tot      17.7446
    Quadrupole Moments (Debye-Ang)
        XX     -97.0580     XY      -1.4780     YY     -91.9582
        XZ     -35.2534     YZ     -12.7156     ZZ    -143.0678
    Octopole Moments (Debye-Ang^2)
       XXX     151.2389    XXY     -16.3401    XYY      36.5749
       YYY     -60.6719    XXZ     143.7155    XYZ      14.1394
       YYZ      34.9077    XZZ     186.9596    YZZ     -19.3203
       ZZZ     271.3918
    Hexadecapole Moments (Debye-Ang^3)
      XXXX   -1204.4276   XXXY     -91.8143   XXYY    -316.6476
      XYYY     -84.9363   YYYY    -456.6340   XXXZ    -740.7352
      XXYZ     -62.0961   XYYZ    -245.8592   YYYZ    -148.0611
      XXZZ    -878.3801   XYZZ     -62.5378   YYZZ    -517.8080
      XZZZ   -1075.4626   YZZZ    -235.6204   ZZZZ   -2752.5981
 -----------------------------------------------------------------
 Calculating analytic gradient of the SCF energy
 Gradient of SCF Energy
            1           2           3           4           5           6
    1   0.0227199  -0.0180068   0.0237082   0.0103023  -0.0334039  -0.0543188
    2  -0.0827112   0.0180196   0.0320965  -0.0565992   0.1229268   0.0226889
    3   0.0338510  -0.0372646   0.0411186   0.0111954  -0.0416067   0.0286939
            7           8           9          10          11          12
    1   0.0422964   0.0105837   0.0461020  -0.0418949  -0.0584236   0.0508630
    2   0.0379517   0.0165523  -0.0369369  -0.0580684   0.0109021  -0.0408992
    3  -0.0320114   0.0091983  -0.0243955   0.0296373  -0.0920835   0.1084722
           13          14          15          16          17          18
    1   0.0591250  -0.0326646  -0.0448910   0.0252577  -0.0210290   0.0454946
    2   0.0429843  -0.0492256   0.0435738  -0.0232404   0.0217499  -0.0192056
    3  -0.0353815  -0.0493117   0.0346248  -0.0023597   0.0341418   0.0151205
           19
    1  -0.0318202
    2  -0.0025593
    3  -0.0316392
 Max gradient component =       1.229E-01
 RMS gradient           =       4.352E-02
 Computing fast CPCM-ISWIG gradient
 Updating gradient with PCM contributions...
 -- total gradient after adding PCM contribution --
---------------------------------------------------
  Atom         X              Y              Z     
---------------------------------------------------
   1       0.000002       0.000004       0.000003
   2      -0.000000       0.000002       0.000000
   3       0.000001      -0.000001       0.000000
   4      -0.000004       0.000000      -0.000001
   5       0.000001       0.000011      -0.000001
   6       0.000000      -0.000003      -0.000002
   7       0.000001      -0.000003       0.000002
   8      -0.000002      -0.000012      -0.000009
   9       0.000001      -0.000003       0.000002
  10       0.000000       0.000004      -0.000003
  11      -0.000018       0.000009       0.000028
  12       0.000001      -0.000005      -0.000006
  13       0.000001      -0.000002      -0.000001
  14      -0.000001      -0.000001       0.000002
  15       0.000002       0.000002       0.000000
  16       0.000012      -0.000010      -0.000009
  17       0.000009       0.000002      -0.000008
  18      -0.000005       0.000001       0.000001
  19      -0.000001       0.000003       0.000001
---------------------------------------------------
 Number of fixed atoms: 0
 Gradient time:  CPU 1074.49 s  wall 78.14 s
 ######################################################
 ######################################################
 # Starting finite difference calculation for IDERIV  #
 Finite diff step size:  1.88973e-03 a.u.
 ----------------------------------------------------------------
             Standard Nuclear Orientation (Angstroms)
    I     Atom           X                Y                Z
 ----------------------------------------------------------------
    1      C      -1.1866411392    -0.7439408563    -1.6308375602
    2      C      -1.9899356487    -0.2109067287    -2.8277903701
    3      O      -2.4382076381    -1.0783204091    -3.6250445535
    4      O      -2.1427276614     1.0324398838    -2.9418914211
    5      C      -0.7564939051     0.3092384577    -0.6274479388
    6      H      -0.3072685940    -1.2637608803    -2.0280573170
    7      H      -1.7948228811    -1.5076592262    -1.1314773105
    8      O      -0.0411185883    -0.3425494229     0.4120904044
    9      H      -1.6308662868     0.8289561163    -0.2209420976
   10      H      -0.1194478138     1.0599278185    -1.1097410149
   11      C       0.4636737467     0.5231772144     1.4462677261
   12      C       1.1325120936    -0.4174368219     2.4516757271
   13      H       0.3562800705    -1.0124486542     2.9404631198
   14      H       1.6473608391     0.1793418631     3.2093407441
   15      H       1.8454703341    -1.0966106947     1.9774832317
   16      O      -0.3726493992     1.3878832512     1.9254128340
   17      O       1.5480397937     1.3641905267     0.8026141078
   18      O       2.5455190658     0.5682068441     0.1522841637
   19      H       3.2237562713     0.4785973476     0.8373433137
 ----------------------------------------------------------------
 Nuclear Repulsion Energy =   641.0028002650 hartrees
 There are       44 alpha and       44 beta electrons
 Discretize the solute cavity surface with Lebedev spheres
	Using 110 Lebedev grid points for each H atom
	Using 110 Lebedev grid points for other atoms
	Atomic van der Waals radii will be scaled by 1.20
 Remove points where switching function is < 1.0e-08
 Keep 1133 surface tesserae and discard 957 interior tesserae
 Molecular Surface Area = 202.505 Angst**2
 Requested basis set is def2-TZVPD
 There are 189 shells and 497 basis functions
 A cutoff of  1.0D-14 yielded  15973 shell pairs
 There are    110293 function pairs (    140447 Cartesian)
 Smallest overlap matrix eigenvalue = 3.82E-06
 Guess MOs from SCF MO coefficient file
 Reading MOs from coefficient file
 Reading MOs from coefficient file
 Long-range K will be added via erf
 Coulomb attenuation parameter = 0.3 bohr**(-1)
 A restricted hybrid HF-DFT SCF calculation will be
 performed using Pulay DIIS extrapolation
 Polarizable Continuum solvation model will be applied
 Exchange:     0.1670 Hartree-Fock + 1.0000 wB97X-V + LR-HF
 Correlation:  1.0000 wB97X-V
 Using SG-2 standard quadrature grid
 Nonlocal Correlation:  VV10 with C = 0.0100 and b = 6.00
 Grid used for NLC:  SG-1 standard quadrature
 SCF converges when DIIS error is below 1.0E-08
Using Q-Chem read-in guess as SCF_GUESS READ specified.

 using 16 threads for integral computing
 -------------------------------------------------------
 OpenMP Integral computing Module                
 Release: version 1.0, May 2013, Q-Chem Inc. Pittsburgh 
 -------------------------------------------------------
 using 16 threads for integral computing
 -------------------------------------------------------
 OpenMP Integral computing Module                
 Release: version 1.0, May 2013, Q-Chem Inc. Pittsburgh 
 -------------------------------------------------------
 -------------------------------------------------------
 OpenMP BLAS3 based DFT computing Module                
 Release: version 1.0, May 2013, Q-Chem Inc. Pittsburgh 
 -------------------------------------------------------
 -------------------------------------------------------
 OpenMP BLAS3 based DFT computing Module                
 Release: version 1.0, May 2013, Q-Chem Inc. Pittsburgh 
 -------------------------------------------------------
 -------------------------------------------------------
 OpenMP BLAS3 based DFT computing Module                
 Release: version 1.0, May 2013, Q-Chem Inc. Pittsburgh 
 -------------------------------------------------------
 ---------------------------------------
  Cycle       Energy         DIIS Error
 ---------------------------------------
    1    -646.6459639472      4.04E-04
    2    -646.9495489762      4.47E-04
    3    -646.9577386503      2.02E-04
    4    -646.9590459156      1.49E-04
    5    -646.9598620730      1.13E-04
    6    -646.9602865983      8.94E-05
    7    -646.9606281087      6.53E-05
    8    -646.9608393814      4.41E-05
    9    -646.9609738505      2.18E-05
   10    -646.9610094428      9.31E-06
   11    -646.9610167187      2.48E-06
   12    -646.9610172354      6.02E-07
   13    -646.9610172666      1.03E-07
   14    -646.9610172675      1.39E-08
   15    -646.9610172675      3.02E-09 Convergence criterion met
 ---------------------------------------

************** Final PCM Free Energy Summary **************
 G_electrostatic  =      -0.31508175 hartree =    -197.71678394 kcal/mol
 G_cavitation     =       0.00000000 hartree =       0.00000000 kcal/mol
 G_dispersion     =       0.00000000 hartree =       0.00000000 kcal/mol
 G_repulsion      =       0.00000000 hartree =       0.00000000 kcal/mol
 --------------------------------------------------
 Non-electrostatic Free Energy =       0.00000000 hartree =       0.00000000 kcal/mol
 Total                         =      -0.31508175 hartree =    -197.71678394 kcal/mol
 --------------------------------------------------
 SCF Energy (H0 + V/2)                       =    -646.96101727 
 Solute Internal Energy (H0)                 =    -646.64593551 
 Total Free Energy (H0 + V/2 + non-elec)     =    -646.96101727 hartree
                                             = -405974.16570314 kcal/mol
***********************************************************

 SCF time:  CPU 4682.70 s  wall 333.99 s
 SCF   energy in the final basis set = -646.96101727
 Total energy in the final basis set = -646.96101727
 
 --------------------------------------------------------------
 
                    Orbital Energies (a.u.)
 --------------------------------------------------------------
 
 Alpha MOs
 -- Occupied --
-19.247 -19.234 -19.187 -19.140 -19.138 -19.110 -10.370 -10.341
-10.286 -10.246 -10.235  -1.230  -1.150  -1.143  -1.062  -1.049
 -0.974  -0.878  -0.832  -0.737  -0.665  -0.633  -0.600  -0.586
 -0.559  -0.556  -0.541  -0.522  -0.522  -0.504  -0.497  -0.476
 -0.467  -0.452  -0.438  -0.416  -0.394  -0.371  -0.356  -0.344
 -0.338  -0.331  -0.323  -0.314
 -- Virtual --
  0.060   0.072   0.075   0.083   0.098   0.100   0.104   0.112
  0.124   0.127   0.132   0.136   0.143   0.152   0.159   0.163
  0.170   0.174   0.179   0.182   0.187   0.190   0.198   0.211
  0.215   0.224   0.231   0.234   0.247   0.250   0.254   0.264
  0.269   0.274   0.280   0.282   0.288   0.293   0.301   0.307
  0.310   0.318   0.319   0.324   0.333   0.338   0.347   0.353
  0.361   0.363   0.366   0.367   0.375   0.381   0.385   0.387
  0.391   0.396   0.404   0.414   0.416   0.418   0.426   0.430
  0.438   0.440   0.441   0.449   0.453   0.456   0.468   0.471
  0.476   0.481   0.487   0.488   0.496   0.502   0.507   0.512
  0.518   0.522   0.528   0.530   0.537   0.547   0.551   0.557
  0.562   0.567   0.574   0.580   0.588   0.592   0.595   0.602
  0.609   0.617   0.623   0.624   0.631   0.642   0.650   0.659
  0.666   0.669   0.670   0.676   0.690   0.694   0.708   0.715
  0.718   0.730   0.735   0.739   0.758   0.763   0.765   0.770
  0.779   0.782   0.788   0.794   0.801   0.808   0.815   0.818
  0.820   0.831   0.836   0.840   0.844   0.851   0.855   0.865
  0.868   0.873   0.884   0.886   0.903   0.907   0.923   0.927
  0.932   0.934   0.941   0.946   0.965   0.983   0.986   1.005
  1.011   1.015   1.024   1.039   1.053   1.064   1.071   1.083
  1.096   1.119   1.124   1.128   1.157   1.162   1.173   1.176
  1.194   1.203   1.220   1.227   1.246   1.258   1.265   1.273
  1.300   1.308   1.311   1.324   1.336   1.349   1.369   1.376
  1.382   1.405   1.413   1.417   1.421   1.444   1.465   1.468
  1.481   1.499   1.515   1.521   1.552   1.591   1.600   1.620
  1.631   1.672   1.698   1.738   1.750   1.767   1.821   1.838
  1.857   1.889   1.913   1.935   1.942   1.943   1.949   1.963
  1.974   1.984   1.988   2.002   2.011   2.019   2.030   2.042
  2.047   2.064   2.072   2.100   2.100   2.127   2.156   2.176
  2.178   2.213   2.232   2.245   2.252   2.255   2.273   2.279
  2.308   2.321   2.346   2.348   2.357   2.380   2.391   2.409
  2.450   2.457   2.475   2.484   2.487   2.504   2.514   2.527
  2.572   2.576   2.613   2.629   2.646   2.675   2.691   2.706
  2.712   2.723   2.746   2.755   2.774   2.787   2.809   2.824
  2.856   2.872   2.896   2.917   2.941   2.948   2.966   2.990
  3.009   3.025   3.032   3.060   3.075   3.087   3.092   3.103
  3.118   3.157   3.182   3.218   3.234   3.244   3.255   3.267
  3.304   3.311   3.322   3.362   3.366   3.383   3.395   3.423
  3.449   3.461   3.470   3.484   3.486   3.504   3.519   3.537
  3.549   3.552   3.560   3.577   3.601   3.604   3.618   3.643
  3.657   3.667   3.684   3.696   3.698   3.715   3.723   3.743
  3.753   3.779   3.786   3.795   3.804   3.832   3.863   3.876
  3.902   3.935   3.972   4.006   4.054   4.060   4.079   4.106
  4.153   4.183   4.194   4.215   4.232   4.273   4.331   4.377
  4.434   4.533   4.602   4.627   4.632   4.638   4.693   4.723
  4.772   4.806   4.821   4.828   4.887   4.952   4.980   5.011
  5.068   5.109   5.143   5.201   5.222   5.308   5.324   5.361
  5.368   5.373   5.377   5.403   5.418   5.467   5.502   5.543
  5.576   5.584   5.643   5.678   5.713   5.718   5.729   5.778
  5.805   5.850   5.973   6.005   6.033   6.104   6.171   6.245
  6.258   6.282   6.313   6.333   6.343   6.414   6.460   6.516
  6.559   6.623   6.639   6.654   6.660   6.677   6.699   6.749
  6.756   6.776   6.803   6.815   6.876   6.947   6.958   6.970
  7.040   7.048   7.061   7.100   7.180   7.212   7.256   7.328
  7.338   7.365   7.403   7.410   7.412   7.488   7.533   7.681
  7.736   8.327  22.715  22.862  22.937  23.266  23.734  44.202
 44.263  44.434  44.493  44.672  44.735
 --------------------------------------------------------------
 
          Ground-State Mulliken Net Atomic Charges

     Atom                 Charge (a.u.)
  ----------------------------------------
      1 C                    -0.028780
      2 C                     0.038798
      3 O                    -0.711567
      4 O                    -0.692677
      5 C                    -0.271570
      6 H                     0.223208
      7 H                     0.236530
      8 O                    -0.290697
      9 H                     0.159239
     10 H                     0.166568
     11 C                     0.771290
     12 C                    -1.103812
     13 H                     0.235274
     14 H                     0.259908
     15 H                     0.237934
     16 O                    -0.866963
     17 O                    -0.282373
     18 O                    -0.420575
     19 H                     0.340265
  ----------------------------------------
  Sum of atomic charges =    -2.000000

 -----------------------------------------------------------------
                    Cartesian Multipole Moments
 -----------------------------------------------------------------
    Charge (ESU x 10^10)
                -9.6064
    Dipole Moment (Debye)
         X      12.2463      Y      -6.5009      Z      11.0728
       Tot      17.7438
    Quadrupole Moments (Debye-Ang)
        XX     -97.0592     XY      -1.4802     YY     -91.9588
        XZ     -35.2530     YZ     -12.7141     ZZ    -143.0620
    Octopole Moments (Debye-Ang^2)
       XXX     151.2287    XXY     -16.3374    XYY      36.5726
       YYY     -60.6697    XXZ     143.7147    XYZ      14.1392
       YYZ      34.9040    XZZ     186.9471    YZZ     -19.3258
       ZZZ     271.3616
    Hexadecapole Moments (Debye-Ang^3)
      XXXX   -1204.3829   XXXY     -91.8090   XXYY    -316.6423
      XYYY     -84.9371   YYYY    -456.6404   XXXZ    -740.7199
      XXYZ     -62.0932   XYYZ    -245.8519   YYYZ    -148.0555
      XXZZ    -878.3576   XYZZ     -62.5299   YYZZ    -517.7935
      XZZZ   -1075.3986   YZZZ    -235.5994   ZZZZ   -2752.4715
 -----------------------------------------------------------------
 Calculating analytic gradient of the SCF energy
 Gradient of SCF Energy
            1           2           3           4           5           6
    1   0.0235891  -0.0181612   0.0237199   0.0103158  -0.0335207  -0.0547008
    2  -0.0827980   0.0180652   0.0320927  -0.0565872   0.1229825   0.0229350
    3   0.0336198  -0.0373844   0.0410963   0.0111855  -0.0415733   0.0289097
            7           8           9          10          11          12
    1   0.0421315   0.0105620   0.0460522  -0.0419124  -0.0584131   0.0508617
    2   0.0377131   0.0165456  -0.0369081  -0.0581177   0.0108992  -0.0409043
    3  -0.0318351   0.0091742  -0.0243731   0.0296238  -0.0921242   0.1084846
           13          14          15          16          17          18
    1   0.0591280  -0.0326650  -0.0448908   0.0252568  -0.0210279   0.0454954
    2   0.0429877  -0.0492261   0.0435730  -0.0232402   0.0217517  -0.0192046
    3  -0.0353848  -0.0493141   0.0346251  -0.0023586   0.0341457   0.0151233
           19
    1  -0.0318205
    2  -0.0025596
    3  -0.0316403
 Max gradient component =       1.230E-01
 RMS gradient           =       4.354E-02
 Computing fast CPCM-ISWIG gradient
 Updating gradient with PCM contributions...
 -- total gradient after adding PCM contribution --
---------------------------------------------------
  Atom         X              Y              Z     
---------------------------------------------------
   1       0.001016       0.000027      -0.000063
   2      -0.000213       0.000030      -0.000053
   3       0.000003      -0.000004      -0.000055
   4       0.000024       0.000020      -0.000028
   5      -0.000164      -0.000031      -0.000029
   6      -0.000415       0.000185       0.000137
   7      -0.000236      -0.000198       0.000134
   8      -0.000023      -0.000039      -0.000056
   9       0.000017       0.000031       0.000033
  10      -0.000009      -0.000025      -0.000029
  11      -0.000021       0.000019       0.000032
  12       0.000001      -0.000007      -0.000008
  13       0.000001      -0.000002      -0.000001
  14      -0.000001      -0.000000       0.000001
  15       0.000002       0.000002       0.000000
  16       0.000016      -0.000013      -0.000008
  17       0.000008       0.000002      -0.000009
  18      -0.000005       0.000001       0.000001
  19      -0.000001       0.000003       0.000001
---------------------------------------------------
 Number of fixed atoms: 0
 Gradient time:  CPU 1080.41 s  wall 78.68 s
 ----------------------------------------------------------------
             Standard Nuclear Orientation (Angstroms)
    I     Atom           X                Y                Z
 ----------------------------------------------------------------
    1      C      -1.1886411392    -0.7439408563    -1.6308375602
    2      C      -1.9899356487    -0.2109067287    -2.8277903701
    3      O      -2.4382076381    -1.0783204091    -3.6250445535
    4      O      -2.1427276614     1.0324398838    -2.9418914211
    5      C      -0.7564939051     0.3092384577    -0.6274479388
    6      H      -0.3072685940    -1.2637608803    -2.0280573170
    7      H      -1.7948228811    -1.5076592262    -1.1314773105
    8      O      -0.0411185883    -0.3425494229     0.4120904044
    9      H      -1.6308662868     0.8289561163    -0.2209420976
   10      H      -0.1194478138     1.0599278185    -1.1097410149
   11      C       0.4636737467     0.5231772144     1.4462677261
   12      C       1.1325120936    -0.4174368219     2.4516757271
   13      H       0.3562800705    -1.0124486542     2.9404631198
   14      H       1.6473608391     0.1793418631     3.2093407441
   15      H       1.8454703341    -1.0966106947     1.9774832317
   16      O      -0.3726493992     1.3878832512     1.9254128340
   17      O       1.5480397937     1.3641905267     0.8026141078
   18      O       2.5455190658     0.5682068441     0.1522841637
   19      H       3.2237562713     0.4785973476     0.8373433137
 ----------------------------------------------------------------
 Nuclear Repulsion Energy =   641.0013468321 hartrees
 There are       44 alpha and       44 beta electrons
 Discretize the solute cavity surface with Lebedev spheres
	Using 110 Lebedev grid points for each H atom
	Using 110 Lebedev grid points for other atoms
	Atomic van der Waals radii will be scaled by 1.20
 Remove points where switching function is < 1.0e-08
 Keep 1133 surface tesserae and discard 957 interior tesserae
 Molecular Surface Area = 202.513 Angst**2
 Requested basis set is def2-TZVPD
 There are 189 shells and 497 basis functions
 A cutoff of  1.0D-14 yielded  15973 shell pairs
 There are    110293 function pairs (    140447 Cartesian)
 Smallest overlap matrix eigenvalue = 3.82E-06
 Guess MOs from SCF MO coefficient file
 Reading MOs from coefficient file
 Reading MOs from coefficient file
 Long-range K will be added via erf
 Coulomb attenuation parameter = 0.3 bohr**(-1)
 A restricted hybrid HF-DFT SCF calculation will be
 performed using Pulay DIIS extrapolation
 Polarizable Continuum solvation model will be applied
 Exchange:     0.1670 Hartree-Fock + 1.0000 wB97X-V + LR-HF
 Correlation:  1.0000 wB97X-V
 Using SG-2 standard quadrature grid
 Nonlocal Correlation:  VV10 with C = 0.0100 and b = 6.00
 Grid used for NLC:  SG-1 standard quadrature
 SCF converges when DIIS error is below 1.0E-08
Using Q-Chem read-in guess as SCF_GUESS READ specified.

 using 16 threads for integral computing
 -------------------------------------------------------
 OpenMP Integral computing Module                
 Release: version 1.0, May 2013, Q-Chem Inc. Pittsburgh 
 -------------------------------------------------------
 using 16 threads for integral computing
 -------------------------------------------------------
 OpenMP Integral computing Module                
 Release: version 1.0, May 2013, Q-Chem Inc. Pittsburgh 
 -------------------------------------------------------
 -------------------------------------------------------
 OpenMP BLAS3 based DFT computing Module                
 Release: version 1.0, May 2013, Q-Chem Inc. Pittsburgh 
 -------------------------------------------------------
 -------------------------------------------------------
 OpenMP BLAS3 based DFT computing Module                
 Release: version 1.0, May 2013, Q-Chem Inc. Pittsburgh 
 -------------------------------------------------------
 -------------------------------------------------------
 OpenMP BLAS3 based DFT computing Module                
 Release: version 1.0, May 2013, Q-Chem Inc. Pittsburgh 
 -------------------------------------------------------
 ---------------------------------------
  Cycle       Energy         DIIS Error
 ---------------------------------------
    1    -646.6458748467      4.05E-04
    2    -646.9495533231      4.47E-04
    3    -646.9577435142      2.02E-04
    4    -646.9590521996      1.48E-04
    5    -646.9598814145      1.12E-04
    6    -646.9603409108      8.60E-05
    7    -646.9607530368      5.37E-05
    8    -646.9609481860      2.75E-05
    9    -646.9610113095      8.11E-06
   10    -646.9610168640      2.16E-06
   11    -646.9610172618      3.84E-07
   12    -646.9610172736      7.93E-08
   13    -646.9610172741      1.58E-08
   14    -646.9610172741      7.43E-09 Convergence criterion met
 ---------------------------------------

************** Final PCM Free Energy Summary **************
 G_electrostatic  =      -0.31508919 hartree =    -197.72145287 kcal/mol
 G_cavitation     =       0.00000000 hartree =       0.00000000 kcal/mol
 G_dispersion     =       0.00000000 hartree =       0.00000000 kcal/mol
 G_repulsion      =       0.00000000 hartree =       0.00000000 kcal/mol
 --------------------------------------------------
 Non-electrostatic Free Energy =       0.00000000 hartree =       0.00000000 kcal/mol
 Total                         =      -0.31508919 hartree =    -197.72145287 kcal/mol
 --------------------------------------------------
 SCF Energy (H0 + V/2)                       =    -646.96101727 
 Solute Internal Energy (H0)                 =    -646.64592808 
 Total Free Energy (H0 + V/2 + non-elec)     =    -646.96101727 hartree
                                             = -405974.16570729 kcal/mol
***********************************************************

 SCF time:  CPU 4367.31 s  wall 311.48 s
 SCF   energy in the final basis set = -646.96101727
 Total energy in the final basis set = -646.96101727
 
 --------------------------------------------------------------
 
                    Orbital Energies (a.u.)
 --------------------------------------------------------------
 
 Alpha MOs
 -- Occupied --
-19.247 -19.234 -19.187 -19.140 -19.138 -19.110 -10.370 -10.341
-10.286 -10.246 -10.235  -1.230  -1.150  -1.143  -1.062  -1.049
 -0.974  -0.878  -0.832  -0.737  -0.665  -0.633  -0.600  -0.586
 -0.559  -0.556  -0.541  -0.522  -0.522  -0.504  -0.497  -0.476
 -0.467  -0.452  -0.438  -0.416  -0.394  -0.371  -0.357  -0.344
 -0.338  -0.331  -0.323  -0.314
 -- Virtual --
  0.060   0.072   0.075   0.083   0.098   0.100   0.104   0.112
  0.124   0.127   0.132   0.136   0.143   0.152   0.159   0.163
  0.170   0.174   0.179   0.182   0.187   0.190   0.198   0.211
  0.215   0.224   0.231   0.234   0.247   0.250   0.254   0.264
  0.268   0.274   0.281   0.282   0.288   0.293   0.301   0.307
  0.310   0.318   0.319   0.324   0.333   0.338   0.347   0.353
  0.361   0.363   0.366   0.367   0.375   0.381   0.385   0.387
  0.391   0.396   0.404   0.414   0.416   0.418   0.426   0.429
  0.438   0.440   0.441   0.449   0.453   0.456   0.468   0.471
  0.476   0.481   0.487   0.488   0.496   0.502   0.507   0.512
  0.518   0.522   0.528   0.530   0.537   0.547   0.551   0.557
  0.562   0.567   0.574   0.580   0.588   0.592   0.595   0.602
  0.609   0.617   0.623   0.624   0.631   0.642   0.650   0.659
  0.666   0.669   0.670   0.676   0.690   0.694   0.708   0.715
  0.718   0.730   0.735   0.739   0.758   0.763   0.765   0.770
  0.779   0.782   0.788   0.794   0.801   0.808   0.815   0.818
  0.820   0.831   0.836   0.840   0.844   0.851   0.855   0.865
  0.868   0.873   0.884   0.886   0.903   0.907   0.922   0.927
  0.932   0.934   0.941   0.946   0.965   0.983   0.986   1.005
  1.011   1.015   1.024   1.039   1.053   1.064   1.071   1.083
  1.096   1.119   1.124   1.128   1.157   1.162   1.173   1.176
  1.194   1.203   1.220   1.227   1.246   1.258   1.265   1.273
  1.300   1.308   1.311   1.324   1.336   1.349   1.369   1.375
  1.382   1.405   1.413   1.417   1.421   1.444   1.465   1.468
  1.480   1.499   1.515   1.521   1.552   1.591   1.600   1.620
  1.631   1.672   1.698   1.738   1.750   1.767   1.821   1.838
  1.857   1.889   1.912   1.935   1.942   1.943   1.949   1.963
  1.974   1.984   1.988   2.003   2.011   2.019   2.030   2.042
  2.047   2.064   2.072   2.100   2.100   2.127   2.156   2.176
  2.179   2.213   2.232   2.245   2.252   2.255   2.273   2.279
  2.308   2.320   2.346   2.348   2.357   2.380   2.391   2.409
  2.450   2.457   2.475   2.484   2.487   2.504   2.514   2.527
  2.572   2.576   2.613   2.629   2.646   2.675   2.691   2.706
  2.712   2.723   2.746   2.755   2.773   2.787   2.809   2.824
  2.856   2.872   2.896   2.917   2.941   2.948   2.966   2.990
  3.009   3.025   3.031   3.060   3.075   3.088   3.092   3.103
  3.119   3.157   3.182   3.218   3.234   3.244   3.255   3.267
  3.304   3.311   3.322   3.362   3.366   3.383   3.395   3.423
  3.449   3.461   3.471   3.484   3.486   3.504   3.519   3.537
  3.549   3.552   3.560   3.577   3.601   3.603   3.617   3.642
  3.657   3.667   3.684   3.696   3.698   3.714   3.723   3.743
  3.753   3.779   3.786   3.795   3.805   3.832   3.863   3.876
  3.902   3.935   3.972   4.006   4.054   4.060   4.080   4.107
  4.153   4.183   4.194   4.215   4.232   4.273   4.332   4.377
  4.434   4.533   4.602   4.627   4.632   4.638   4.692   4.723
  4.772   4.806   4.820   4.828   4.887   4.952   4.980   5.011
  5.068   5.109   5.143   5.201   5.222   5.308   5.324   5.361
  5.368   5.373   5.377   5.403   5.418   5.467   5.503   5.543
  5.576   5.584   5.643   5.678   5.713   5.719   5.729   5.778
  5.805   5.850   5.973   6.005   6.033   6.104   6.171   6.245
  6.258   6.282   6.314   6.334   6.343   6.414   6.460   6.516
  6.559   6.623   6.639   6.654   6.660   6.677   6.699   6.749
  6.756   6.776   6.803   6.815   6.876   6.947   6.958   6.970
  7.040   7.048   7.061   7.100   7.180   7.212   7.256   7.328
  7.338   7.365   7.403   7.410   7.412   7.488   7.533   7.681
  7.736   8.327  22.715  22.862  22.937  23.266  23.735  44.202
 44.263  44.434  44.493  44.672  44.734
 --------------------------------------------------------------
 
          Ground-State Mulliken Net Atomic Charges

     Atom                 Charge (a.u.)
  ----------------------------------------
      1 C                    -0.027830
      2 C                     0.038272
      3 O                    -0.711613
      4 O                    -0.692747
      5 C                    -0.272521
      6 H                     0.221676
      7 H                     0.238011
      8 O                    -0.290696
      9 H                     0.159241
     10 H                     0.167009
     11 C                     0.771534
     12 C                    -1.103870
     13 H                     0.235287
     14 H                     0.259907
     15 H                     0.237954
     16 O                    -0.866950
     17 O                    -0.282350
     18 O                    -0.420587
     19 H                     0.340271
  ----------------------------------------
  Sum of atomic charges =    -2.000000

 -----------------------------------------------------------------
                    Cartesian Multipole Moments
 -----------------------------------------------------------------
    Charge (ESU x 10^10)
                -9.6064
    Dipole Moment (Debye)
         X      12.2458      Y      -6.5018      Z      11.0757
       Tot      17.7455
    Quadrupole Moments (Debye-Ang)
        XX     -97.0567     XY      -1.4759     YY     -91.9576
        XZ     -35.2538     YZ     -12.7171     ZZ    -143.0737
    Octopole Moments (Debye-Ang^2)
       XXX     151.2491    XXY     -16.3427    XYY      36.5772
       YYY     -60.6740    XXZ     143.7162    XYZ      14.1396
       YYZ      34.9114    XZZ     186.9721    YZZ     -19.3148
       ZZZ     271.4219
    Hexadecapole Moments (Debye-Ang^3)
      XXXX   -1204.4718   XXXY     -91.8198   XXYY    -316.6529
      XYYY     -84.9355   YYYY    -456.6276   XXXZ    -740.7500
      XXYZ     -62.0991   XYYZ    -245.8665   YYYZ    -148.0667
      XXZZ    -878.4022   XYZZ     -62.5458   YYZZ    -517.8226
      XZZZ   -1075.5260   YZZZ    -235.6417   ZZZZ   -2752.7243
 -----------------------------------------------------------------
 Calculating analytic gradient of the SCF energy
 Gradient of SCF Energy
            1           2           3           4           5           6
    1   0.0218521  -0.0178526   0.0236967   0.0102887  -0.0332877  -0.0539381
    2  -0.0826258   0.0179740   0.0321004  -0.0566115   0.1228709   0.0224439
    3   0.0340808  -0.0371442   0.0411410   0.0112053  -0.0416400   0.0284792
            7           8           9          10          11          12
    1   0.0424616   0.0106054   0.0461521  -0.0418775  -0.0584344   0.0508644
    2   0.0381909   0.0165592  -0.0369659  -0.0580192   0.0109048  -0.0408943
    3  -0.0321885   0.0092224  -0.0244179   0.0296510  -0.0920425   0.1084602
           13          14          15          16          17          18
    1   0.0591222  -0.0326642  -0.0448913   0.0252588  -0.0210303   0.0454940
    2   0.0429810  -0.0492252   0.0435749  -0.0232405   0.0217482  -0.0192067
    3  -0.0353784  -0.0493094   0.0346247  -0.0023610   0.0341379   0.0151177
           19
    1  -0.0318199
    2  -0.0025591
    3  -0.0316383
 Max gradient component =       1.229E-01
 RMS gradient           =       4.350E-02
 Computing fast CPCM-ISWIG gradient
 Updating gradient with PCM contributions...
 -- total gradient after adding PCM contribution --
---------------------------------------------------
  Atom         X              Y              Z     
---------------------------------------------------
   1      -0.001011      -0.000022       0.000068
   2       0.000213      -0.000025       0.000053
   3      -0.000001       0.000003       0.000056
   4      -0.000031      -0.000020       0.000027
   5       0.000165       0.000054       0.000027
   6       0.000414      -0.000189      -0.000139
   7       0.000239       0.000194      -0.000130
   8       0.000019       0.000015       0.000039
   9      -0.000015      -0.000037      -0.000030
  10       0.000009       0.000033       0.000023
  11      -0.000016      -0.000000       0.000024
  12       0.000002      -0.000004      -0.000004
  13       0.000001      -0.000002      -0.000002
  14      -0.000001      -0.000001       0.000002
  15       0.000002       0.000002       0.000000
  16       0.000009      -0.000008      -0.000011
  17       0.000009       0.000003      -0.000006
  18      -0.000005       0.000001       0.000002
  19      -0.000002       0.000003       0.000001
---------------------------------------------------
 Number of fixed atoms: 0
 Gradient time:  CPU 1083.35 s  wall 78.86 s
 ----------------------------------------------------------------
             Standard Nuclear Orientation (Angstroms)
    I     Atom           X                Y                Z
 ----------------------------------------------------------------
    1      C      -1.1876411392    -0.7429408563    -1.6308375602
    2      C      -1.9899356487    -0.2109067287    -2.8277903701
    3      O      -2.4382076381    -1.0783204091    -3.6250445535
    4      O      -2.1427276614     1.0324398838    -2.9418914211
    5      C      -0.7564939051     0.3092384577    -0.6274479388
    6      H      -0.3072685940    -1.2637608803    -2.0280573170
    7      H      -1.7948228811    -1.5076592262    -1.1314773105
    8      O      -0.0411185883    -0.3425494229     0.4120904044
    9      H      -1.6308662868     0.8289561163    -0.2209420976
   10      H      -0.1194478138     1.0599278185    -1.1097410149
   11      C       0.4636737467     0.5231772144     1.4462677261
   12      C       1.1325120936    -0.4174368219     2.4516757271
   13      H       0.3562800705    -1.0124486542     2.9404631198
   14      H       1.6473608391     0.1793418631     3.2093407441
   15      H       1.8454703341    -1.0966106947     1.9774832317
   16      O      -0.3726493992     1.3878832512     1.9254128340
   17      O       1.5480397937     1.3641905267     0.8026141078
   18      O       2.5455190658     0.5682068441     0.1522841637
   19      H       3.2237562713     0.4785973476     0.8373433137
 ----------------------------------------------------------------
 Nuclear Repulsion Energy =   641.0143519358 hartrees
 There are       44 alpha and       44 beta electrons
 Discretize the solute cavity surface with Lebedev spheres
	Using 110 Lebedev grid points for each H atom
	Using 110 Lebedev grid points for other atoms
	Atomic van der Waals radii will be scaled by 1.20
 Remove points where switching function is < 1.0e-08
 Keep 1134 surface tesserae and discard 956 interior tesserae
 Molecular Surface Area = 202.505 Angst**2
 Requested basis set is def2-TZVPD
 There are 189 shells and 497 basis functions
 A cutoff of  1.0D-14 yielded  15973 shell pairs
 There are    110293 function pairs (    140447 Cartesian)
 Smallest overlap matrix eigenvalue = 3.81E-06
 Guess MOs from SCF MO coefficient file
 Reading MOs from coefficient file
 Reading MOs from coefficient file
 Long-range K will be added via erf
 Coulomb attenuation parameter = 0.3 bohr**(-1)
 A restricted hybrid HF-DFT SCF calculation will be
 performed using Pulay DIIS extrapolation
 Polarizable Continuum solvation model will be applied
 Exchange:     0.1670 Hartree-Fock + 1.0000 wB97X-V + LR-HF
 Correlation:  1.0000 wB97X-V
 Using SG-2 standard quadrature grid
 Nonlocal Correlation:  VV10 with C = 0.0100 and b = 6.00
 Grid used for NLC:  SG-1 standard quadrature
 SCF converges when DIIS error is below 1.0E-08
Using Q-Chem read-in guess as SCF_GUESS READ specified.

 using 16 threads for integral computing
 -------------------------------------------------------
 OpenMP Integral computing Module                
 Release: version 1.0, May 2013, Q-Chem Inc. Pittsburgh 
 -------------------------------------------------------
 using 16 threads for integral computing
 -------------------------------------------------------
 OpenMP Integral computing Module                
 Release: version 1.0, May 2013, Q-Chem Inc. Pittsburgh 
 -------------------------------------------------------
 -------------------------------------------------------
 OpenMP BLAS3 based DFT computing Module                
 Release: version 1.0, May 2013, Q-Chem Inc. Pittsburgh 
 -------------------------------------------------------
 -------------------------------------------------------
 OpenMP BLAS3 based DFT computing Module                
 Release: version 1.0, May 2013, Q-Chem Inc. Pittsburgh 
 -------------------------------------------------------
 -------------------------------------------------------
 OpenMP BLAS3 based DFT computing Module                
 Release: version 1.0, May 2013, Q-Chem Inc. Pittsburgh 
 -------------------------------------------------------
 ---------------------------------------
  Cycle       Energy         DIIS Error
 ---------------------------------------
    1    -646.6455864001      4.04E-04
    2    -646.9495498096      4.47E-04
    3    -646.9577409110      2.02E-04
    4    -646.9590489719      1.49E-04
    5    -646.9598704187      1.12E-04
    6    -646.9603075322      8.81E-05
    7    -646.9606812358      6.06E-05
    8    -646.9608959101      3.65E-05
    9    -646.9609990127      1.42E-05
   10    -646.9610153530      4.58E-06
   11    -646.9610171505      9.50E-07
   12    -646.9610172257      2.17E-07
   13    -646.9610172296      3.30E-08
   14    -646.9610172297      7.58E-09 Convergence criterion met
 ---------------------------------------

************** Final PCM Free Energy Summary **************
 G_electrostatic  =      -0.31508391 hartree =    -197.71814062 kcal/mol
 G_cavitation     =       0.00000000 hartree =       0.00000000 kcal/mol
 G_dispersion     =       0.00000000 hartree =       0.00000000 kcal/mol
 G_repulsion      =       0.00000000 hartree =       0.00000000 kcal/mol
 --------------------------------------------------
 Non-electrostatic Free Energy =       0.00000000 hartree =       0.00000000 kcal/mol
 Total                         =      -0.31508391 hartree =    -197.71814062 kcal/mol
 --------------------------------------------------
 SCF Energy (H0 + V/2)                       =    -646.96101723 
 Solute Internal Energy (H0)                 =    -646.64593332 
 Total Free Energy (H0 + V/2 + non-elec)     =    -646.96101723 hartree
                                             = -405974.16567942 kcal/mol
***********************************************************

 SCF time:  CPU 4384.03 s  wall 312.07 s
 SCF   energy in the final basis set = -646.96101723
 Total energy in the final basis set = -646.96101723
 
 --------------------------------------------------------------
 
                    Orbital Energies (a.u.)
 --------------------------------------------------------------
 
 Alpha MOs
 -- Occupied --
-19.247 -19.234 -19.187 -19.140 -19.138 -19.110 -10.370 -10.341
-10.286 -10.246 -10.235  -1.230  -1.150  -1.143  -1.062  -1.049
 -0.974  -0.878  -0.832  -0.737  -0.665  -0.633  -0.600  -0.586
 -0.559  -0.556  -0.541  -0.522  -0.522  -0.504  -0.497  -0.476
 -0.467  -0.452  -0.438  -0.416  -0.394  -0.371  -0.357  -0.344
 -0.338  -0.331  -0.323  -0.314
 -- Virtual --
  0.060   0.072   0.075   0.083   0.098   0.100   0.104   0.112
  0.124   0.127   0.132   0.136   0.143   0.152   0.159   0.163
  0.170   0.174   0.179   0.182   0.187   0.190   0.198   0.211
  0.215   0.224   0.231   0.234   0.247   0.250   0.254   0.264
  0.268   0.274   0.280   0.282   0.288   0.293   0.301   0.307
  0.310   0.318   0.319   0.324   0.333   0.338   0.347   0.353
  0.361   0.363   0.366   0.367   0.375   0.381   0.385   0.387
  0.391   0.396   0.404   0.414   0.416   0.418   0.426   0.429
  0.438   0.440   0.441   0.449   0.453   0.456   0.468   0.472
  0.476   0.481   0.487   0.488   0.496   0.502   0.507   0.512
  0.518   0.522   0.528   0.530   0.537   0.547   0.551   0.557
  0.562   0.567   0.574   0.580   0.588   0.592   0.595   0.602
  0.609   0.617   0.623   0.624   0.631   0.642   0.650   0.659
  0.666   0.669   0.670   0.676   0.690   0.694   0.708   0.715
  0.718   0.730   0.735   0.739   0.758   0.763   0.765   0.770
  0.779   0.782   0.788   0.794   0.801   0.808   0.815   0.818
  0.820   0.831   0.836   0.840   0.844   0.851   0.855   0.865
  0.868   0.873   0.884   0.886   0.903   0.907   0.923   0.927
  0.932   0.934   0.941   0.946   0.965   0.983   0.986   1.005
  1.011   1.015   1.024   1.039   1.053   1.064   1.071   1.083
  1.096   1.119   1.124   1.128   1.157   1.162   1.173   1.176
  1.194   1.203   1.220   1.227   1.246   1.258   1.265   1.273
  1.300   1.308   1.311   1.324   1.336   1.349   1.369   1.376
  1.382   1.405   1.413   1.417   1.421   1.444   1.465   1.468
  1.481   1.499   1.515   1.521   1.552   1.591   1.600   1.621
  1.631   1.672   1.698   1.738   1.750   1.767   1.821   1.838
  1.857   1.889   1.913   1.935   1.942   1.943   1.949   1.963
  1.974   1.984   1.988   2.002   2.011   2.019   2.030   2.042
  2.047   2.064   2.072   2.100   2.100   2.127   2.156   2.176
  2.179   2.213   2.232   2.245   2.252   2.255   2.273   2.279
  2.308   2.321   2.346   2.348   2.357   2.380   2.391   2.409
  2.450   2.457   2.475   2.484   2.487   2.504   2.514   2.527
  2.572   2.576   2.613   2.629   2.646   2.675   2.691   2.706
  2.712   2.724   2.746   2.755   2.774   2.787   2.809   2.824
  2.856   2.872   2.896   2.917   2.941   2.948   2.966   2.990
  3.009   3.025   3.031   3.060   3.075   3.087   3.092   3.103
  3.119   3.157   3.182   3.218   3.234   3.244   3.255   3.267
  3.304   3.310   3.322   3.362   3.366   3.383   3.395   3.423
  3.449   3.461   3.471   3.484   3.486   3.504   3.519   3.537
  3.549   3.552   3.560   3.577   3.601   3.604   3.618   3.642
  3.657   3.667   3.684   3.696   3.698   3.714   3.723   3.743
  3.753   3.779   3.786   3.795   3.805   3.832   3.863   3.876
  3.902   3.935   3.972   4.006   4.054   4.060   4.079   4.106
  4.153   4.184   4.194   4.215   4.232   4.273   4.332   4.377
  4.434   4.533   4.602   4.627   4.632   4.638   4.692   4.723
  4.772   4.806   4.820   4.828   4.887   4.952   4.980   5.012
  5.068   5.109   5.143   5.201   5.222   5.308   5.324   5.361
  5.368   5.373   5.377   5.403   5.418   5.467   5.503   5.543
  5.576   5.584   5.643   5.678   5.713   5.719   5.729   5.778
  5.805   5.850   5.973   6.005   6.033   6.104   6.171   6.245
  6.258   6.282   6.314   6.334   6.343   6.414   6.460   6.516
  6.559   6.623   6.639   6.654   6.660   6.677   6.699   6.749
  6.756   6.776   6.803   6.815   6.876   6.947   6.958   6.970
  7.040   7.048   7.061   7.100   7.180   7.212   7.256   7.328
  7.338   7.365   7.403   7.410   7.412   7.488   7.533   7.681
  7.736   8.327  22.715  22.862  22.938  23.266  23.735  44.202
 44.263  44.434  44.493  44.672  44.735
 --------------------------------------------------------------
 
          Ground-State Mulliken Net Atomic Charges

     Atom                 Charge (a.u.)
  ----------------------------------------
      1 C                    -0.027561
      2 C                     0.037945
      3 O                    -0.711641
      4 O                    -0.692762
      5 C                    -0.271460
      6 H                     0.222391
      7 H                     0.237032
      8 O                    -0.290721
      9 H                     0.158997
     10 H                     0.166549
     11 C                     0.771561
     12 C                    -1.103857
     13 H                     0.235301
     14 H                     0.259907
     15 H                     0.237966
     16 O                    -0.866963
     17 O                    -0.282375
     18 O                    -0.420576
     19 H                     0.340267
  ----------------------------------------
  Sum of atomic charges =    -2.000000

 -----------------------------------------------------------------
                    Cartesian Multipole Moments
 -----------------------------------------------------------------
    Charge (ESU x 10^10)
                -9.6064
    Dipole Moment (Debye)
         X      12.2466      Y      -6.5011      Z      11.0749
       Tot      17.7453
    Quadrupole Moments (Debye-Ang)
        XX     -97.0594     XY      -1.4781     YY     -91.9598
        XZ     -35.2524     YZ     -12.7143     ZZ    -143.0670
    Octopole Moments (Debye-Ang^2)
       XXX     151.2456    XXY     -16.3438    XYY      36.5790
       YYY     -60.6850    XXZ     143.7162    XYZ      14.1346
       YYZ      34.9111    XZZ     186.9563    YZZ     -19.3304
       ZZZ     271.3930
    Hexadecapole Moments (Debye-Ang^3)
      XXXX   -1204.4370   XXXY     -91.7971   XXYY    -316.6502
      XYYY     -84.9205   YYYY    -456.5981   XXXZ    -740.7287
      XXYZ     -62.0762   XYYZ    -245.8633   YYYZ    -148.0322
      XXZZ    -878.3653   XYZZ     -62.5114   YYZZ    -517.8050
      XZZZ   -1075.4320   YZZZ    -235.5696   ZZZZ   -2752.5541
 -----------------------------------------------------------------
 Calculating analytic gradient of the SCF energy
 Gradient of SCF Energy
            1           2           3           4           5           6
    1   0.0227836  -0.0179387   0.0236933   0.0103171  -0.0335665  -0.0540825
    2  -0.0819893   0.0178803   0.0321183  -0.0566070   0.1227764   0.0225090
    3   0.0337907  -0.0371520   0.0410922   0.0112206  -0.0417853   0.0286161
            7           8           9          10          11          12
    1   0.0420833   0.0105837   0.0460558  -0.0418489  -0.0584100   0.0508595
    2   0.0376203   0.0165948  -0.0369249  -0.0580584   0.0108950  -0.0408933
    3  -0.0318108   0.0091905  -0.0243602   0.0296122  -0.0920775   0.1084681
           13          14          15          16          17          18
    1   0.0591266  -0.0326658  -0.0448877   0.0252582  -0.0210337   0.0454934
    2   0.0429836  -0.0492251   0.0435720  -0.0232372   0.0217504  -0.0192050
    3  -0.0353782  -0.0493113   0.0346274  -0.0023627   0.0341393   0.0151192
           19
    1  -0.0318206
    2  -0.0025599
    3  -0.0316384
 Max gradient component =       1.228E-01
 RMS gradient           =       4.346E-02
 Computing fast CPCM-ISWIG gradient
 Updating gradient with PCM contributions...
 -- total gradient after adding PCM contribution --
---------------------------------------------------
  Atom         X              Y              Z     
---------------------------------------------------
   1       0.000025       0.001053       0.000021
   2       0.000031      -0.000158       0.000050
   3      -0.000033       0.000009      -0.000053
   4       0.000039      -0.000058       0.000054
   5      -0.000058      -0.000297      -0.000139
   6       0.000186      -0.000192      -0.000085
   7      -0.000192      -0.000323       0.000159
   8       0.000017       0.000020       0.000032
   9      -0.000010      -0.000022      -0.000015
  10      -0.000009      -0.000025      -0.000032
  11      -0.000018      -0.000006       0.000024
  12       0.000003      -0.000003      -0.000003
  13       0.000001      -0.000002      -0.000002
  14      -0.000000      -0.000001       0.000002
  15       0.000002       0.000002       0.000000
  16       0.000010      -0.000006      -0.000008
  17       0.000010       0.000005      -0.000008
  18      -0.000004       0.000001       0.000002
  19      -0.000002       0.000003       0.000001
---------------------------------------------------
 Number of fixed atoms: 0
 Gradient time:  CPU 1072.26 s  wall 77.77 s
 ----------------------------------------------------------------
             Standard Nuclear Orientation (Angstroms)
    I     Atom           X                Y                Z
 ----------------------------------------------------------------
    1      C      -1.1876411392    -0.7449408563    -1.6308375602
    2      C      -1.9899356487    -0.2109067287    -2.8277903701
    3      O      -2.4382076381    -1.0783204091    -3.6250445535
    4      O      -2.1427276614     1.0324398838    -2.9418914211
    5      C      -0.7564939051     0.3092384577    -0.6274479388
    6      H      -0.3072685940    -1.2637608803    -2.0280573170
    7      H      -1.7948228811    -1.5076592262    -1.1314773105
    8      O      -0.0411185883    -0.3425494229     0.4120904044
    9      H      -1.6308662868     0.8289561163    -0.2209420976
   10      H      -0.1194478138     1.0599278185    -1.1097410149
   11      C       0.4636737467     0.5231772144     1.4462677261
   12      C       1.1325120936    -0.4174368219     2.4516757271
   13      H       0.3562800705    -1.0124486542     2.9404631198
   14      H       1.6473608391     0.1793418631     3.2093407441
   15      H       1.8454703341    -1.0966106947     1.9774832317
   16      O      -0.3726493992     1.3878832512     1.9254128340
   17      O       1.5480397937     1.3641905267     0.8026141078
   18      O       2.5455190658     0.5682068441     0.1522841637
   19      H       3.2237562713     0.4785973476     0.8373433137
 ----------------------------------------------------------------
 Nuclear Repulsion Energy =   640.9897971066 hartrees
 There are       44 alpha and       44 beta electrons
 Discretize the solute cavity surface with Lebedev spheres
	Using 110 Lebedev grid points for each H atom
	Using 110 Lebedev grid points for other atoms
	Atomic van der Waals radii will be scaled by 1.20
 Remove points where switching function is < 1.0e-08
 Keep 1133 surface tesserae and discard 957 interior tesserae
 Molecular Surface Area = 202.512 Angst**2
 Requested basis set is def2-TZVPD
 There are 189 shells and 497 basis functions
 A cutoff of  1.0D-14 yielded  15973 shell pairs
 There are    110293 function pairs (    140447 Cartesian)
 Smallest overlap matrix eigenvalue = 3.83E-06
 Guess MOs from SCF MO coefficient file
 Reading MOs from coefficient file
 Reading MOs from coefficient file
 Long-range K will be added via erf
 Coulomb attenuation parameter = 0.3 bohr**(-1)
 A restricted hybrid HF-DFT SCF calculation will be
 performed using Pulay DIIS extrapolation
 Polarizable Continuum solvation model will be applied
 Exchange:     0.1670 Hartree-Fock + 1.0000 wB97X-V + LR-HF
 Correlation:  1.0000 wB97X-V
 Using SG-2 standard quadrature grid
 Nonlocal Correlation:  VV10 with C = 0.0100 and b = 6.00
 Grid used for NLC:  SG-1 standard quadrature
 SCF converges when DIIS error is below 1.0E-08
Using Q-Chem read-in guess as SCF_GUESS READ specified.

 using 16 threads for integral computing
 -------------------------------------------------------
 OpenMP Integral computing Module                
 Release: version 1.0, May 2013, Q-Chem Inc. Pittsburgh 
 -------------------------------------------------------
 using 16 threads for integral computing
 -------------------------------------------------------
 OpenMP Integral computing Module                
 Release: version 1.0, May 2013, Q-Chem Inc. Pittsburgh 
 -------------------------------------------------------
 -------------------------------------------------------
 OpenMP BLAS3 based DFT computing Module                
 Release: version 1.0, May 2013, Q-Chem Inc. Pittsburgh 
 -------------------------------------------------------
 -------------------------------------------------------
 OpenMP BLAS3 based DFT computing Module                
 Release: version 1.0, May 2013, Q-Chem Inc. Pittsburgh 
 -------------------------------------------------------
 -------------------------------------------------------
 OpenMP BLAS3 based DFT computing Module                
 Release: version 1.0, May 2013, Q-Chem Inc. Pittsburgh 
 -------------------------------------------------------
 ---------------------------------------
  Cycle       Energy         DIIS Error
 ---------------------------------------
    1    -646.6466875524      4.05E-04
    2    -646.9495459283      4.47E-04
    3    -646.9577409555      2.02E-04
    4    -646.9590506294      1.48E-04
    5    -646.9598785514      1.12E-04
    6    -646.9603422818      8.59E-05
    7    -646.9607587384      5.31E-05
    8    -646.9609514218      2.68E-05
    9    -646.9610118253      7.73E-06
   10    -646.9610168682      2.07E-06
   11    -646.9610172330      3.47E-07
   12    -646.9610172426      6.68E-08
   13    -646.9610172429      1.50E-08
   14    -646.9610172430      7.27E-09 Convergence criterion met
 ---------------------------------------

************** Final PCM Free Energy Summary **************
 G_electrostatic  =      -0.31508722 hartree =    -197.72021339 kcal/mol
 G_cavitation     =       0.00000000 hartree =       0.00000000 kcal/mol
 G_dispersion     =       0.00000000 hartree =       0.00000000 kcal/mol
 G_repulsion      =       0.00000000 hartree =       0.00000000 kcal/mol
 --------------------------------------------------
 Non-electrostatic Free Energy =       0.00000000 hartree =       0.00000000 kcal/mol
 Total                         =      -0.31508722 hartree =    -197.72021339 kcal/mol
 --------------------------------------------------
 SCF Energy (H0 + V/2)                       =    -646.96101724 
 Solute Internal Energy (H0)                 =    -646.64593003 
 Total Free Energy (H0 + V/2 + non-elec)     =    -646.96101724 hartree
                                             = -405974.16568775 kcal/mol
***********************************************************

 SCF time:  CPU 4417.31 s  wall 314.05 s
 SCF   energy in the final basis set = -646.96101724
 Total energy in the final basis set = -646.96101724
 
 --------------------------------------------------------------
 
                    Orbital Energies (a.u.)
 --------------------------------------------------------------
 
 Alpha MOs
 -- Occupied --
-19.247 -19.234 -19.187 -19.140 -19.138 -19.110 -10.370 -10.341
-10.286 -10.246 -10.235  -1.230  -1.150  -1.143  -1.062  -1.049
 -0.974  -0.878  -0.832  -0.737  -0.665  -0.633  -0.600  -0.586
 -0.559  -0.556  -0.541  -0.522  -0.522  -0.504  -0.497  -0.476
 -0.467  -0.452  -0.439  -0.416  -0.394  -0.371  -0.356  -0.344
 -0.338  -0.331  -0.323  -0.314
 -- Virtual --
  0.060   0.072   0.075   0.083   0.098   0.100   0.104   0.112
  0.124   0.127   0.132   0.136   0.143   0.152   0.159   0.163
  0.170   0.174   0.179   0.182   0.187   0.190   0.198   0.211
  0.215   0.224   0.231   0.234   0.247   0.250   0.254   0.264
  0.269   0.274   0.281   0.282   0.288   0.293   0.301   0.307
  0.310   0.318   0.319   0.324   0.333   0.338   0.347   0.353
  0.361   0.363   0.366   0.367   0.375   0.381   0.385   0.387
  0.391   0.396   0.404   0.414   0.416   0.418   0.426   0.429
  0.438   0.440   0.441   0.449   0.453   0.456   0.468   0.471
  0.476   0.481   0.487   0.488   0.496   0.502   0.507   0.512
  0.518   0.522   0.528   0.530   0.537   0.547   0.551   0.557
  0.562   0.567   0.574   0.580   0.588   0.592   0.595   0.602
  0.609   0.617   0.622   0.624   0.631   0.642   0.650   0.659
  0.666   0.669   0.670   0.676   0.690   0.694   0.708   0.715
  0.718   0.730   0.735   0.739   0.758   0.763   0.765   0.770
  0.779   0.782   0.788   0.794   0.801   0.808   0.815   0.818
  0.820   0.831   0.836   0.840   0.844   0.851   0.855   0.865
  0.868   0.873   0.884   0.886   0.903   0.907   0.923   0.927
  0.932   0.934   0.941   0.946   0.965   0.983   0.986   1.005
  1.011   1.015   1.024   1.039   1.053   1.064   1.071   1.083
  1.096   1.119   1.124   1.128   1.157   1.162   1.173   1.176
  1.195   1.203   1.220   1.227   1.246   1.258   1.265   1.273
  1.300   1.308   1.311   1.324   1.336   1.349   1.369   1.376
  1.382   1.405   1.413   1.417   1.421   1.444   1.465   1.468
  1.480   1.498   1.515   1.521   1.552   1.591   1.600   1.620
  1.631   1.672   1.698   1.738   1.750   1.767   1.821   1.838
  1.857   1.889   1.912   1.935   1.942   1.943   1.949   1.962
  1.974   1.984   1.988   2.002   2.011   2.019   2.030   2.042
  2.047   2.064   2.072   2.100   2.100   2.127   2.156   2.176
  2.178   2.213   2.232   2.245   2.252   2.255   2.273   2.279
  2.308   2.320   2.346   2.348   2.357   2.380   2.391   2.409
  2.450   2.457   2.475   2.484   2.487   2.504   2.514   2.527
  2.572   2.576   2.613   2.629   2.646   2.675   2.690   2.706
  2.712   2.723   2.746   2.755   2.773   2.787   2.809   2.824
  2.856   2.872   2.895   2.917   2.941   2.948   2.967   2.990
  3.009   3.025   3.032   3.060   3.075   3.087   3.092   3.103
  3.118   3.157   3.182   3.218   3.234   3.244   3.255   3.266
  3.304   3.311   3.322   3.362   3.366   3.383   3.395   3.423
  3.449   3.461   3.470   3.484   3.486   3.503   3.519   3.537
  3.549   3.552   3.560   3.577   3.601   3.603   3.618   3.643
  3.657   3.667   3.684   3.695   3.698   3.714   3.723   3.743
  3.753   3.778   3.786   3.795   3.804   3.832   3.863   3.876
  3.902   3.935   3.972   4.006   4.054   4.060   4.080   4.106
  4.153   4.183   4.194   4.215   4.232   4.273   4.331   4.377
  4.433   4.533   4.602   4.627   4.632   4.638   4.692   4.723
  4.772   4.806   4.821   4.828   4.886   4.952   4.980   5.011
  5.068   5.109   5.143   5.201   5.221   5.308   5.324   5.361
  5.368   5.373   5.377   5.403   5.418   5.467   5.502   5.543
  5.576   5.584   5.643   5.678   5.713   5.718   5.729   5.778
  5.805   5.850   5.973   6.005   6.033   6.104   6.171   6.245
  6.258   6.282   6.313   6.333   6.343   6.414   6.460   6.516
  6.559   6.623   6.639   6.654   6.660   6.677   6.699   6.749
  6.756   6.776   6.803   6.815   6.876   6.947   6.958   6.970
  7.040   7.048   7.061   7.100   7.180   7.212   7.256   7.328
  7.338   7.365   7.403   7.410   7.412   7.488   7.533   7.681
  7.736   8.327  22.715  22.862  22.937  23.266  23.734  44.202
 44.263  44.434  44.493  44.672  44.735
 --------------------------------------------------------------
 
          Ground-State Mulliken Net Atomic Charges

     Atom                 Charge (a.u.)
  ----------------------------------------
      1 C                    -0.029042
      2 C                     0.039124
      3 O                    -0.711538
      4 O                    -0.692662
      5 C                    -0.272635
      6 H                     0.222490
      7 H                     0.237509
      8 O                    -0.290672
      9 H                     0.159483
     10 H                     0.167028
     11 C                     0.771263
     12 C                    -1.103825
     13 H                     0.235260
     14 H                     0.259908
     15 H                     0.237923
     16 O                    -0.866951
     17 O                    -0.282348
     18 O                    -0.420586
     19 H                     0.340270
  ----------------------------------------
  Sum of atomic charges =    -2.000000

 -----------------------------------------------------------------
                    Cartesian Multipole Moments
 -----------------------------------------------------------------
[...]
 Red. Mass:       3.8538                 2.8538                 2.7918
 IR Active:          YES                    YES                    YES
 IR Intens:      250.336                 32.525                309.930
 Raman Active:       YES                    YES                    YES
               X      Y      Z        X      Y      Z        X      Y      Z
 C         -0.002  0.028  0.002   -0.030 -0.247 -0.110    0.007  0.036  0.015
 C         -0.008 -0.005 -0.004    0.007 -0.000  0.014   -0.003 -0.001  0.005
 O          0.008  0.016  0.013    0.018  0.008  0.027   -0.003 -0.005 -0.006
 O         -0.001  0.000 -0.002   -0.009  0.022 -0.013    0.002  0.004  0.002
 C         -0.162  0.095 -0.241    0.017  0.251  0.094   -0.013 -0.023 -0.021
 H          0.136  0.111  0.216   -0.138 -0.290 -0.302    0.038  0.038  0.079
 H          0.095  0.108  0.231   -0.111 -0.286 -0.263    0.017  0.042  0.038
 O          0.143 -0.130  0.220   -0.006 -0.065 -0.017   -0.000 -0.013 -0.025
 H         -0.155  0.043 -0.225    0.129  0.298  0.286   -0.105 -0.015 -0.206
 H         -0.112  0.026 -0.229    0.106  0.308  0.288   -0.094 -0.044 -0.173
 C          0.122  0.042 -0.080    0.069  0.029  0.035    0.059  0.007  0.347
 C         -0.114 -0.075 -0.012   -0.038 -0.038 -0.031    0.000 -0.043 -0.160
 H          0.260 -0.250  0.346    0.065 -0.024  0.138   -0.200  0.363 -0.000
 H         -0.007  0.251 -0.330   -0.072  0.175 -0.169   -0.391  0.471 -0.297
 H          0.119  0.199 -0.065    0.091  0.045  0.047    0.175 -0.100  0.237
 O         -0.049  0.019  0.032   -0.031  0.020  0.008    0.008 -0.014 -0.067
 O          0.005 -0.001 -0.010    0.004  0.005 -0.009   -0.012  0.002 -0.020
 O         -0.003  0.002  0.001    0.000  0.000 -0.001    0.002  0.001 -0.003
 H         -0.019  0.002  0.018   -0.006 -0.006  0.006    0.004 -0.037 -0.010
 TransDip  -0.008  0.027 -0.506    0.160  0.025  0.085    0.022  0.137  0.546

 Mode:                31                     32                     33
 Frequency:      1219.92                1284.37                1293.07
 Force Cnst:      1.0560                 1.4270                 1.1127
 Red. Mass:       1.2043                 1.4683                 1.1295
 IR Active:          YES                    YES                    YES
 IR Intens:        1.792                 24.583                  0.980
 Raman Active:       YES                    YES                    YES
               X      Y      Z        X      Y      Z        X      Y      Z
 C          0.003 -0.001 -0.008   -0.063 -0.030 -0.144   -0.072 -0.018 -0.002
 C         -0.043 -0.002  0.027   -0.020 -0.006 -0.043   -0.032 -0.002  0.008
 O          0.007  0.001 -0.004    0.028  0.042  0.050    0.010  0.009  0.008
 O          0.007 -0.001 -0.004    0.001 -0.019  0.001    0.003 -0.005 -0.002
 C          0.086  0.012 -0.057   -0.025 -0.050 -0.016    0.053  0.004 -0.025
 H          0.201  0.072  0.331    0.177 -0.027  0.379    0.284  0.213  0.483
 H         -0.165 -0.060 -0.308    0.368  0.099  0.587   -0.110 -0.187 -0.305
 O         -0.046 -0.006  0.028   -0.010  0.039 -0.002    0.014  0.008 -0.009
 H          0.225 -0.224  0.518    0.242  0.076  0.394   -0.206 -0.153 -0.363
 H         -0.381  0.213 -0.377    0.132 -0.017  0.238    0.234  0.155  0.461
 C          0.003 -0.001  0.003   -0.003  0.010  0.022   -0.004  0.007 -0.001
 C          0.000  0.000 -0.001    0.003 -0.003 -0.002   -0.000 -0.000 -0.000
 H         -0.002  0.005  0.001   -0.014  0.021 -0.001    0.005 -0.003  0.005
 H         -0.003  0.004 -0.002   -0.016  0.017 -0.004    0.002 -0.006  0.004
 H         -0.002  0.001 -0.004    0.004  0.002 -0.003    0.003 -0.003  0.008
 O          0.001 -0.003 -0.003    0.008 -0.011 -0.010    0.002 -0.003 -0.001
 O          0.002  0.004  0.000   -0.004 -0.004 -0.000   -0.001 -0.003  0.001
 O         -0.000 -0.000  0.000    0.001 -0.000 -0.001    0.000 -0.000 -0.001
 H          0.004 -0.003 -0.004   -0.006  0.003  0.005   -0.007  0.006  0.007
 TransDip   0.037  0.015 -0.017   -0.087 -0.120 -0.057   -0.022 -0.021 -0.008

 Mode:                34                     35                     36
 Frequency:      1354.29                1364.96                1400.92
 Force Cnst:      1.7814                 1.3425                 1.9853
 Red. Mass:       1.6485                 1.2230                 1.7169
 IR Active:          YES                    YES                    YES
 IR Intens:      333.184                  3.613                 51.334
 Raman Active:       YES                    YES                    YES
               X      Y      Z        X      Y      Z        X      Y      Z
 C         -0.000 -0.005 -0.006   -0.003 -0.003 -0.007    0.044 -0.005  0.079
 C          0.003 -0.003  0.005   -0.000 -0.001 -0.000    0.048 -0.010  0.073
 O         -0.001 -0.001 -0.001    0.001  0.001  0.001   -0.028 -0.039 -0.047
 O         -0.001  0.005 -0.001   -0.000  0.001 -0.000   -0.008  0.040 -0.009
 C         -0.003  0.018  0.001    0.001  0.010  0.005   -0.078 -0.050 -0.149
 H         -0.007 -0.018 -0.006    0.000 -0.012  0.011   -0.016  0.160 -0.239
 H          0.009 -0.004  0.007    0.015 -0.006  0.010   -0.253  0.104 -0.139
 O          0.016 -0.018  0.019    0.009 -0.008  0.009    0.002  0.026  0.005
 H         -0.010  0.036 -0.026   -0.014  0.014 -0.029    0.281  0.045  0.483
 H         -0.046  0.024 -0.052   -0.024  0.008 -0.032    0.312  0.065  0.564
 C         -0.107  0.133  0.022   -0.045  0.061  0.005   -0.027  0.059  0.024
 C         -0.025  0.039 -0.080   -0.023  0.025 -0.046    0.012 -0.025  0.007
 H          0.283 -0.094  0.278    0.173 -0.064  0.172   -0.064  0.084  0.017
 H          0.019 -0.341  0.212    0.042 -0.226  0.118   -0.052  0.057 -0.009
 H          0.097 -0.178  0.395    0.074 -0.079  0.242    0.026  0.047 -0.065
 O          0.065 -0.068 -0.031    0.030 -0.031 -0.012    0.025 -0.029 -0.015
 O          0.022 -0.029  0.023   -0.048  0.006 -0.013   -0.009 -0.010  0.002
 O          0.000 -0.010 -0.041    0.010  0.014  0.050    0.002  0.001  0.002
 H         -0.385  0.353  0.376    0.543 -0.459 -0.523    0.031 -0.028 -0.030
 TransDip  -0.367  0.353  0.288    0.044  0.028  0.031   -0.064  0.184  0.121

 Mode:                37                     38                     39
 Frequency:      1413.11                1437.33                1457.97
 Force Cnst:      3.1132                 5.3782                 1.5984
 Red. Mass:       2.6461                 4.4184                 1.2762
 IR Active:          YES                    YES                    YES
 IR Intens:      285.407                408.298                 34.069
 Raman Active:       YES                    YES                    YES
               X      Y      Z        X      Y      Z        X      Y      Z
 C         -0.016  0.001 -0.030   -0.093  0.082 -0.135   -0.021 -0.086 -0.061
 C          0.004 -0.011  0.006    0.208 -0.135  0.317    0.041 -0.011  0.063
 O          0.002  0.001  0.002   -0.078 -0.112 -0.135   -0.014 -0.024 -0.025
 O         -0.001  0.008 -0.002   -0.041  0.200 -0.046   -0.007  0.027 -0.007
 C          0.018  0.037  0.041    0.013 -0.005  0.023    0.026  0.023  0.052
 H         -0.022 -0.101  0.075   -0.135 -0.408  0.392    0.313  0.574 -0.139
 H          0.104 -0.071  0.016    0.498 -0.298  0.019   -0.387  0.471  0.309
 O          0.026 -0.034  0.028    0.006  0.009  0.013   -0.000 -0.003 -0.001
 H         -0.081  0.051 -0.170   -0.042 -0.020 -0.087   -0.100 -0.094 -0.072
 H         -0.136  0.034 -0.181   -0.054 -0.026 -0.089   -0.005 -0.086 -0.156
 C         -0.177  0.218 -0.055    0.022 -0.044 -0.008   -0.006  0.002 -0.006
 C          0.087 -0.127  0.108   -0.009  0.020 -0.003   -0.000  0.001  0.006
 H         -0.393  0.276 -0.164    0.043 -0.087 -0.051   -0.007 -0.035 -0.049
 H         -0.169  0.423 -0.146    0.054 -0.020 -0.020    0.034  0.021 -0.034
 H         -0.007  0.184 -0.453   -0.030 -0.052  0.062   -0.006 -0.017  0.019
 O          0.084 -0.088 -0.029   -0.015  0.017  0.008    0.000  0.000  0.000
 O         -0.015 -0.027  0.013    0.003  0.005 -0.002    0.000  0.000  0.000
 O          0.007  0.004  0.002   -0.001 -0.000  0.000    0.000  0.000  0.000
 H          0.064 -0.049 -0.060   -0.005  0.005  0.004    0.002  0.000 -0.002
 TransDip  -0.346  0.416  0.009    0.361 -0.302  0.444    0.085  0.081  0.145

 Mode:                40                     41                     42
 Frequency:      1465.47                1478.30                1516.28
 Force Cnst:      1.3460                 1.3572                 1.4894
 Red. Mass:       1.0638                 1.0541                 1.0995
 IR Active:          YES                    YES                    YES
 IR Intens:        6.417                  4.003                 13.455
 Raman Active:       YES                    YES                    YES
               X      Y      Z        X      Y      Z        X      Y      Z
 C          0.004  0.003  0.007   -0.003  0.000 -0.005    0.001 -0.009 -0.001
 C         -0.005  0.003 -0.008    0.003 -0.002  0.005    0.007  0.012  0.012
 O          0.002  0.003  0.003   -0.001 -0.002 -0.002   -0.005 -0.007 -0.008
 O          0.001 -0.004  0.001   -0.001  0.003 -0.001   -0.000 -0.002 -0.001
 C         -0.003 -0.002 -0.008    0.003  0.003  0.006    0.014 -0.084  0.003
 H         -0.016 -0.024 -0.003    0.005  0.005  0.008    0.043  0.076 -0.012
 H          0.010 -0.020 -0.020    0.003  0.005  0.009   -0.046  0.061  0.044
 O          0.003 -0.002  0.001   -0.002  0.003 -0.002    0.003 -0.004  0.004
 H          0.020  0.024  0.012   -0.020 -0.033 -0.002    0.255  0.591 -0.282
 H         -0.007  0.022  0.022    0.013 -0.028 -0.025   -0.479  0.473  0.167
 C         -0.027  0.022  0.021   -0.001 -0.030 -0.009    0.004 -0.015 -0.007
 C         -0.039  0.012  0.033   -0.033 -0.038 -0.018   -0.001  0.001 -0.001
 H         -0.150 -0.254 -0.490   -0.257  0.454  0.198   -0.005  0.021  0.016
 H          0.558  0.066 -0.419    0.246 -0.336  0.047    0.003 -0.023  0.015
 H          0.188 -0.011  0.370    0.498  0.506  0.016    0.014  0.021 -0.007
 O          0.010 -0.009 -0.007   -0.004  0.008  0.004   -0.004  0.006  0.004
 O         -0.001 -0.003  0.001    0.003  0.002  0.001    0.001  0.002 -0.000
 O          0.001 -0.000 -0.001   -0.001 -0.000 -0.001   -0.000 -0.000  0.000
 H         -0.002  0.007  0.002   -0.027  0.004  0.024   -0.000 -0.001  0.000
 TransDip  -0.041  0.066 -0.023    0.064  0.001  0.006    0.062  0.077  0.064

 Mode:                43                     44                     45
 Frequency:      1583.46                3049.74                3054.56
 Force Cnst:     15.0347                 5.7887                 5.8337
 Red. Mass:      10.1773                 1.0563                 1.0612
 IR Active:          YES                    YES                    YES
 IR Intens:     1286.371                 65.601                 49.792
 Raman Active:       YES                    YES                    YES
               X      Y      Z        X      Y      Z        X      Y      Z
 C         -0.025 -0.046 -0.044   -0.001  0.010 -0.001   -0.022  0.065 -0.001
 C          0.085  0.735  0.209    0.000 -0.001  0.000    0.001  0.001  0.002
 O         -0.092 -0.202 -0.166   -0.000  0.000 -0.000   -0.000 -0.000 -0.000
 O          0.032 -0.309  0.018    0.000  0.001  0.000   -0.000 -0.000 -0.000
 C         -0.009  0.033 -0.005    0.002 -0.065  0.005    0.001  0.008 -0.004
 H          0.031 -0.158  0.241    0.064 -0.034 -0.029    0.620 -0.350 -0.283
 H          0.274 -0.131  0.171   -0.054 -0.065  0.045   -0.359 -0.424  0.287
 O          0.002 -0.006  0.002    0.002 -0.001  0.003    0.000  0.000  0.000
 H         -0.053 -0.075  0.058   -0.507  0.280  0.243    0.045 -0.024 -0.021
 H          0.086 -0.055 -0.034    0.458  0.509 -0.337   -0.068 -0.078  0.052
 C         -0.004  0.007 -0.001   -0.000 -0.002 -0.002   -0.000  0.000  0.000
 C          0.001 -0.001  0.001    0.001 -0.001  0.003    0.001 -0.001  0.001
 H         -0.002 -0.002 -0.002    0.020  0.015 -0.012    0.016  0.012 -0.010
 H         -0.001  0.007 -0.004   -0.018 -0.023 -0.026   -0.011 -0.013 -0.015
 H         -0.001 -0.003 -0.001   -0.017  0.017  0.012   -0.014  0.013  0.010
 O          0.002 -0.002 -0.001   -0.000  0.001 -0.000    0.000 -0.000  0.000
 O         -0.000 -0.001  0.000   -0.000  0.000 -0.000    0.000 -0.000  0.000
 O          0.000 -0.000 -0.000    0.000  0.000  0.000   -0.000  0.000 -0.000
 H         -0.000  0.001  0.001    0.001 -0.000 -0.000    0.000 -0.000 -0.000
 TransDip   0.148  1.085  0.347    0.082 -0.213  0.124   -0.031  0.223  0.019

 Mode:                46                     47                     48
 Frequency:      3059.45                3081.57                3103.03
 Force Cnst:      5.7097                 6.1682                 6.2699
 Red. Mass:       1.0353                 1.1025                 1.1052
 IR Active:          YES                    YES                    YES
 IR Intens:       21.666                  9.791                 97.435
 Raman Active:       YES                    YES                    YES
               X      Y      Z        X      Y      Z        X      Y      Z
 C          0.000 -0.003  0.000    0.046  0.014 -0.029   -0.061 -0.014  0.038
 C         -0.000  0.000 -0.000    0.001  0.000 -0.000   -0.001 -0.000  0.000
 O          0.000 -0.000  0.000   -0.000 -0.000  0.000    0.000  0.000 -0.000
 O          0.000 -0.000  0.000    0.000 -0.000 -0.000    0.000  0.000  0.000
 C          0.001  0.003 -0.001   -0.064 -0.003  0.037   -0.051 -0.005  0.030
 H         -0.024  0.013  0.011   -0.297  0.180  0.128    0.407 -0.248 -0.183
 H          0.019  0.023 -0.015   -0.269 -0.345  0.226    0.328  0.418 -0.268
 O          0.000 -0.000  0.000   -0.000  0.000 -0.000    0.000  0.000 -0.000
 H          0.017 -0.009 -0.008    0.489 -0.296 -0.236    0.366 -0.222 -0.180
 H         -0.027 -0.030  0.020    0.277  0.333 -0.204    0.236  0.277 -0.169
 C         -0.002  0.002 -0.002   -0.000  0.000  0.000   -0.000  0.000  0.000
 C          0.019 -0.029  0.036    0.001 -0.001  0.000    0.000 -0.000 -0.000
 H          0.419  0.310 -0.253    0.005  0.004 -0.003    0.000  0.000 -0.000
 H         -0.274 -0.328 -0.402   -0.003 -0.004 -0.005   -0.000 -0.000 -0.000
 H         -0.363  0.341  0.254   -0.009  0.008  0.006   -0.005  0.004  0.003
 O          0.000 -0.000 -0.000    0.000 -0.000  0.000    0.000 -0.000  0.000
 O          0.000 -0.000  0.000   -0.000  0.000 -0.000   -0.000  0.000 -0.000
 O          0.000  0.000 -0.000    0.000  0.000 -0.000    0.000 -0.000 -0.000
 H         -0.002  0.000  0.001    0.000 -0.000 -0.000    0.000 -0.000 -0.000
 TransDip   0.055 -0.083  0.111   -0.093  0.023  0.031   -0.272 -0.052  0.153

 Mode:                49                     50                     51
 Frequency:      3137.92                3141.82                3781.62
 Force Cnst:      6.3985                 6.4185                 9.0018
 Red. Mass:       1.1029                 1.1036                 1.0684
 IR Active:          YES                    YES                    YES
 IR Intens:       44.515                 47.220                 71.168
 Raman Active:       YES                    YES                    YES
               X      Y      Z        X      Y      Z        X      Y      Z
 C         -0.000  0.000  0.000   -0.000 -0.000  0.000    0.000 -0.000  0.000
 C          0.000 -0.000  0.000   -0.000  0.000 -0.000   -0.000 -0.000 -0.000
 O         -0.000 -0.000 -0.000    0.000  0.000  0.000    0.000  0.000  0.000
 O          0.000  0.000 -0.000    0.000 -0.000  0.000    0.000 -0.000  0.000
 C         -0.000 -0.000  0.000   -0.001  0.000  0.000   -0.000  0.000 -0.000
 H          0.001 -0.001 -0.000    0.000 -0.000 -0.000   -0.000  0.000  0.000
 H         -0.000 -0.000  0.000    0.001  0.001 -0.001    0.000  0.000 -0.000
 O          0.000  0.000 -0.000    0.000 -0.000 -0.000    0.000  0.000  0.000
 H         -0.001  0.000  0.000    0.008 -0.005 -0.003    0.000 -0.000  0.000
 H          0.003  0.004 -0.003   -0.001 -0.001  0.001   -0.000 -0.000  0.000
 C         -0.002 -0.001  0.001   -0.000  0.002  0.002   -0.001 -0.001  0.000
 C         -0.083 -0.038  0.016   -0.017  0.065  0.065    0.000  0.000  0.000
 H          0.574  0.439 -0.362    0.032  0.038 -0.010    0.000  0.000 -0.001
 H          0.205  0.251  0.326   -0.317 -0.360 -0.452   -0.001 -0.001 -0.001
 H          0.222 -0.230 -0.158    0.490 -0.456 -0.326    0.001 -0.001 -0.001
 O          0.000  0.000 -0.000    0.000 -0.000 -0.000    0.000 -0.000 -0.000
 O          0.000  0.000  0.000   -0.000  0.000 -0.000    0.001  0.000  0.000
 O          0.000 -0.000  0.000    0.000 -0.000  0.000   -0.044  0.006 -0.045
 H          0.002  0.001 -0.002   -0.001  0.001 -0.002    0.693 -0.085  0.713
 TransDip  -0.198 -0.076  0.028   -0.047  0.166  0.136    0.241 -0.037  0.116

 STANDARD THERMODYNAMIC QUANTITIES AT   298.15 K  AND     1.00 ATM

   This Molecule has  0 Imaginary Frequencies
   Zero point vibrational energy:       86.657 kcal/mol

   Atom    1 Element C  Has Mass   12.00000
   Atom    2 Element C  Has Mass   12.00000
   Atom    3 Element O  Has Mass   15.99491
   Atom    4 Element O  Has Mass   15.99491
   Atom    5 Element C  Has Mass   12.00000
   Atom    6 Element H  Has Mass    1.00783
   Atom    7 Element H  Has Mass    1.00783
   Atom    8 Element O  Has Mass   15.99491
   Atom    9 Element H  Has Mass    1.00783
   Atom   10 Element H  Has Mass    1.00783
   Atom   11 Element C  Has Mass   12.00000
   Atom   12 Element C  Has Mass   12.00000
   Atom   13 Element H  Has Mass    1.00783
   Atom   14 Element H  Has Mass    1.00783
   Atom   15 Element H  Has Mass    1.00783
   Atom   16 Element O  Has Mass   15.99491
   Atom   17 Element O  Has Mass   15.99491
   Atom   18 Element O  Has Mass   15.99491
   Atom   19 Element H  Has Mass    1.00783
   Molecular Mass:   164.032100 amu
   Principal axes and moments of inertia in amu*Bohr^2:
                             1           2           3
    Eigenvalues --      787.06690  3809.50494  3901.78872
          X               0.58789     0.80442    -0.08538
          Y               0.14792    -0.00313     0.98899
          Z               0.79530    -0.59405    -0.12083
   Rotational Symmetry Number is   1
   The Molecule is an Asymmetric Top
   Translational Enthalpy:        0.889 kcal/mol
   Rotational Enthalpy:           0.889 kcal/mol
   Vibrational Enthalpy:         92.421 kcal/mol
   gas constant (RT):             0.592 kcal/mol
   Translational Entropy:        41.193  cal/mol.K
   Rotational Entropy:           30.837  cal/mol.K
   Vibrational Entropy:          38.587  cal/mol.K

   Total Enthalpy:               94.791 kcal/mol
   Total Entropy:               110.617  cal/mol.K
Archival summary:
1\1\c4-80\FREQ\ProcedureUnspecified\BasisUnspecified\658(2-,1)\lmgong\SatMar2101:34:182020SatMar2101:34:182020\0\\#,FREQ,ProcedureUnspecified,BasisUnspecified,\\-2,1\O\C,1,1.42029\H,2,1.09539,1,110.375\H,2,1.09634,1,110.092,3,118.628,0\C,1,1.44008,2,115.233,3,-60.2836,0\O,5,1.29489,1,116.154,2,47.4729,0\O,5,1.51573,1,106.223,2,-68.0834,0\O,7,1.4323,5,112.5,1,-53.8774,0\H,8,0.968164,7,102.593,5,-94.1917,0\C,2,1.51719,1,107.976,3,-120.712,0\H,10,1.09604,2,109.865,1,57.6199,0\H,10,1.09684,2,109.901,1,-58.9163,0\C,5,1.53067,1,104.8,2,177.844,0\H,13,1.09291,5,112.454,1,51.6768,0\H,13,1.09328,5,108.998,1,173.212,0\H,13,1.09338,5,108.532,1,-68.4872,0\C,10,1.53639,2,115.011,1,179.575,0\O,17,1.25789,10,118.491,2,5.09926,0\O,17,1.26054,10,116.085,2,-175.236,0\\\@

 Total job time:  48467.47s(wall), 677727.53s(cpu) 
 Sat Mar 21 01:34:18 2020

        *************************************************************
        *                                                           *
        *  Thank you very much for using Q-Chem.  Have a nice day.  *
        *                                                           *
        *************************************************************


