
Running Job 1 of 1 run.in
qchem run.in_110734.0 /scratch/alotsuki/909569/run.d/ 1
/home/leeping/opt/qchem/5.0.2-openmp/exe/qcprog.exe_s run.in_110734.0 /scratch/alotsuki/909569/run.d/
Check license passed

                  Welcome to Q-Chem
     A Quantum Leap Into The Future Of Chemistry


 Q-Chem 5.0, Q-Chem, Inc., Pleasanton, CA (2017)

 Yihan Shao,  Zhengting Gan,  E. Epifanovsky,  A. T. B. Gilbert,  M. Wormit,  
 J. Kussmann,  A. W. Lange,  A. Behn,  Jia Deng,  Xintian Feng,  D. Ghosh,  
 M. Goldey,  P. R. Horn,  L. D. Jacobson,  I. Kaliman,  T. Kus,  A. Landau,  
 Jie Liu,  E. I. Proynov,  R. M. Richard,  R. P. Steele,  E. J. Sundstrom,  
 H. L. Woodcock III,  P. M. Zimmerman,  D. Zuev,  B. Albrecht,  E. Alguire,  
 S. A. Baeppler,  D. Barton,  Z. Benda,  Y. A. Bernard,  E. J. Berquist,  
 K. B. Bravaya,  H. Burton,  D. Casanova,  Chun-Min Chang,  Yunqing Chen,  
 A. Chien,  K. D. Closser,  M. P. Coons,  S. Dasgupta,  A. L. Dempwolff,  
 M. Diedenhofen,  Hainam Do,  R. G. Edgar,  Po-Tung Fang,  S. Fatehi,  
 Qingguo Feng,  J. Fosso-Tande,  Qinghui Ge,  A. Ghysels,  G. Gidofalvi,  
 J. Gomes,  J. Gonthier,  A. Gunina,  M. W. D. Hanson-Heine,  
 P. H. P. Harbach,  A. W. Hauser,  J. E. Herr,  E. G. Hohenstein,  
 Z. C. Holden,  Kerwin Hui,  T.-C. Jagau,  Hyunjun Ji,  B. Kaduk,  
 K. Khistyaev,  Jaehoon Kim,  P. Klunzinger,  K. Koh,  D. Kosenkov,  
 L. Koulias,  T. Kowalczyk,  C. M. Krauter,  A. Kunitsa,  Ka Un Lao,  
 A. Laurent,  K. V. Lawler,  Joonho Lee,  D. Lefrancois,  S. Lehtola,  
 D. S. Levine,  Yi-Pei Li,  You-Sheng Lin,  Fenglai Liu,  E. Livshits,  
 A. Luenser,  P. Manohar,  E. Mansoor,  S. F. Manzer,  Shan-Ping Mao,  
 Yuezhi Mao,  N. Mardirossian,  A. V. Marenich,  T. Markovich,  
 L. A. Martinez-Martinez,  S. A. Maurer,  N. J. Mayhall,  S. C. McKenzie,  
 J.-M. Mewes,  A. F. Morrison,  J. W. Mullinax,  K. Nanda,  
 T. S. Nguyen-Beck,  R. Olivares-Amaya,  J. A. Parkhill,  T. M. Perrine,  
 F. Plasser,  S. Prager,  A. Prociuk,  E. Ramos,  D. R. Rehn,  F. Rob,  
 M. Schneider,  N. Sergueev,  S. M. Sharada,  S. Sharma,  D. W. Small,  
 T. Stauch,  T. Stein,  Yu-Chuan Su,  A. J. W. Thom,  A. Tkatchenko,  
 T. Tsuchimochi,  L. Vogt,  O. Vydrov,  M. A. Watson,  J. Wenzel,  
 M. de Wergifosse,  T. A. Wesolowski,  A. White,  J. Witte,  A. Yamada,  
 Jun Yang,  K. Yao,  S. Yeganeh,  S. R. Yost,  Zhi-Qiang You,  A. Zech,  
 Igor Ying Zhang,  Xing Zhang,  Yan Zhao,  Ying Zhu,  B. R. Brooks,  
 G. K. L. Chan,  C. J. Cramer,  M. S. Gordon,  W. J. Hehre,  A. Klamt,  
 M. W. Schmidt,  C. D. Sherrill,  D. G. Truhlar,  A. Aspuru-Guzik,  R. Baer,  
 A. T. Bell,  N. A. Besley,  Jeng-Da Chai,  R. A. DiStasio Jr.,  A. Dreuw,  
 B. D. Dunietz,  T. R. Furlani,  Chao-Ping Hsu,  Yousung Jung,  Jing Kong,  
 D. S. Lambrecht,  WanZhen Liang,  C. Ochsenfeld,  V. A. Rassolov,  
 L. V. Slipchenko,  J. E. Subotnik,  T. Van Voorhis,  J. M. Herbert,  
 A. I. Krylov,  P. M. W. Gill,  M. Head-Gordon

 Contributors to earlier versions of Q-Chem not listed above: 
 R. D. Adamson,  B. Austin,  J. Baker,  G. J. O. Beran,  K. Brandhorst,  
 S. T. Brown,  E. F. C. Byrd,  A. K. Chakraborty,  C.-L. Cheng,  
 Siu Hung Chien,  D. M. Chipman,  D. L. Crittenden,  H. Dachsel,  
 R. J. Doerksen,  A. D. Dutoi,  L. Fusti-Molnar,  W. A. Goddard III,  
 A. Golubeva-Zadorozhnaya,  S. R. Gwaltney,  G. Hawkins,  A. Heyden,  
 S. Hirata,  G. Kedziora,  F. J. Keil,  C. Kelley,  Jihan Kim,  R. A. King,  
 R. Z. Khaliullin,  P. P. Korambath,  W. Kurlancheek,  A. M. Lee,  M. S. Lee,  
 S. V. Levchenko,  Ching Yeh Lin,  D. Liotard,  R. C. Lochan,  I. Lotan,  
 P. E. Maslen,  N. Nair,  D. P. O'Neill,  D. Neuhauser,  E. Neuscamman,  
 C. M. Oana,  R. Olson,  B. Peters,  R. Peverati,  P. A. Pieniazek,  
 Y. M. Rhee,  J. Ritchie,  M. A. Rohrdanz,  E. Rosta,  N. J. Russ,  
 H. F. Schaefer III,  N. E. Schultz,  N. Shenvi,  A. C. Simmonett,  A. Sodt,  
 D. Stuck,  K. S. Thanthiriwatte,  V. Vanovschi,  Tao Wang,  A. Warshel,  
 C. F. Williams,  Q. Wu,  X. Xu,  W. Zhang

 Please cite Q-Chem as follows:
 Y. Shao et al., Mol. Phys. 113, 184-215 (2015)
 DOI: 10.1080/00268976.2014.952696

 Q-Chem 5.0.2 for Intel X86 EM64T Linux

 Parts of Q-Chem use Armadillo 5.200.1 (Boston Tea Smuggler).
 http://arma.sourceforge.net/

 Q-Chem begins on Mon Mar 12 22:09:37 2018  

Host: 
0

     Scratch files written to /scratch/alotsuki/909569/run.d//
 Dec517 15110_ 26548  26544 5633   
Processing $rem in /home/leeping/opt/qchem/5.0.2-openmp/config/preferences.
 MEM_STATIC 2000
 MEM_TOTAL  8000
 SYMMETRY   OFF
 SYM_IGNORE TRUE 
Symmetry turned off for PCM/SM12/SMD calculation

Checking the input file for inconsistencies... 	...done.

--------------------------------------------------------------
User input:
--------------------------------------------------------------
$molecule
-2 1
C       -2.4062393994    0.7560923394    0.8548581569
C       -0.1747544032    1.0131927503    0.0297716509
C        0.8711391979    0.1937819589   -0.6893982853
H       -0.4537113851    1.9170040470   -0.5218378138
H        0.1811169082    1.2992396570    1.0220264302
H        1.7235761001    0.8915789618   -0.8577608939
O       -1.3804843433    0.2010012624    0.1942735090
C       -3.5786690524   -0.1927719097    0.9471066890
H       -4.3857735097    0.2708648599    1.5160453245
H       -3.9345175629   -0.4461639201   -0.0573857813
H       -3.2706397069   -1.1251181819    1.4316351115
O       -2.3861901232    1.8850629498    1.3170982223
H        0.4927558299   -0.1524185246   -1.6595684250
C        1.4165220987   -0.9957759910    0.1378639476
O        1.6319678701   -2.0757180711   -0.4794531526
O        1.6498639270   -0.7678374305    1.3615688539
O        3.2274925856    2.3274474575   -0.5258744060
H        3.1036848033    1.8202784688    0.2958444745
$end

$rem
jobtype               force
method                b3lyp
basis                 6-31g*
symmetry              off
sym_ignore            true
incdft                false
incfock               0
!scf_algorithm        diis_gdm
scf_convergence       8
thresh                14
!purecart             112
max_scf_cycles        1000
geom_opt_max_cycles   500
geom_opt_dmax         100
geom_opt_tol_gradient 10
solvent_method        pcm
ideriv                1
rpath_tol_displacement 1000
rpath_max_cycles      50
rpath_direction       1
!scf_guess            read
scf_guess             read
geom_opt_hessian      read
$end

$pcm
theory              cosmo
method              iswig
Radii               bondi
vdwScale            1.20
hpoints             110
heavypoints         110
$end

$solvent
dielectric 78.400000
$end

--------------------------------------------------------------
 ----------------------------------------------------------------
             Standard Nuclear Orientation (Angstroms)
    I     Atom           X                Y                Z
 ----------------------------------------------------------------
    1      C      -2.4062393994     0.7560923394     0.8548581569
    2      C      -0.1747544032     1.0131927503     0.0297716509
    3      C       0.8711391979     0.1937819589    -0.6893982853
    4      H      -0.4537113851     1.9170040470    -0.5218378138
    5      H       0.1811169082     1.2992396570     1.0220264302
    6      H       1.7235761001     0.8915789618    -0.8577608939
    7      O      -1.3804843433     0.2010012624     0.1942735090
    8      C      -3.5786690524    -0.1927719097     0.9471066890
    9      H      -4.3857735097     0.2708648599     1.5160453245
   10      H      -3.9345175629    -0.4461639201    -0.0573857813
   11      H      -3.2706397069    -1.1251181819     1.4316351115
   12      O      -2.3861901232     1.8850629498     1.3170982223
   13      H       0.4927558299    -0.1524185246    -1.6595684250
   14      C       1.4165220987    -0.9957759910     0.1378639476
   15      O       1.6319678701    -2.0757180711    -0.4794531526
   16      O       1.6498639270    -0.7678374305     1.3615688539
   17      O       3.2274925856     2.3274474575    -0.5258744060
   18      H       3.1036848033     1.8202784688     0.2958444745
 ----------------------------------------------------------------
 Nuclear Repulsion Energy =   517.2646902371 hartrees
 There are       40 alpha and       40 beta electrons
 Requested basis set is 6-31G(d)
 There are 56 shells and 166 basis functions

 Total QAlloc Memory Limit   8000 MB
 Mega-Array Size      1956 MB
 MEM_STATIC part      2000 MB
 Discretize the solute cavity surface with Lebedev spheres
	Using 110 Lebedev grid points for each H atom
	Using 110 Lebedev grid points for other atoms
	Atomic van der Waals radii will be scaled by 1.20
 Remove points where switching function is < 1.0e-08
 Keep 1139 surface tesserae and discard 841 interior tesserae
 Molecular Surface Area = 209.983 Angst**2
 A cutoff of  1.0D-14 yielded   1352 shell pairs
 There are     12373 function pairs
 
 -------------------------------------------------------
 OpenMP Integral Computing Module                       
 Release: version 1.0, May 2013, Q-Chem Inc. Pittsburgh 
 -------------------------------------------------------
 Integral Job Info:
 Integral job number is                      11
 Integral operator is                         1
 short-range coefficients                     0
 long-range coefficients              100000000
 Omega coefficients                           0
 if combine SR and LR in K                    0
 Integral screening is                        0
 Integral computing path is                   2
 max size of driver memory is            800000
 size of driver memory is                593474
 size of scratch memory is              2361544
 max col of scratch BK array               1296
 max len of scratch array in speh3          155
 max len of scratch index in speh4           18
 max int batch size is                      520
 min int batch size is                       52
 fixed nKL is                                52
 max L of basis functions is                  2
 order of int derivative is                   0
 number of shells is                         56
 number of basis is                         166
 number of cartesian basis is               166
 number of contracted shell pairs          1352
 number of primitive shell pairs           5134
 maxK2 (contraction) of shell pair           36
 max number of K2 of shell pair               1
 max number of CS2 of shell pair            156
 max number of PS2 of shell pair            720
 mem total for path MDJ                  538428
 -------------------------------------------------------
 Smallest overlap matrix eigenvalue = 3.30E-03

 Scale SEOQF with 1.000000e-01/1.000000e-01/1.000000e-01

 Standard Electronic Orientation quadrupole field applied
 Nucleus-field energy     =     0.0000000173 hartrees
 Guess MOs from SCF MO coefficient file
 Reading MOs from coefficient file
 Reading MOs from coefficient file
 A restricted hybrid HF-DFT SCF calculation will be
 performed using Pulay DIIS extrapolation
 Polarizable Continuum solvation model will be applied
 Exchange:     0.2000 Hartree-Fock + 0.0800 Slater + 0.7200 B88
 Correlation:  0.1900 VWN1RPA + 0.8100 LYP
 Using SG-1 standard quadrature grid
 SCF converges when DIIS error is below 1.0E-08
Using Q-Chem read-in guess as SCF_GUESS READ specified.

 using 4 threads for integral computing
 -------------------------------------------------------
 OpenMP Integral computing Module                
 Release: version 1.0, May 2013, Q-Chem Inc. Pittsburgh 
 -------------------------------------------------------
 -------------------------------------------------------
 OpenMP BLAS3 based DFT computing Module                
 Release: version 1.0, May 2013, Q-Chem Inc. Pittsburgh 
 -------------------------------------------------------
 ---------------------------------------
  Cycle       Energy         DIIS Error
 ---------------------------------------
    1    -571.3352409048      1.06E-03
    2    -570.3922091441      1.26E-02
    3    -571.6708336572      1.31E-03
    4    -571.6799897926      5.96E-04
    5    -571.6813082705      4.54E-04
    6    -571.6822433735      3.22E-04
    7    -571.6828403042      2.02E-04
    8    -571.6830814648      1.28E-04
    9    -571.6831313390      1.07E-04
   10    -571.6831543853      9.63E-05
   11    -571.6831655070      9.06E-05
   12    -571.6832046491      6.68E-05
   13    -571.6832409869      3.12E-05
   14    -571.6832508845      4.55E-06
   15    -571.6832510830      1.21E-06
   16    -571.6832510971      2.73E-07
   17    -571.6832510979      1.32E-08
   18    -571.6832510979      1.16E-09 Convergence criterion met
 ---------------------------------------

************** Final PCM Free Energy Summary **************
 G_electrostatic  =      -0.34800495 hartree =    -218.37640385 kcal/mol
 G_cavitation     =       0.00000000 hartree =       0.00000000 kcal/mol
 G_dispersion     =       0.00000000 hartree =       0.00000000 kcal/mol
 G_repulsion      =       0.00000000 hartree =       0.00000000 kcal/mol
 --------------------------------------------------
 Non-electrostatic Free Energy =       0.00000000 hartree =       0.00000000 kcal/mol
 Total                         =      -0.34800495 hartree =    -218.37640385 kcal/mol
 --------------------------------------------------
 SCF Energy (H0 + V/2)                       =    -571.68325110 
 Solute Internal Energy (H0)                 =    -571.33524615 
 Total Free Energy (H0 + V/2 + non-elec)     =    -571.68325110 hartree
                                             = -358736.65447600 kcal/mol
***********************************************************

 SCF time:  CPU 65.89 s  wall 17.13 s
 SCF   energy in the final basis set = -571.68325110
 Total energy in the final basis set = -571.68325110
 
 --------------------------------------------------------------
 
                    Orbital Energies (a.u.)
 --------------------------------------------------------------
 
 Alpha MOs
 -- Occupied --
-19.178 -19.129 -19.045 -19.044 -18.957 -10.310 -10.231 -10.219
-10.184 -10.139  -1.088  -1.002  -0.974  -0.886  -0.775  -0.764
 -0.720  -0.619  -0.551  -0.484  -0.481  -0.464  -0.446  -0.420
 -0.404  -0.387  -0.380  -0.375  -0.355  -0.347  -0.324  -0.313
 -0.291  -0.279  -0.266  -0.209  -0.196  -0.189  -0.132  -0.131
 -- Virtual --
  0.019   0.098   0.122   0.134   0.148   0.164   0.171   0.188
  0.193   0.217   0.238   0.260   0.286   0.296   0.309   0.359
  0.374   0.440   0.529   0.534   0.561   0.576   0.596   0.616
  0.629   0.644   0.654   0.669   0.682   0.699   0.724   0.763
  0.795   0.816   0.852   0.857   0.873   0.891   0.897   0.911
  0.917   0.939   0.951   0.956   0.965   0.981   0.999   1.013
  1.026   1.043   1.071   1.089   1.105   1.112   1.146   1.187
  1.200   1.213   1.291   1.373   1.379   1.393   1.420   1.461
  1.501   1.515   1.562   1.640   1.675   1.704   1.723   1.752
  1.801   1.806   1.818   1.855   1.860   1.880   1.898   1.905
  1.916   1.926   1.933   1.963   1.975   1.979   2.005   2.022
  2.035   2.054   2.091   2.112   2.164   2.181   2.192   2.240
  2.277   2.344   2.379   2.401   2.471   2.487   2.562   2.601
  2.628   2.653   2.681   2.756   2.772   2.864   2.936   2.950
  3.005   3.033   3.140   3.165   3.635   3.895   3.987   4.089
  4.161   4.213   4.291   4.413   4.471   4.603
 --------------------------------------------------------------
 
          Ground-State Mulliken Net Atomic Charges

     Atom                 Charge (a.u.)
  ----------------------------------------
      1 C                     0.613589
      2 C                    -0.036184
      3 C                    -0.404507
      4 H                     0.141763
      5 H                     0.142980
      6 H                     0.137553
      7 O                    -0.461790
      8 C                    -0.536426
      9 H                     0.180718
     10 H                     0.196194
     11 H                     0.195227
     12 O                    -0.536441
     13 H                     0.098421
     14 C                     0.508528
     15 O                    -0.690903
     16 O                    -0.685542
     17 O                    -1.119388
     18 H                     0.256209
  ----------------------------------------
  Sum of atomic charges =    -2.000000

 -----------------------------------------------------------------
                    Cartesian Multipole Moments
 -----------------------------------------------------------------
    Charge (ESU x 10^10)
                -9.6064
    Dipole Moment (Debye)
         X     -21.2054      Y      -5.5710      Z      -0.3126
       Tot      21.9272
    Quadrupole Moments (Debye-Ang)
        XX    -118.5291     XY     -13.7423     YY    -107.6348
        XZ       8.6952     YZ       1.7093     ZZ     -71.2935
    Octopole Moments (Debye-Ang^2)
       XXX    -183.1825    XXY    -127.8531    XYY     -89.1169
       YYY    -100.1923    XXZ       5.0844    XYZ      35.7446
       YYZ      -6.8809    XZZ     -10.9816    YZZ     -21.0793
       ZZZ     -60.1403
    Hexadecapole Moments (Debye-Ang^3)
      XXXX   -2265.6236   XXXY    -263.4917   XXYY    -774.2352
      XYYY     -88.9822   YYYY    -943.5993   XXXZ     274.4803
      XXYZ      39.2273   XYYZ     142.9474   YYYZ     -19.4264
      XXZZ    -391.8989   XYZZ      28.1511   YYZZ    -194.4219
      XZZZ     174.7677   YZZZ     -19.5073   ZZZZ    -321.2567
 -----------------------------------------------------------------
 Calculating analytic gradient of the SCF energy
 Gradient of SCF Energy
            1           2           3           4           5           6
    1   0.0053527   0.0215870   0.0119559   0.0065697  -0.0199570  -0.0146048
    2   0.0669182   0.0643752  -0.0068198  -0.0420016  -0.0181711  -0.0041231
    3   0.0222070   0.0261026  -0.0399574   0.0236175  -0.0492425  -0.0023867
            7           8           9          10          11          12
    1  -0.0216302  -0.0010289   0.0201450   0.0081565  -0.0125467   0.0114692
    2   0.0078616  -0.0113225  -0.0139101   0.0069656   0.0292018  -0.0946793
    3   0.0183578   0.0001651  -0.0157505   0.0293298  -0.0152016  -0.0418033
           13          14          15          16          17          18
    1   0.0128810   0.0337618  -0.0184030  -0.0256079  -0.0329789   0.0148787
    2   0.0156209  -0.0944481   0.1200204  -0.0006486  -0.0502747   0.0254353
    3   0.0416400   0.0520310   0.0598704  -0.1189219   0.0255304  -0.0155875
 Max gradient component =       1.200E-01
 RMS gradient           =       3.994E-02
 Computing fast CPCM-ISWIG gradient
 Updating gradient with PCM contributions...
 -- total gradient after adding PCM contribution --
---------------------------------------------------
  Atom         X              Y              Z     
---------------------------------------------------
   1       0.000011       0.000001      -0.000003
   2       0.000023       0.000012      -0.000000
   3      -0.000003       0.000003      -0.000002
   4      -0.000004      -0.000003      -0.000001
   5      -0.000003      -0.000001      -0.000001
   6      -0.000001       0.000002       0.000000
   7      -0.000018      -0.000007       0.000003
   8      -0.000002      -0.000005      -0.000003
   9      -0.000000       0.000001       0.000002
  10      -0.000001       0.000002       0.000001
  11      -0.000000       0.000001       0.000002
  12      -0.000001      -0.000001      -0.000000
  13       0.000001      -0.000003       0.000001
  14      -0.000001      -0.000012      -0.000001
  15       0.000001       0.000007       0.000001
  16       0.000002       0.000001       0.000002
  17      -0.000004       0.000008      -0.000004
  18       0.000002      -0.000005       0.000006
---------------------------------------------------
 Number of fixed atoms: 0
 Gradient time:  CPU 9.67 s  wall 3.00 s
Archival summary:
1\1\c5-66\JobtypUnspecified\ProcedureUnspecified\6-31G*\558(2-,1)\alotsuki\MonMar1222:09:572018MonMar1222:09:572018\0\\#,JobtypUnspecified,ProcedureUnspecified,6-31G*,\\-2,1\O\C,1,1.3404\O,2,1.2201,1,123.871\C,1,1.46304,2,117.141,3,0.0535491,0\H,4,1.09226,1,108.165,2,57.9221,0\H,4,1.09497,1,107.753,2,-59.6985,0\C,4,1.51081,1,108.842,2,177.92,0\H,7,1.09739,4,110.686,1,57.6346,0\H,7,1.11441,4,105.18,1,175.371,0\C,2,1.51111,1,111.333,3,179.903,0\H,10,1.0909,2,109.816,1,178.178,0\H,10,1.09495,2,110.086,1,57.1332,0\H,10,1.09537,2,109.958,1,-61.0872,0\C,7,1.54818,4,113.969,1,-67.7462,0\O,14,1.26245,7,117.137,4,140.734,0\O,14,1.26644,7,116.291,4,-41.8801,0\H,9,2.02435,7,136.274,4,69.1582,0\O,17,0.973535,9,81.0657,7,-166.239,0\\\@

 Total job time:  20.50s(wall), 76.95s(cpu) 
 Mon Mar 12 22:09:57 2018

        *************************************************************
        *                                                           *
        *  Thank you very much for using Q-Chem.  Have a nice day.  *
        *                                                           *
        *************************************************************


