
Running Job 1 of 1 qc-3-tshess.in
qchem qc-3-tshess.in_96389.0 /scratch/alotsuki/909569/qc-3-tshess.d/ 1
/home/leeping/opt/qchem/5.0.2-openmp/exe/qcprog.exe_s qc-3-tshess.in_96389.0 /scratch/alotsuki/909569/qc-3-tshess.d/
Check license passed

                  Welcome to Q-Chem
     A Quantum Leap Into The Future Of Chemistry


 Q-Chem 5.0, Q-Chem, Inc., Pleasanton, CA (2017)

 Yihan Shao,  Zhengting Gan,  E. Epifanovsky,  A. T. B. Gilbert,  M. Wormit,  
 J. Kussmann,  A. W. Lange,  A. Behn,  Jia Deng,  Xintian Feng,  D. Ghosh,  
 M. Goldey,  P. R. Horn,  L. D. Jacobson,  I. Kaliman,  T. Kus,  A. Landau,  
 Jie Liu,  E. I. Proynov,  R. M. Richard,  R. P. Steele,  E. J. Sundstrom,  
 H. L. Woodcock III,  P. M. Zimmerman,  D. Zuev,  B. Albrecht,  E. Alguire,  
 S. A. Baeppler,  D. Barton,  Z. Benda,  Y. A. Bernard,  E. J. Berquist,  
 K. B. Bravaya,  H. Burton,  D. Casanova,  Chun-Min Chang,  Yunqing Chen,  
 A. Chien,  K. D. Closser,  M. P. Coons,  S. Dasgupta,  A. L. Dempwolff,  
 M. Diedenhofen,  Hainam Do,  R. G. Edgar,  Po-Tung Fang,  S. Fatehi,  
 Qingguo Feng,  J. Fosso-Tande,  Qinghui Ge,  A. Ghysels,  G. Gidofalvi,  
 J. Gomes,  J. Gonthier,  A. Gunina,  M. W. D. Hanson-Heine,  
 P. H. P. Harbach,  A. W. Hauser,  J. E. Herr,  E. G. Hohenstein,  
 Z. C. Holden,  Kerwin Hui,  T.-C. Jagau,  Hyunjun Ji,  B. Kaduk,  
 K. Khistyaev,  Jaehoon Kim,  P. Klunzinger,  K. Koh,  D. Kosenkov,  
 L. Koulias,  T. Kowalczyk,  C. M. Krauter,  A. Kunitsa,  Ka Un Lao,  
 A. Laurent,  K. V. Lawler,  Joonho Lee,  D. Lefrancois,  S. Lehtola,  
 D. S. Levine,  Yi-Pei Li,  You-Sheng Lin,  Fenglai Liu,  E. Livshits,  
 A. Luenser,  P. Manohar,  E. Mansoor,  S. F. Manzer,  Shan-Ping Mao,  
 Yuezhi Mao,  N. Mardirossian,  A. V. Marenich,  T. Markovich,  
 L. A. Martinez-Martinez,  S. A. Maurer,  N. J. Mayhall,  S. C. McKenzie,  
 J.-M. Mewes,  A. F. Morrison,  J. W. Mullinax,  K. Nanda,  
 T. S. Nguyen-Beck,  R. Olivares-Amaya,  J. A. Parkhill,  T. M. Perrine,  
 F. Plasser,  S. Prager,  A. Prociuk,  E. Ramos,  D. R. Rehn,  F. Rob,  
 M. Schneider,  N. Sergueev,  S. M. Sharada,  S. Sharma,  D. W. Small,  
 T. Stauch,  T. Stein,  Yu-Chuan Su,  A. J. W. Thom,  A. Tkatchenko,  
 T. Tsuchimochi,  L. Vogt,  O. Vydrov,  M. A. Watson,  J. Wenzel,  
 M. de Wergifosse,  T. A. Wesolowski,  A. White,  J. Witte,  A. Yamada,  
 Jun Yang,  K. Yao,  S. Yeganeh,  S. R. Yost,  Zhi-Qiang You,  A. Zech,  
 Igor Ying Zhang,  Xing Zhang,  Yan Zhao,  Ying Zhu,  B. R. Brooks,  
 G. K. L. Chan,  C. J. Cramer,  M. S. Gordon,  W. J. Hehre,  A. Klamt,  
 M. W. Schmidt,  C. D. Sherrill,  D. G. Truhlar,  A. Aspuru-Guzik,  R. Baer,  
 A. T. Bell,  N. A. Besley,  Jeng-Da Chai,  R. A. DiStasio Jr.,  A. Dreuw,  
 B. D. Dunietz,  T. R. Furlani,  Chao-Ping Hsu,  Yousung Jung,  Jing Kong,  
 D. S. Lambrecht,  WanZhen Liang,  C. Ochsenfeld,  V. A. Rassolov,  
 L. V. Slipchenko,  J. E. Subotnik,  T. Van Voorhis,  J. M. Herbert,  
 A. I. Krylov,  P. M. W. Gill,  M. Head-Gordon

 Contributors to earlier versions of Q-Chem not listed above: 
 R. D. Adamson,  B. Austin,  J. Baker,  G. J. O. Beran,  K. Brandhorst,  
 S. T. Brown,  E. F. C. Byrd,  A. K. Chakraborty,  C.-L. Cheng,  
 Siu Hung Chien,  D. M. Chipman,  D. L. Crittenden,  H. Dachsel,  
 R. J. Doerksen,  A. D. Dutoi,  L. Fusti-Molnar,  W. A. Goddard III,  
 A. Golubeva-Zadorozhnaya,  S. R. Gwaltney,  G. Hawkins,  A. Heyden,  
 S. Hirata,  G. Kedziora,  F. J. Keil,  C. Kelley,  Jihan Kim,  R. A. King,  
 R. Z. Khaliullin,  P. P. Korambath,  W. Kurlancheek,  A. M. Lee,  M. S. Lee,  
 S. V. Levchenko,  Ching Yeh Lin,  D. Liotard,  R. C. Lochan,  I. Lotan,  
 P. E. Maslen,  N. Nair,  D. P. O'Neill,  D. Neuhauser,  E. Neuscamman,  
 C. M. Oana,  R. Olson,  B. Peters,  R. Peverati,  P. A. Pieniazek,  
 Y. M. Rhee,  J. Ritchie,  M. A. Rohrdanz,  E. Rosta,  N. J. Russ,  
 H. F. Schaefer III,  N. E. Schultz,  N. Shenvi,  A. C. Simmonett,  A. Sodt,  
 D. Stuck,  K. S. Thanthiriwatte,  V. Vanovschi,  Tao Wang,  A. Warshel,  
 C. F. Williams,  Q. Wu,  X. Xu,  W. Zhang

 Please cite Q-Chem as follows:
 Y. Shao et al., Mol. Phys. 113, 184-215 (2015)
 DOI: 10.1080/00268976.2014.952696

 Q-Chem 5.0.2 for Intel X86 EM64T Linux

 Parts of Q-Chem use Armadillo 5.200.1 (Boston Tea Smuggler).
 http://arma.sourceforge.net/

 Q-Chem begins on Mon Mar 12 17:12:35 2018  

Host: 
0

     Scratch files written to /scratch/alotsuki/909569/qc-3-tshess.d//
 Dec517 15110_ 26548  26544 5633   
Processing $rem in /home/leeping/opt/qchem/5.0.2-openmp/config/preferences.
 MEM_STATIC 2000
 MEM_TOTAL  8000
 SYMMETRY   OFF
 SYM_IGNORE TRUE 
Symmetry turned off for PCM/SM12/SMD calculation

Checking the input file for inconsistencies... 	...done.

--------------------------------------------------------------
User input:
--------------------------------------------------------------
$molecule
-2 1
C       -2.4342025585    0.2284444545   -0.0067350295
C       -0.0437093700    0.7012369894   -0.0993299956
C        1.2319802862    0.1114135175   -0.5586662522
H       -0.2910372667    1.6522727181   -0.5834539751
H       -0.0464520052    0.8374068760    0.9845096004
H        2.1166857935    1.2033287645   -0.3791164975
O       -1.2357407245   -0.1980134515   -0.3916006888
C       -3.5249366100   -0.7685564487   -0.3466831832
H       -4.5046691301   -0.3293966084   -0.1495842161
H       -3.4558135589   -1.0714220375   -1.3961152258
H       -3.4046847583   -1.6703483545    0.2646980480
O       -2.6443354804    1.2914358109    0.5657910597
H        1.2410610291   -0.0822606514   -1.6416069896
C        1.7615165796   -1.0570597867    0.2264962562
O        2.5325418014   -1.8782785506   -0.3742441254
O        1.4746246569   -1.1272180454    1.4709097898
O        2.8278048677    2.2225073324   -0.2167253243
H        2.9463204481    2.1925854713    0.7474417490
$end

$rem
jobtype               freq
method                b3lyp
basis                 6-31g*
symmetry              off
sym_ignore            true
incdft                false
incfock               0
!scf_algorithm        diis_gdm
scf_convergence       8
thresh                14
!purecart             112
max_scf_cycles        1000
geom_opt_max_cycles   500
geom_opt_dmax         100
geom_opt_tol_gradient 10
solvent_method        pcm
ideriv                1
rpath_tol_displacement 1000
rpath_max_cycles      100
rpath_direction       1
!scf_guess            read
scf_guess             read
$end

$pcm
theory              cosmo
method              iswig
Radii               bondi
vdwScale            1.20
hpoints             110
heavypoints         110
$end

$solvent
dielectric 78.400000
$end

--------------------------------------------------------------
 ----------------------------------------------------------------
             Standard Nuclear Orientation (Angstroms)
    I     Atom           X                Y                Z
 ----------------------------------------------------------------
    1      C      -2.4342025585     0.2284444545    -0.0067350295
    2      C      -0.0437093700     0.7012369894    -0.0993299956
    3      C       1.2319802862     0.1114135175    -0.5586662522
    4      H      -0.2910372667     1.6522727181    -0.5834539751
    5      H      -0.0464520052     0.8374068760     0.9845096004
    6      H       2.1166857935     1.2033287645    -0.3791164975
    7      O      -1.2357407245    -0.1980134515    -0.3916006888
    8      C      -3.5249366100    -0.7685564487    -0.3466831832
    9      H      -4.5046691301    -0.3293966084    -0.1495842161
   10      H      -3.4558135589    -1.0714220375    -1.3961152258
   11      H      -3.4046847583    -1.6703483545     0.2646980480
   12      O      -2.6443354804     1.2914358109     0.5657910597
   13      H       1.2410610291    -0.0822606514    -1.6416069896
   14      C       1.7615165796    -1.0570597867     0.2264962562
   15      O       2.5325418014    -1.8782785506    -0.3742441254
   16      O       1.4746246569    -1.1272180454     1.4709097898
   17      O       2.8278048677     2.2225073324    -0.2167253243
   18      H       2.9463204481     2.1925854713     0.7474417490
 ----------------------------------------------------------------
 Nuclear Repulsion Energy =   519.1853603733 hartrees
 There are       40 alpha and       40 beta electrons
 Requested basis set is 6-31G(d)
 There are 56 shells and 166 basis functions

 Total QAlloc Memory Limit   8000 MB
 Mega-Array Size      1956 MB
 MEM_STATIC part      2000 MB
 Discretize the solute cavity surface with Lebedev spheres
	Using 110 Lebedev grid points for each H atom
	Using 110 Lebedev grid points for other atoms
	Atomic van der Waals radii will be scaled by 1.20
 Remove points where switching function is < 1.0e-08
 Keep 1112 surface tesserae and discard 868 interior tesserae
 Molecular Surface Area = 202.693 Angst**2
 A cutoff of  1.0D-14 yielded   1350 shell pairs
 There are     12344 function pairs
 
 -------------------------------------------------------
 OpenMP Integral Computing Module                       
 Release: version 1.0, May 2013, Q-Chem Inc. Pittsburgh 
 -------------------------------------------------------
 Integral Job Info:
 Integral job number is                      11
 Integral operator is                         1
 short-range coefficients                     0
 long-range coefficients              100000000
 Omega coefficients                           0
 if combine SR and LR in K                    0
 Integral screening is                        0
 Integral computing path is                   2
 max size of driver memory is            800000
 size of driver memory is                593474
 size of scratch memory is              2361544
 max col of scratch BK array               1296
 max len of scratch array in speh3          155
 max len of scratch index in speh4           18
 max int batch size is                      520
 min int batch size is                       52
 fixed nKL is                                52
 max L of basis functions is                  2
 order of int derivative is                   0
 number of shells is                         56
 number of basis is                         166
 number of cartesian basis is               166
 number of contracted shell pairs          1350
 number of primitive shell pairs           5180
 maxK2 (contraction) of shell pair           36
 max number of K2 of shell pair               1
 max number of CS2 of shell pair            156
 max number of PS2 of shell pair            744
 mem total for path MDJ                  540924
 -------------------------------------------------------
 Smallest overlap matrix eigenvalue = 3.22E-03
 Guess MOs from SCF MO coefficient file
 Reading MOs from coefficient file
 Reading MOs from coefficient file
 A restricted hybrid HF-DFT SCF calculation will be
 performed using Pulay DIIS extrapolation
 Polarizable Continuum solvation model will be applied
 Exchange:     0.2000 Hartree-Fock + 0.0800 Slater + 0.7200 B88
 Correlation:  0.1900 VWN1RPA + 0.8100 LYP
 Using SG-1 standard quadrature grid
 SCF converges when DIIS error is below 1.0E-08
Using Q-Chem read-in guess as SCF_GUESS READ specified.

 using 4 threads for integral computing
 -------------------------------------------------------
 OpenMP Integral computing Module                
 Release: version 1.0, May 2013, Q-Chem Inc. Pittsburgh 
 -------------------------------------------------------
 -------------------------------------------------------
 OpenMP BLAS3 based DFT computing Module                
 Release: version 1.0, May 2013, Q-Chem Inc. Pittsburgh 
 -------------------------------------------------------
 ---------------------------------------
  Cycle       Energy         DIIS Error
 ---------------------------------------
    1    -571.3350224766      1.02E-03
    2    -571.6583317810      1.33E-03
    3    -571.6688757173      5.82E-04
    4    -571.6703731144      4.27E-04
    5    -571.6711009900      3.36E-04
    6    -571.6715826828      2.63E-04
    7    -571.6718667098      2.08E-04
    8    -571.6720807341      1.54E-04
    9    -571.6721921024      1.17E-04
   10    -571.6722558535      8.84E-05
   11    -571.6722831404      7.29E-05
   12    -571.6723066611      5.63E-05
   13    -571.6723234869      4.03E-05
   14    -571.6723310788      3.04E-05
   15    -571.6723360729      2.16E-05
   16    -571.6723386883      1.51E-05
   17    -571.6723411811      9.21E-09 Convergence criterion met
 ---------------------------------------

************** Final PCM Free Energy Summary **************
 G_electrostatic  =      -0.33731870 hartree =    -211.67067845 kcal/mol
 G_cavitation     =       0.00000000 hartree =       0.00000000 kcal/mol
 G_dispersion     =       0.00000000 hartree =       0.00000000 kcal/mol
 G_repulsion      =       0.00000000 hartree =       0.00000000 kcal/mol
 --------------------------------------------------
 Non-electrostatic Free Energy =       0.00000000 hartree =       0.00000000 kcal/mol
 Total                         =      -0.33731870 hartree =    -211.67067845 kcal/mol
 --------------------------------------------------
 SCF Energy (H0 + V/2)                       =    -571.67234118 
 Solute Internal Energy (H0)                 =    -571.33502248 
 Total Free Energy (H0 + V/2 + non-elec)     =    -571.67234118 hartree
                                             = -358729.80839986 kcal/mol
***********************************************************

 SCF time:  CPU 68.71 s  wall 18.04 s
 SCF   energy in the final basis set = -571.67234118
 Total energy in the final basis set = -571.67234118
 
 --------------------------------------------------------------
 
                    Orbital Energies (a.u.)
 --------------------------------------------------------------
 
 Alpha MOs
 -- Occupied --
-19.158 -19.116 -19.024 -19.020 -19.018 -10.298 -10.205 -10.200
-10.178 -10.092  -1.068  -0.983  -0.946  -0.858  -0.855  -0.745
 -0.701  -0.588  -0.530  -0.469  -0.464  -0.449  -0.431  -0.404
 -0.396  -0.379  -0.364  -0.362  -0.337  -0.333  -0.322  -0.302
 -0.288  -0.277  -0.256  -0.196  -0.186  -0.180  -0.165  -0.138
 -- Virtual --
  0.031   0.118   0.126   0.139   0.151   0.170   0.176   0.185
  0.198   0.220   0.246   0.304   0.317   0.336   0.341   0.375
  0.400   0.452   0.539   0.544   0.572   0.596   0.612   0.622
  0.650   0.658   0.662   0.690   0.706   0.708   0.720   0.746
  0.815   0.827   0.857   0.867   0.892   0.900   0.906   0.912
  0.921   0.935   0.954   0.961   0.967   0.993   1.000   1.015
  1.040   1.061   1.084   1.111   1.132   1.134   1.159   1.186
  1.204   1.220   1.303   1.399   1.409   1.442   1.461   1.494
  1.524   1.533   1.580   1.667   1.701   1.726   1.742   1.765
  1.813   1.816   1.844   1.850   1.853   1.855   1.877   1.881
  1.908   1.918   1.929   1.954   1.962   1.981   2.003   2.037
  2.076   2.094   2.109   2.131   2.174   2.200   2.219   2.272
  2.331   2.364   2.405   2.424   2.484   2.567   2.584   2.617
  2.655   2.669   2.689   2.755   2.793   2.885   2.942   2.972
  3.037   3.063   3.146   3.188   3.767   3.947   3.984   4.101
  4.160   4.275   4.283   4.432   4.479   4.664
 --------------------------------------------------------------
 
          Ground-State Mulliken Net Atomic Charges

     Atom                 Charge (a.u.)
  ----------------------------------------
      1 C                     0.606291
      2 C                    -0.023580
      3 C                    -0.477889
      4 H                     0.112333
      5 H                     0.117349
      6 H                     0.300384
      7 O                    -0.478624
      8 C                    -0.535533
      9 H                     0.172446
     10 H                     0.184312
     11 H                     0.190774
     12 O                    -0.558563
     13 H                     0.033866
     14 C                     0.502609
     15 O                    -0.745905
     16 O                    -0.735019
     17 O                    -0.980023
     18 H                     0.314773
  ----------------------------------------
  Sum of atomic charges =    -2.000000

 -----------------------------------------------------------------
                    Cartesian Multipole Moments
 -----------------------------------------------------------------
    Charge (ESU x 10^10)
                -9.6064
    Dipole Moment (Debye)
         X     -16.9603      Y       0.2620      Z      -1.6273
       Tot      17.0402
    Quadrupole Moments (Debye-Ang)
        XX    -112.1570     XY      10.4400     YY     -94.9306
        XZ       7.1488     YZ       4.8894     ZZ     -69.9271
    Octopole Moments (Debye-Ang^2)
       XXX    -128.5337    XXY     -28.6655    XYY     -71.8208
       YYY     -15.2931    XXZ       6.9254    XYZ      20.5631
       YYZ       5.8796    XZZ     -13.6998    YZZ      10.8410
       ZZZ     -11.6677
    Hexadecapole Moments (Debye-Ang^3)
      XXXX   -2225.7579   XXXY      39.6610   XXYY    -652.0620
      XYYY     -11.0190   YYYY    -745.4165   XXXZ      83.8954
      XXYZ      23.4679   XYYZ      35.1774   YYYZ      27.1954
      XXZZ    -368.8144   XYZZ      27.7432   YYZZ    -143.6931
      XZZZ     -23.8840   YZZZ      25.2781   ZZZZ    -219.8232
 -----------------------------------------------------------------
 Calculating analytic gradient of the SCF energy
 Gradient of SCF Energy
            1           2           3           4           5           6
    1  -0.0031070   0.0184970  -0.0000592   0.0060210  -0.0006785  -0.0057999
    2   0.0665025   0.0633411  -0.0334879  -0.0442592  -0.0111164  -0.0159596
    3   0.0279187   0.0384536  -0.0382698   0.0193245  -0.0535833  -0.0090008
            7           8           9          10          11          12
    1  -0.0400834  -0.0015943   0.0269886  -0.0046604  -0.0067926   0.0332119
    2   0.0029332  -0.0131235  -0.0144832   0.0090760   0.0300478  -0.0934966
    3   0.0140333  -0.0014120  -0.0064259   0.0338371  -0.0213834  -0.0487285
           13          14          15          16          17          18
    1  -0.0043316   0.0297146  -0.0744791   0.0182532   0.0107463  -0.0018467
    2   0.0068954  -0.0920877   0.0977170   0.0260419   0.0068953   0.0085641
    3   0.0473357   0.0545687   0.0547505  -0.1227423   0.0484633  -0.0371395
 Max gradient component =       1.227E-01
 RMS gradient           =       4.082E-02
 Computing fast CPCM-ISWIG gradient
 Updating gradient with PCM contributions...
 -- total gradient after adding PCM contribution --
---------------------------------------------------
  Atom         X              Y              Z     
---------------------------------------------------
   1       0.000001       0.000020       0.000006
   2       0.000004      -0.000003      -0.000004
   3      -0.000001      -0.000015      -0.000001
   4       0.000014      -0.000002      -0.000007
   5       0.000011       0.000003      -0.000004
   6       0.000009      -0.000024      -0.000014
   7      -0.000004       0.000008       0.000004
   8      -0.000010       0.000030       0.000015
   9      -0.000005       0.000040       0.000016
  10      -0.000015       0.000024       0.000016
  11      -0.000016       0.000031       0.000018
  12       0.000014       0.000026       0.000002
  13      -0.000008      -0.000022      -0.000004
  14      -0.000010      -0.000021      -0.000004
  15      -0.000020      -0.000027      -0.000001
  16      -0.000007      -0.000010       0.000001
  17       0.000019      -0.000031      -0.000019
  18       0.000023      -0.000028      -0.000020
---------------------------------------------------
 Number of fixed atoms: 0
 Gradient time:  CPU 9.86 s  wall 3.01 s
 ######################################################
 ######################################################
 # Starting finite difference calculation for IDERIV  #
 Finite diff step size:  1.88973e-03 a.u.
 ----------------------------------------------------------------
             Standard Nuclear Orientation (Angstroms)
    I     Atom           X                Y                Z
 ----------------------------------------------------------------
    1      C      -2.4332025585     0.2284444545    -0.0067350295
    2      C      -0.0437093700     0.7012369894    -0.0993299956
    3      C       1.2319802862     0.1114135175    -0.5586662522
    4      H      -0.2910372667     1.6522727181    -0.5834539751
    5      H      -0.0464520052     0.8374068760     0.9845096004
    6      H       2.1166857935     1.2033287645    -0.3791164975
    7      O      -1.2357407245    -0.1980134515    -0.3916006888
    8      C      -3.5249366100    -0.7685564487    -0.3466831832
    9      H      -4.5046691301    -0.3293966084    -0.1495842161
   10      H      -3.4558135589    -1.0714220375    -1.3961152258
   11      H      -3.4046847583    -1.6703483545     0.2646980480
   12      O      -2.6443354804     1.2914358109     0.5657910597
   13      H       1.2410610291    -0.0822606514    -1.6416069896
   14      C       1.7615165796    -1.0570597867     0.2264962562
   15      O       2.5325418014    -1.8782785506    -0.3742441254
   16      O       1.4746246569    -1.1272180454     1.4709097898
   17      O       2.8278048677     2.2225073324    -0.2167253243
   18      H       2.9463204481     2.1925854713     0.7474417490
 ----------------------------------------------------------------
 Nuclear Repulsion Energy =   519.1975317993 hartrees
 There are       40 alpha and       40 beta electrons
 Discretize the solute cavity surface with Lebedev spheres
	Using 110 Lebedev grid points for each H atom
	Using 110 Lebedev grid points for other atoms
	Atomic van der Waals radii will be scaled by 1.20
 Remove points where switching function is < 1.0e-08
 Keep 1112 surface tesserae and discard 868 interior tesserae
 Molecular Surface Area = 202.691 Angst**2
 Requested basis set is 6-31G(d)
 There are 56 shells and 166 basis functions
 A cutoff of  1.0D-14 yielded   1350 shell pairs
 There are     12344 function pairs
 Smallest overlap matrix eigenvalue = 3.22E-03
 Guess MOs from SCF MO coefficient file
 Reading MOs from coefficient file
 Reading MOs from coefficient file
 A restricted hybrid HF-DFT SCF calculation will be
 performed using Pulay DIIS extrapolation
 Polarizable Continuum solvation model will be applied
 Exchange:     0.2000 Hartree-Fock + 0.0800 Slater + 0.7200 B88
 Correlation:  0.1900 VWN1RPA + 0.8100 LYP
 Using SG-1 standard quadrature grid
 SCF converges when DIIS error is below 1.0E-08
Using Q-Chem read-in guess as SCF_GUESS READ specified.

 using 4 threads for integral computing
 -------------------------------------------------------
 OpenMP Integral computing Module                
 Release: version 1.0, May 2013, Q-Chem Inc. Pittsburgh 
 -------------------------------------------------------
 -------------------------------------------------------
 OpenMP BLAS3 based DFT computing Module                
 Release: version 1.0, May 2013, Q-Chem Inc. Pittsburgh 
 -------------------------------------------------------
 ---------------------------------------
  Cycle       Energy         DIIS Error
 ---------------------------------------
    1    -571.3351447295      1.02E-03
    2    -571.6583132725      1.34E-03
    3    -571.6688740072      5.83E-04
    4    -571.6703757617      4.27E-04
    5    -571.6711041869      3.36E-04
    6    -571.6716083241      2.59E-04
    7    -571.6719170452      1.97E-04
    8    -571.6721620224      1.28E-04
    9    -571.6722896049      6.81E-05
   10    -571.6723333093      2.51E-05
   11    -571.6723396825      6.35E-06
   12    -571.6723401032      9.32E-07
   13    -571.6723401120      1.41E-07
   14    -571.6723401121      3.92E-08
   15    -571.6723401121      6.40E-09 Convergence criterion met
 ---------------------------------------

************** Final PCM Free Energy Summary **************
 G_electrostatic  =      -0.33724973 hartree =    -211.62740121 kcal/mol
 G_cavitation     =       0.00000000 hartree =       0.00000000 kcal/mol
 G_dispersion     =       0.00000000 hartree =       0.00000000 kcal/mol
 G_repulsion      =       0.00000000 hartree =       0.00000000 kcal/mol
 --------------------------------------------------
 Non-electrostatic Free Energy =       0.00000000 hartree =       0.00000000 kcal/mol
 Total                         =      -0.33724973 hartree =    -211.62740121 kcal/mol
 --------------------------------------------------
 SCF Energy (H0 + V/2)                       =    -571.67234011 
 Solute Internal Energy (H0)                 =    -571.33509038 
 Total Free Energy (H0 + V/2 + non-elec)     =    -571.67234011 hartree
                                             = -358729.80772910 kcal/mol
***********************************************************

 SCF time:  CPU 53.67 s  wall 13.81 s
 SCF   energy in the final basis set = -571.67234011
 Total energy in the final basis set = -571.67234011
 
 --------------------------------------------------------------
 
                    Orbital Energies (a.u.)
 --------------------------------------------------------------
 
 Alpha MOs
 -- Occupied --
-19.158 -19.116 -19.024 -19.020 -19.018 -10.298 -10.205 -10.200
-10.178 -10.092  -1.069  -0.983  -0.946  -0.858  -0.856  -0.745
 -0.701  -0.588  -0.530  -0.469  -0.464  -0.449  -0.431  -0.404
 -0.395  -0.379  -0.364  -0.362  -0.337  -0.333  -0.322  -0.302
 -0.288  -0.277  -0.256  -0.196  -0.186  -0.180  -0.165  -0.138
 -- Virtual --
  0.031   0.118   0.126   0.139   0.151   0.170   0.176   0.185
  0.198   0.220   0.246   0.304   0.317   0.336   0.341   0.375
  0.400   0.452   0.539   0.544   0.572   0.596   0.612   0.622
  0.650   0.658   0.662   0.690   0.706   0.708   0.720   0.746
  0.815   0.827   0.857   0.867   0.892   0.900   0.906   0.913
  0.921   0.935   0.954   0.961   0.967   0.993   1.000   1.015
  1.040   1.061   1.084   1.111   1.132   1.134   1.159   1.186
  1.204   1.220   1.303   1.399   1.409   1.442   1.461   1.494
  1.524   1.532   1.580   1.667   1.701   1.726   1.742   1.765
  1.813   1.816   1.844   1.850   1.853   1.855   1.877   1.881
  1.908   1.918   1.929   1.954   1.962   1.981   2.003   2.037
  2.076   2.094   2.109   2.131   2.174   2.200   2.219   2.272
  2.331   2.364   2.405   2.424   2.484   2.567   2.584   2.617
  2.655   2.669   2.690   2.755   2.794   2.885   2.941   2.972
  3.037   3.063   3.146   3.188   3.767   3.947   3.984   4.102
  4.160   4.275   4.283   4.432   4.479   4.664
 --------------------------------------------------------------
 
          Ground-State Mulliken Net Atomic Charges

     Atom                 Charge (a.u.)
  ----------------------------------------
      1 C                     0.606249
      2 C                    -0.023799
      3 C                    -0.477906
      4 H                     0.112458
      5 H                     0.117466
      6 H                     0.300406
      7 O                    -0.477969
      8 C                    -0.535535
      9 H                     0.172373
     10 H                     0.184156
     11 H                     0.190608
     12 O                    -0.558914
     13 H                     0.033911
     14 C                     0.502624
     15 O                    -0.745888
     16 O                    -0.735005
     17 O                    -0.980016
     18 H                     0.314782
  ----------------------------------------
  Sum of atomic charges =    -2.000000

 -----------------------------------------------------------------
                    Cartesian Multipole Moments
 -----------------------------------------------------------------
    Charge (ESU x 10^10)
                -9.6064
    Dipole Moment (Debye)
         X     -16.9494      Y       0.2621      Z      -1.6285
       Tot      17.0294
    Quadrupole Moments (Debye-Ang)
        XX    -112.1966     XY      10.4393     YY     -94.9336
        XZ       7.1494     YZ       4.8876     ZZ     -69.9271
    Octopole Moments (Debye-Ang^2)
       XXX    -128.3834    XXY     -28.6560    XYY     -71.8014
       YYY     -15.2881    XXZ       6.9283    XYZ      20.5682
       YYZ       5.8781    XZZ     -13.6930    YZZ      10.8426
       ZZZ     -11.6684
    Hexadecapole Moments (Debye-Ang^3)
      XXXX   -2226.1749   XXXY      39.6139   XXYY    -652.1004
      XYYY     -11.0350   YYYY    -745.4287   XXXZ      83.8719
      XXYZ      23.4539   XYYZ      35.1773   YYYZ      27.1899
      XXZZ    -368.8277   XYZZ      27.7359   YYZZ    -143.6960
      XZZZ     -23.8893   YZZZ      25.2729   ZZZZ    -219.8240
 -----------------------------------------------------------------
 Calculating analytic gradient of the SCF energy
 Gradient of SCF Energy
            1           2           3           4           5           6
    1  -0.0021007   0.0184109  -0.0000520   0.0060177  -0.0006833  -0.0058039
    2   0.0663270   0.0633268  -0.0334914  -0.0442590  -0.0111177  -0.0159606
    3   0.0277179   0.0384580  -0.0382694   0.0193244  -0.0535834  -0.0090005
            7           8           9          10          11          12
    1  -0.0407128  -0.0018426   0.0269849  -0.0046560  -0.0067851   0.0331518
    2   0.0031400  -0.0132607  -0.0145172   0.0090775   0.0300497  -0.0933348
    3   0.0142062  -0.0014632  -0.0064379   0.0338351  -0.0213792  -0.0486449
           13          14          15          16          17          18
    1  -0.0043304   0.0297070  -0.0744666   0.0182593   0.0107495  -0.0018476
    2   0.0068978  -0.0920755   0.0977024   0.0260353   0.0068976   0.0085627
    3   0.0473308   0.0545590   0.0547442  -0.1227197   0.0484584  -0.0371359
 Max gradient component =       1.227E-01
 RMS gradient           =       4.081E-02
 Computing fast CPCM-ISWIG gradient
 Updating gradient with PCM contributions...
 -- total gradient after adding PCM contribution --
---------------------------------------------------
  Atom         X              Y              Z     
---------------------------------------------------
   1       0.001131      -0.000028      -0.000117
   2      -0.000135      -0.000028       0.000003
   3       0.000012      -0.000018      -0.000000
   4       0.000023       0.000011      -0.000005
   5       0.000020       0.000013       0.000001
   6       0.000003      -0.000035      -0.000016
   7      -0.000509       0.000082       0.000091
   8      -0.000282      -0.000061      -0.000020
   9      -0.000040       0.000000       0.000003
  10      -0.000007       0.000033       0.000021
  11      -0.000006       0.000041       0.000022
  12      -0.000213       0.000125       0.000064
  13      -0.000008      -0.000025      -0.000005
  14      -0.000017      -0.000014      -0.000009
  15      -0.000016      -0.000033      -0.000001
  16      -0.000003      -0.000014       0.000004
  17       0.000025      -0.000023      -0.000018
  18       0.000023      -0.000028      -0.000020
---------------------------------------------------
 Number of fixed atoms: 0
 Gradient time:  CPU 9.63 s  wall 2.95 s
 ----------------------------------------------------------------
             Standard Nuclear Orientation (Angstroms)
    I     Atom           X                Y                Z
 ----------------------------------------------------------------
    1      C      -2.4352025585     0.2284444545    -0.0067350295
    2      C      -0.0437093700     0.7012369894    -0.0993299956
    3      C       1.2319802862     0.1114135175    -0.5586662522
    4      H      -0.2910372667     1.6522727181    -0.5834539751
    5      H      -0.0464520052     0.8374068760     0.9845096004
    6      H       2.1166857935     1.2033287645    -0.3791164975
    7      O      -1.2357407245    -0.1980134515    -0.3916006888
    8      C      -3.5249366100    -0.7685564487    -0.3466831832
    9      H      -4.5046691301    -0.3293966084    -0.1495842161
   10      H      -3.4558135589    -1.0714220375    -1.3961152258
   11      H      -3.4046847583    -1.6703483545     0.2646980480
   12      O      -2.6443354804     1.2914358109     0.5657910597
   13      H       1.2410610291    -0.0822606514    -1.6416069896
   14      C       1.7615165796    -1.0570597867     0.2264962562
   15      O       2.5325418014    -1.8782785506    -0.3742441254
   16      O       1.4746246569    -1.1272180454     1.4709097898
   17      O       2.8278048677     2.2225073324    -0.2167253243
   18      H       2.9463204481     2.1925854713     0.7474417490
 ----------------------------------------------------------------
 Nuclear Repulsion Energy =   519.1732003409 hartrees
 There are       40 alpha and       40 beta electrons
 Discretize the solute cavity surface with Lebedev spheres
	Using 110 Lebedev grid points for each H atom
	Using 110 Lebedev grid points for other atoms
	Atomic van der Waals radii will be scaled by 1.20
 Remove points where switching function is < 1.0e-08
 Keep 1112 surface tesserae and discard 868 interior tesserae
 Molecular Surface Area = 202.696 Angst**2
 Requested basis set is 6-31G(d)
 There are 56 shells and 166 basis functions
 A cutoff of  1.0D-14 yielded   1350 shell pairs
 There are     12344 function pairs
 Smallest overlap matrix eigenvalue = 3.22E-03
 Guess MOs from SCF MO coefficient file
 Reading MOs from coefficient file
 Reading MOs from coefficient file
 A restricted hybrid HF-DFT SCF calculation will be
 performed using Pulay DIIS extrapolation
 Polarizable Continuum solvation model will be applied
 Exchange:     0.2000 Hartree-Fock + 0.0800 Slater + 0.7200 B88
 Correlation:  0.1900 VWN1RPA + 0.8100 LYP
 Using SG-1 standard quadrature grid
 SCF converges when DIIS error is below 1.0E-08
Using Q-Chem read-in guess as SCF_GUESS READ specified.

 using 4 threads for integral computing
 -------------------------------------------------------
 OpenMP Integral computing Module                
 Release: version 1.0, May 2013, Q-Chem Inc. Pittsburgh 
 -------------------------------------------------------
 -------------------------------------------------------
 OpenMP BLAS3 based DFT computing Module                
 Release: version 1.0, May 2013, Q-Chem Inc. Pittsburgh 
 -------------------------------------------------------
 ---------------------------------------
  Cycle       Energy         DIIS Error
 ---------------------------------------
    1    -571.3348459826      1.02E-03
    2    -571.6583863487      1.33E-03
    3    -571.6688914380      5.80E-04
    4    -571.6703845261      4.25E-04
    5    -571.6711437977      3.30E-04
    6    -571.6716788152      2.46E-04
    7    -571.6720440543      1.65E-04
    8    -571.6722653207      8.28E-05
    9    -571.6723326969      2.62E-05
   10    -571.6723398315      5.29E-06
   11    -571.6723401050      1.31E-06
   12    -571.6723401189      2.00E-07
   13    -571.6723401191      6.68E-08
   14    -571.6723401191      1.38E-08
   15    -571.6723401191      3.85E-09 Convergence criterion met
 ---------------------------------------

************** Final PCM Free Energy Summary **************
 G_electrostatic  =      -0.33738779 hartree =    -211.71403204 kcal/mol
 G_cavitation     =       0.00000000 hartree =       0.00000000 kcal/mol
 G_dispersion     =       0.00000000 hartree =       0.00000000 kcal/mol
 G_repulsion      =       0.00000000 hartree =       0.00000000 kcal/mol
 --------------------------------------------------
 Non-electrostatic Free Energy =       0.00000000 hartree =       0.00000000 kcal/mol
 Total                         =      -0.33738779 hartree =    -211.71403204 kcal/mol
 --------------------------------------------------
 SCF Energy (H0 + V/2)                       =    -571.67234012 
 Solute Internal Energy (H0)                 =    -571.33495233 
 Total Free Energy (H0 + V/2 + non-elec)     =    -571.67234012 hartree
                                             = -358729.80773348 kcal/mol
***********************************************************

 SCF time:  CPU 55.21 s  wall 14.51 s
 SCF   energy in the final basis set = -571.67234012
 Total energy in the final basis set = -571.67234012
 
 --------------------------------------------------------------
 
                    Orbital Energies (a.u.)
 --------------------------------------------------------------
 
 Alpha MOs
 -- Occupied --
-19.158 -19.117 -19.024 -19.020 -19.018 -10.298 -10.205 -10.200
-10.179 -10.092  -1.068  -0.983  -0.946  -0.858  -0.855  -0.745
 -0.701  -0.588  -0.530  -0.469  -0.464  -0.449  -0.431  -0.404
 -0.396  -0.379  -0.364  -0.362  -0.337  -0.333  -0.322  -0.301
 -0.288  -0.277  -0.256  -0.196  -0.186  -0.180  -0.165  -0.138
 -- Virtual --
  0.030   0.118   0.126   0.139   0.151   0.170   0.176   0.185
  0.198   0.220   0.246   0.304   0.317   0.336   0.341   0.375
  0.400   0.452   0.539   0.544   0.572   0.596   0.612   0.622
  0.650   0.658   0.662   0.690   0.706   0.708   0.720   0.746
  0.815   0.827   0.857   0.867   0.892   0.900   0.906   0.912
  0.921   0.935   0.954   0.961   0.967   0.993   1.000   1.015
  1.040   1.061   1.085   1.111   1.132   1.134   1.159   1.186
  1.204   1.220   1.303   1.399   1.409   1.442   1.461   1.494
  1.524   1.533   1.580   1.667   1.701   1.725   1.742   1.765
  1.813   1.816   1.844   1.850   1.853   1.855   1.877   1.881
  1.908   1.918   1.929   1.954   1.963   1.981   2.004   2.037
  2.076   2.094   2.109   2.131   2.174   2.199   2.219   2.273
  2.331   2.364   2.405   2.425   2.484   2.567   2.584   2.617
  2.655   2.669   2.689   2.755   2.793   2.885   2.942   2.972
  3.036   3.063   3.146   3.188   3.767   3.947   3.984   4.100
  4.160   4.275   4.283   4.432   4.479   4.664
 --------------------------------------------------------------
 
          Ground-State Mulliken Net Atomic Charges

     Atom                 Charge (a.u.)
  ----------------------------------------
      1 C                     0.606333
      2 C                    -0.023361
      3 C                    -0.477872
      4 H                     0.112209
      5 H                     0.117232
      6 H                     0.300363
      7 O                    -0.479278
      8 C                    -0.535531
      9 H                     0.172518
     10 H                     0.184468
     11 H                     0.190939
     12 O                    -0.558214
     13 H                     0.033821
     14 C                     0.502594
     15 O                    -0.745921
     16 O                    -0.735034
     17 O                    -0.980029
     18 H                     0.314763
  ----------------------------------------
  Sum of atomic charges =    -2.000000

 -----------------------------------------------------------------
                    Cartesian Multipole Moments
 -----------------------------------------------------------------
    Charge (ESU x 10^10)
                -9.6064
    Dipole Moment (Debye)
         X     -16.9712      Y       0.2618      Z      -1.6262
       Tot      17.0509
    Quadrupole Moments (Debye-Ang)
        XX    -112.1175     XY      10.4408     YY     -94.9276
        XZ       7.1483     YZ       4.8911     ZZ     -69.9270
    Octopole Moments (Debye-Ang^2)
       XXX    -128.6841    XXY     -28.6750    XYY     -71.8403
       YYY     -15.2982    XXZ       6.9224    XYZ      20.5580
       YYZ       5.8810    XZZ     -13.7067    YZZ      10.8394
       ZZZ     -11.6671
    Hexadecapole Moments (Debye-Ang^3)
      XXXX   -2225.3407   XXXY      39.7083   XXYY    -652.0237
      XYYY     -11.0030   YYYY    -745.4043   XXXZ      83.9189
      XXYZ      23.4820   XYYZ      35.1775   YYYZ      27.2009
      XXZZ    -368.8010   XYZZ      27.7506   YYZZ    -143.6902
      XZZZ     -23.8787   YZZZ      25.2833   ZZZZ    -219.8224
 -----------------------------------------------------------------
 Calculating analytic gradient of the SCF energy
 Gradient of SCF Energy
            1           2           3           4           5           6
    1  -0.0041099   0.0185830  -0.0000663   0.0060243  -0.0006736  -0.0057960
    2   0.0666750   0.0633555  -0.0334844  -0.0442595  -0.0111151  -0.0159587
    3   0.0281175   0.0384494  -0.0382702   0.0193245  -0.0535833  -0.0090012
            7           8           9          10          11          12
    1  -0.0394576  -0.0013454   0.0269924  -0.0046647  -0.0068000   0.0332717
    2   0.0027278  -0.0129856  -0.0144493   0.0090744   0.0300460  -0.0936578
    3   0.0138619  -0.0013605  -0.0064140   0.0338391  -0.0213877  -0.0488119
           13          14          15          16          17          18
    1  -0.0043329   0.0297222  -0.0744918   0.0182472   0.0107432  -0.0018457
    2   0.0068929  -0.0921001   0.0977317   0.0260486   0.0068931   0.0085655
    3   0.0473408   0.0545785   0.0547570  -0.1227651   0.0484683  -0.0371431
 Max gradient component =       1.228E-01
 RMS gradient           =       4.083E-02
 Computing fast CPCM-ISWIG gradient
 Updating gradient with PCM contributions...
 -- total gradient after adding PCM contribution --
---------------------------------------------------
  Atom         X              Y              Z     
---------------------------------------------------
   1      -0.001125       0.000066       0.000128
   2       0.000143       0.000023      -0.000011
   3      -0.000013      -0.000012      -0.000002
   4       0.000004      -0.000015      -0.000009
   5       0.000002      -0.000008      -0.000010
   6       0.000016      -0.000014      -0.000012
   7       0.000496      -0.000064      -0.000083
   8       0.000263       0.000122       0.000049
   9       0.000032       0.000080       0.000028
  10      -0.000024       0.000016       0.000010
  11      -0.000026       0.000022       0.000014
  12       0.000240      -0.000074      -0.000059
  13      -0.000007      -0.000019      -0.000002
  14      -0.000004      -0.000028       0.000001
  15      -0.000024      -0.000022      -0.000000
  16      -0.000011      -0.000007      -0.000003
  17       0.000014      -0.000038      -0.000020
  18       0.000023      -0.000028      -0.000020
---------------------------------------------------
 Number of fixed atoms: 0
 Gradient time:  CPU 9.80 s  wall 2.99 s
 ----------------------------------------------------------------
             Standard Nuclear Orientation (Angstroms)
    I     Atom           X                Y                Z
 ----------------------------------------------------------------
    1      C      -2.4342025585     0.2294444545    -0.0067350295
    2      C      -0.0437093700     0.7012369894    -0.0993299956
    3      C       1.2319802862     0.1114135175    -0.5586662522
    4      H      -0.2910372667     1.6522727181    -0.5834539751
    5      H      -0.0464520052     0.8374068760     0.9845096004
    6      H       2.1166857935     1.2033287645    -0.3791164975
    7      O      -1.2357407245    -0.1980134515    -0.3916006888
    8      C      -3.5249366100    -0.7685564487    -0.3466831832
    9      H      -4.5046691301    -0.3293966084    -0.1495842161
   10      H      -3.4558135589    -1.0714220375    -1.3961152258
   11      H      -3.4046847583    -1.6703483545     0.2646980480
   12      O      -2.6443354804     1.2914358109     0.5657910597
   13      H       1.2410610291    -0.0822606514    -1.6416069896
   14      C       1.7615165796    -1.0570597867     0.2264962562
   15      O       2.5325418014    -1.8782785506    -0.3742441254
   16      O       1.4746246569    -1.1272180454     1.4709097898
   17      O       2.8278048677     2.2225073324    -0.2167253243
   18      H       2.9463204481     2.1925854713     0.7474417490
 ----------------------------------------------------------------
 Nuclear Repulsion Energy =   519.1890026584 hartrees
 There are       40 alpha and       40 beta electrons
 Discretize the solute cavity surface with Lebedev spheres
	Using 110 Lebedev grid points for each H atom
	Using 110 Lebedev grid points for other atoms
	Atomic van der Waals radii will be scaled by 1.20
 Remove points where switching function is < 1.0e-08
 Keep 1112 surface tesserae and discard 868 interior tesserae
 Molecular Surface Area = 202.691 Angst**2
 Requested basis set is 6-31G(d)
 There are 56 shells and 166 basis functions
 A cutoff of  1.0D-14 yielded   1350 shell pairs
 There are     12344 function pairs
 Smallest overlap matrix eigenvalue = 3.22E-03
 Guess MOs from SCF MO coefficient file
 Reading MOs from coefficient file
 Reading MOs from coefficient file
 A restricted hybrid HF-DFT SCF calculation will be
 performed using Pulay DIIS extrapolation
 Polarizable Continuum solvation model will be applied
 Exchange:     0.2000 Hartree-Fock + 0.0800 Slater + 0.7200 B88
 Correlation:  0.1900 VWN1RPA + 0.8100 LYP
 Using SG-1 standard quadrature grid
 SCF converges when DIIS error is below 1.0E-08
Using Q-Chem read-in guess as SCF_GUESS READ specified.

 using 4 threads for integral computing
 -------------------------------------------------------
 OpenMP Integral computing Module                
 Release: version 1.0, May 2013, Q-Chem Inc. Pittsburgh 
 -------------------------------------------------------
 -------------------------------------------------------
 OpenMP BLAS3 based DFT computing Module                
 Release: version 1.0, May 2013, Q-Chem Inc. Pittsburgh 
 -------------------------------------------------------
 ---------------------------------------
  Cycle       Energy         DIIS Error
 ---------------------------------------
    1    -571.3352377479      1.02E-03
    2    -571.6583134214      1.33E-03
    3    -571.6688767270      5.83E-04
    4    -571.6703787461      4.26E-04
    5    -571.6711167767      3.34E-04
    6    -571.6716299758      2.55E-04
    7    -571.6719595885      1.87E-04
    8    -571.6722040562      1.11E-04
    9    -571.6723139654      4.87E-05
   10    -571.6723377426      1.37E-05
   11    -571.6723396589      2.97E-06
   12    -571.6723397471      3.94E-07
   13    -571.6723397484      9.31E-08
   14    -571.6723397485      2.60E-08
   15    -571.6723397485      4.74E-09 Convergence criterion met
 ---------------------------------------

************** Final PCM Free Energy Summary **************
 G_electrostatic  =      -0.33731430 hartree =    -211.66791742 kcal/mol
 G_cavitation     =       0.00000000 hartree =       0.00000000 kcal/mol
 G_dispersion     =       0.00000000 hartree =       0.00000000 kcal/mol
 G_repulsion      =       0.00000000 hartree =       0.00000000 kcal/mol
 --------------------------------------------------
 Non-electrostatic Free Energy =       0.00000000 hartree =       0.00000000 kcal/mol
 Total                         =      -0.33731430 hartree =    -211.66791742 kcal/mol
 --------------------------------------------------
 SCF Energy (H0 + V/2)                       =    -571.67233975 
 Solute Internal Energy (H0)                 =    -571.33502545 
 Total Free Energy (H0 + V/2 + non-elec)     =    -571.67233975 hartree
                                             = -358729.80750089 kcal/mol
***********************************************************

 SCF time:  CPU 53.46 s  wall 13.74 s
 SCF   energy in the final basis set = -571.67233975
 Total energy in the final basis set = -571.67233975
 
 --------------------------------------------------------------
 
                    Orbital Energies (a.u.)
 --------------------------------------------------------------
 
 Alpha MOs
 -- Occupied --
-19.158 -19.117 -19.024 -19.020 -19.018 -10.298 -10.205 -10.200
-10.178 -10.092  -1.069  -0.983  -0.946  -0.858  -0.855  -0.745
 -0.701  -0.588  -0.530  -0.469  -0.464  -0.449  -0.431  -0.404
 -0.396  -0.379  -0.364  -0.362  -0.337  -0.333  -0.322  -0.302
 -0.288  -0.277  -0.256  -0.196  -0.186  -0.180  -0.165  -0.138
 -- Virtual --
  0.031   0.118   0.126   0.139   0.151   0.170   0.176   0.185
  0.198   0.220   0.246   0.304   0.317   0.336   0.341   0.375
  0.400   0.452   0.539   0.544   0.572   0.596   0.612   0.622
  0.650   0.659   0.662   0.690   0.706   0.708   0.720   0.746
  0.815   0.827   0.857   0.867   0.892   0.900   0.906   0.913
  0.921   0.935   0.954   0.961   0.967   0.993   1.000   1.015
  1.040   1.061   1.084   1.111   1.132   1.134   1.159   1.186
  1.204   1.220   1.302   1.400   1.409   1.442   1.461   1.494
  1.524   1.533   1.580   1.667   1.701   1.726   1.742   1.765
  1.813   1.816   1.844   1.850   1.853   1.855   1.877   1.881
  1.908   1.918   1.929   1.954   1.962   1.981   2.004   2.037
  2.076   2.094   2.109   2.131   2.174   2.200   2.219   2.273
  2.331   2.364   2.405   2.425   2.484   2.567   2.584   2.617
  2.655   2.669   2.690   2.755   2.793   2.885   2.942   2.972
  3.037   3.063   3.146   3.188   3.767   3.947   3.985   4.101
  4.161   4.275   4.283   4.432   4.479   4.664
 --------------------------------------------------------------
 
          Ground-State Mulliken Net Atomic Charges

     Atom                 Charge (a.u.)
  ----------------------------------------
      1 C                     0.606239
      2 C                    -0.023624
      3 C                    -0.477887
      4 H                     0.112292
      5 H                     0.117308
      6 H                     0.300367
      7 O                    -0.478856
      8 C                    -0.535583
      9 H                     0.172307
     10 H                     0.184216
     11 H                     0.190714
     12 O                    -0.557716
     13 H                     0.033837
     14 C                     0.502600
     15 O                    -0.745918
     16 O                    -0.735031
     17 O                    -0.980030
     18 H                     0.314764
  ----------------------------------------
  Sum of atomic charges =    -2.000000

 -----------------------------------------------------------------
                    Cartesian Multipole Moments
 -----------------------------------------------------------------
    Charge (ESU x 10^10)
                -9.6064
    Dipole Moment (Debye)
         X     -16.9629      Y       0.2691      Z      -1.6244
       Tot      17.0427
    Quadrupole Moments (Debye-Ang)
        XX    -112.1593     XY      10.4190     YY     -94.9268
        XZ       7.1409     YZ       4.8909     ZZ     -69.9273
    Octopole Moments (Debye-Ang^2)
       XXX    -128.5135    XXY     -28.6107    XYY     -71.8377
       YYY     -15.2950    XXZ       6.9512    XYZ      20.5598
       YYZ       5.8825    XZZ     -13.7026    YZZ      10.8416
       ZZZ     -11.6599
    Hexadecapole Moments (Debye-Ang^3)
      XXXX   -2225.9923   XXXY      39.4994   XXYY    -652.0372
      XYYY     -11.0262   YYYY    -745.4233   XXXZ      83.8075
      XXYZ      23.4745   XYYZ      35.1690   YYYZ      27.1986
      XXZZ    -368.8165   XYZZ      27.7387   YYZZ    -143.6944
      XZZZ     -23.9050   YZZZ      25.2806   ZZZZ    -219.8260
 -----------------------------------------------------------------
 Calculating analytic gradient of the SCF energy
 Gradient of SCF Energy
            1           2           3           4           5           6
    1  -0.0032848   0.0185201  -0.0000718   0.0060158  -0.0006772  -0.0057989
    2   0.0679189   0.0633638  -0.0334953  -0.0442503  -0.0111142  -0.0159555
    3   0.0285453   0.0384644  -0.0382680   0.0193192  -0.0535733  -0.0089999
            7           8           9          10          11          12
    1  -0.0399162  -0.0017357   0.0269895  -0.0046615  -0.0068111   0.0333810
    2   0.0027895  -0.0133297  -0.0144692   0.0090717   0.0300390  -0.0945924
    3   0.0139775  -0.0014412  -0.0064184   0.0338395  -0.0213969  -0.0492816
           13          14          15          16          17          18
    1  -0.0043330   0.0297184  -0.0744859   0.0182518   0.0107464  -0.0018469
    2   0.0068945  -0.0920941   0.0977250   0.0260423   0.0068911   0.0085649
    3   0.0473367   0.0545739   0.0547532  -0.1227537   0.0484624  -0.0371390
 Max gradient component =       1.228E-01
 RMS gradient           =       4.094E-02
 Computing fast CPCM-ISWIG gradient
 Updating gradient with PCM contributions...
 -- total gradient after adding PCM contribution --
---------------------------------------------------
  Atom         X              Y              Z     
---------------------------------------------------
   1      -0.000047       0.001497       0.000539
   2       0.000025       0.000040       0.000015
   3      -0.000024      -0.000022      -0.000006
   4       0.000003      -0.000011      -0.000006
   5       0.000002      -0.000001      -0.000009
   6       0.000013      -0.000013      -0.000012
   7       0.000053      -0.000231      -0.000058
   8      -0.000107      -0.000199      -0.000003
   9       0.000022       0.000058       0.000024
  10      -0.000019       0.000012       0.000013
  11      -0.000053      -0.000006       0.000001
  12       0.000135      -0.000978      -0.000453
  13      -0.000005      -0.000020      -0.000003
  14      -0.000005      -0.000028       0.000001
  15      -0.000023      -0.000023      -0.000000
  16      -0.000008      -0.000008      -0.000003
  17       0.000015      -0.000039      -0.000020
  18       0.000023      -0.000028      -0.000020
---------------------------------------------------
 Number of fixed atoms: 0
 Gradient time:  CPU 9.62 s  wall 2.95 s
 ----------------------------------------------------------------
             Standard Nuclear Orientation (Angstroms)
    I     Atom           X                Y                Z
 ----------------------------------------------------------------
    1      C      -2.4342025585     0.2274444545    -0.0067350295
    2      C      -0.0437093700     0.7012369894    -0.0993299956
    3      C       1.2319802862     0.1114135175    -0.5586662522
    4      H      -0.2910372667     1.6522727181    -0.5834539751
    5      H      -0.0464520052     0.8374068760     0.9845096004
    6      H       2.1166857935     1.2033287645    -0.3791164975
    7      O      -1.2357407245    -0.1980134515    -0.3916006888
    8      C      -3.5249366100    -0.7685564487    -0.3466831832
    9      H      -4.5046691301    -0.3293966084    -0.1495842161
   10      H      -3.4558135589    -1.0714220375    -1.3961152258
   11      H      -3.4046847583    -1.6703483545     0.2646980480
   12      O      -2.6443354804     1.2914358109     0.5657910597
   13      H       1.2410610291    -0.0822606514    -1.6416069896
   14      C       1.7615165796    -1.0570597867     0.2264962562
   15      O       2.5325418014    -1.8782785506    -0.3742441254
   16      O       1.4746246569    -1.1272180454     1.4709097898
   17      O       2.8278048677     2.2225073324    -0.2167253243
   18      H       2.9463204481     2.1925854713     0.7474417490
 ----------------------------------------------------------------
 Nuclear Repulsion Energy =   519.1817274363 hartrees
 There are       40 alpha and       40 beta electrons
 Discretize the solute cavity surface with Lebedev spheres
	Using 110 Lebedev grid points for each H atom
	Using 110 Lebedev grid points for other atoms
	Atomic van der Waals radii will be scaled by 1.20
 Remove points where switching function is < 1.0e-08
 Keep 1112 surface tesserae and discard 868 interior tesserae
 Molecular Surface Area = 202.695 Angst**2
 Requested basis set is 6-31G(d)
 There are 56 shells and 166 basis functions
 A cutoff of  1.0D-14 yielded   1350 shell pairs
 There are     12344 function pairs
 Smallest overlap matrix eigenvalue = 3.22E-03
 Guess MOs from SCF MO coefficient file
 Reading MOs from coefficient file
 Reading MOs from coefficient file
 A restricted hybrid HF-DFT SCF calculation will be
 performed using Pulay DIIS extrapolation
 Polarizable Continuum solvation model will be applied
 Exchange:     0.2000 Hartree-Fock + 0.0800 Slater + 0.7200 B88
 Correlation:  0.1900 VWN1RPA + 0.8100 LYP
 Using SG-1 standard quadrature grid
 SCF converges when DIIS error is below 1.0E-08
Using Q-Chem read-in guess as SCF_GUESS READ specified.

 using 4 threads for integral computing
 -------------------------------------------------------
 OpenMP Integral computing Module                
 Release: version 1.0, May 2013, Q-Chem Inc. Pittsburgh 
 -------------------------------------------------------
 -------------------------------------------------------
 OpenMP BLAS3 based DFT computing Module                
 Release: version 1.0, May 2013, Q-Chem Inc. Pittsburgh 
 -------------------------------------------------------
 ---------------------------------------
  Cycle       Energy         DIIS Error
 ---------------------------------------
    1    -571.3347013655      1.02E-03
    2    -571.6582705299      1.34E-03
    3    -571.6688655169      5.85E-04
    4    -571.6703749128      4.27E-04
    5    -571.6711204851      3.34E-04
    6    -571.6716842954      2.45E-04
    7    -571.6720520895      1.63E-04
    8    -571.6722793647      7.45E-05
    9    -571.6723348737      2.15E-05
   10    -571.6723396267      4.48E-06
   11    -571.6723398179      1.18E-06
   12    -571.6723398286      1.86E-07
   13    -571.6723398288      6.22E-08
   14    -571.6723398288      1.25E-08
   15    -571.6723398288      3.76E-09 Convergence criterion met
 ---------------------------------------

************** Final PCM Free Energy Summary **************
 G_electrostatic  =      -0.33732321 hartree =    -211.67350812 kcal/mol
 G_cavitation     =       0.00000000 hartree =       0.00000000 kcal/mol
 G_dispersion     =       0.00000000 hartree =       0.00000000 kcal/mol
 G_repulsion      =       0.00000000 hartree =       0.00000000 kcal/mol
 --------------------------------------------------
 Non-electrostatic Free Energy =       0.00000000 hartree =       0.00000000 kcal/mol
 Total                         =      -0.33732321 hartree =    -211.67350812 kcal/mol
 --------------------------------------------------
 SCF Energy (H0 + V/2)                       =    -571.67233983 
 Solute Internal Energy (H0)                 =    -571.33501662 
 Total Free Energy (H0 + V/2 + non-elec)     =    -571.67233983 hartree
                                             = -358729.80755133 kcal/mol
***********************************************************

 SCF time:  CPU 55.39 s  wall 14.58 s
 SCF   energy in the final basis set = -571.67233983
 Total energy in the final basis set = -571.67233983
 
 --------------------------------------------------------------
 
                    Orbital Energies (a.u.)
 --------------------------------------------------------------
 
 Alpha MOs
 -- Occupied --
-19.158 -19.116 -19.024 -19.020 -19.018 -10.298 -10.205 -10.200
-10.178 -10.092  -1.068  -0.983  -0.946  -0.858  -0.856  -0.745
 -0.701  -0.588  -0.530  -0.469  -0.464  -0.449  -0.431  -0.404
 -0.396  -0.379  -0.364  -0.362  -0.337  -0.333  -0.322  -0.301
 -0.288  -0.277  -0.256  -0.196  -0.186  -0.180  -0.165  -0.138
 -- Virtual --
  0.030   0.118   0.126   0.139   0.151   0.170   0.176   0.185
  0.198   0.220   0.246   0.304   0.317   0.336   0.341   0.375
  0.400   0.452   0.539   0.544   0.572   0.596   0.612   0.622
  0.650   0.658   0.662   0.690   0.706   0.707   0.720   0.746
  0.815   0.827   0.857   0.867   0.892   0.900   0.906   0.912
  0.921   0.935   0.954   0.961   0.967   0.993   1.000   1.015
  1.040   1.061   1.085   1.111   1.132   1.134   1.159   1.186
  1.204   1.220   1.303   1.399   1.409   1.442   1.461   1.494
  1.524   1.532   1.580   1.667   1.701   1.726   1.742   1.765
  1.813   1.816   1.844   1.850   1.853   1.855   1.877   1.881
  1.908   1.918   1.929   1.954   1.962   1.981   2.003   2.037
  2.076   2.094   2.109   2.131   2.174   2.199   2.219   2.272
  2.331   2.364   2.405   2.424   2.484   2.567   2.584   2.617
  2.655   2.669   2.689   2.755   2.794   2.885   2.941   2.972
  3.036   3.063   3.146   3.188   3.767   3.947   3.984   4.101
  4.160   4.275   4.283   4.432   4.479   4.664
 --------------------------------------------------------------
 
          Ground-State Mulliken Net Atomic Charges

     Atom                 Charge (a.u.)
  ----------------------------------------
      1 C                     0.606342
      2 C                    -0.023536
      3 C                    -0.477891
      4 H                     0.112375
      5 H                     0.117389
      6 H                     0.300401
      7 O                    -0.478393
      8 C                    -0.535483
      9 H                     0.172585
     10 H                     0.184408
     11 H                     0.190833
     12 O                    -0.559409
     13 H                     0.033895
     14 C                     0.502618
     15 O                    -0.745892
     16 O                    -0.735007
     17 O                    -0.980016
     18 H                     0.314781
  ----------------------------------------
  Sum of atomic charges =    -2.000000

 -----------------------------------------------------------------
                    Cartesian Multipole Moments
 -----------------------------------------------------------------
    Charge (ESU x 10^10)
                -9.6064
    Dipole Moment (Debye)
         X     -16.9576      Y       0.2548      Z      -1.6303
       Tot      17.0377
    Quadrupole Moments (Debye-Ang)
        XX    -112.1548     XY      10.4610     YY     -94.9344
        XZ       7.1568     YZ       4.8878     ZZ     -69.9268
    Octopole Moments (Debye-Ang^2)
       XXX    -128.5539    XXY     -28.7202    XYY     -71.8040
       YYY     -15.2912    XXZ       6.8996    XYZ      20.5663
       YYZ       5.8766    XZZ     -13.6970    YZZ      10.8404
       ZZZ     -11.6756
    Hexadecapole Moments (Debye-Ang^3)
      XXXX   -2225.5235   XXXY      39.8224   XXYY    -652.0868
      XYYY     -11.0120   YYYY    -745.4096   XXXZ      83.9832
      XXYZ      23.4613   XYYZ      35.1858   YYYZ      27.1922
      XXZZ    -368.8123   XYZZ      27.7478   YYZZ    -143.6919
      XZZZ     -23.8631   YZZZ      25.2755   ZZZZ    -219.8203
 -----------------------------------------------------------------
 Calculating analytic gradient of the SCF energy
 Gradient of SCF Energy
            1           2           3           4           5           6
    1  -0.0029310   0.0184740  -0.0000464   0.0060263  -0.0006797  -0.0058010
    2   0.0650907   0.0633185  -0.0334805  -0.0442681  -0.0111186  -0.0159638
    3   0.0272955   0.0384430  -0.0382715   0.0193297  -0.0535934  -0.0090018
            7           8           9          10          11          12
    1  -0.0402509  -0.0014522   0.0269876  -0.0046592  -0.0067739   0.0330440
    2   0.0030766  -0.0129169  -0.0144973   0.0090802   0.0300568  -0.0924059
    3   0.0140894  -0.0013825  -0.0064335   0.0338347  -0.0213699  -0.0481794
           13          14          15          16          17          18
    1  -0.0043303   0.0297107  -0.0744724   0.0182547   0.0107463  -0.0018465
    2   0.0068963  -0.0920814   0.0977090   0.0260415   0.0068995   0.0085633
    3   0.0473348   0.0545637   0.0547479  -0.1227310   0.0484643  -0.0371400
 Max gradient component =       1.227E-01
 RMS gradient           =       4.071E-02
 Computing fast CPCM-ISWIG gradient
 Updating gradient with PCM contributions...
 -- total gradient after adding PCM contribution --
---------------------------------------------------
  Atom         X              Y              Z     
---------------------------------------------------
   1       0.000048      -0.001451      -0.000523
   2      -0.000017      -0.000045      -0.000023
   3       0.000023      -0.000008       0.000004
   4       0.000025       0.000006      -0.000008
   5       0.000020       0.000006       0.000001
   6       0.000006      -0.000036      -0.000017
   7      -0.000062       0.000247       0.000066
   8       0.000088       0.000259       0.000033
   9      -0.000032       0.000022       0.000007
  10      -0.000012       0.000037       0.000019
  11       0.000021       0.000069       0.000035
  12      -0.000106       0.001023       0.000454
  13      -0.000010      -0.000024      -0.000004
  14      -0.000016      -0.000013      -0.000010
  15      -0.000017      -0.000032      -0.000001
  16      -0.000005      -0.000012       0.000004
  17       0.000024      -0.000023      -0.000017
  18       0.000023      -0.000028      -0.000019
---------------------------------------------------
 Number of fixed atoms: 0
 Gradient time:  CPU 9.77 s  wall 2.99 s
 ----------------------------------------------------------------
             Standard Nuclear Orientation (Angstroms)
    I     Atom           X                Y                Z
 ----------------------------------------------------------------
    1      C      -2.4342025585     0.2284444545    -0.0057350295
    2      C      -0.0437093700     0.7012369894    -0.0993299956
    3      C       1.2319802862     0.1114135175    -0.5586662522
    4      H      -0.2910372667     1.6522727181    -0.5834539751
    5      H      -0.0464520052     0.8374068760     0.9845096004
    6      H       2.1166857935     1.2033287645    -0.3791164975
    7      O      -1.2357407245    -0.1980134515    -0.3916006888
    8      C      -3.5249366100    -0.7685564487    -0.3466831832
    9      H      -4.5046691301    -0.3293966084    -0.1495842161
   10      H      -3.4558135589    -1.0714220375    -1.3961152258
   11      H      -3.4046847583    -1.6703483545     0.2646980480
   12      O      -2.6443354804     1.2914358109     0.5657910597
   13      H       1.2410610291    -0.0822606514    -1.6416069896
   14      C       1.7615165796    -1.0570597867     0.2264962562
   15      O       2.5325418014    -1.8782785506    -0.3742441254
   16      O       1.4746246569    -1.1272180454     1.4709097898
   17      O       2.8278048677     2.2225073324    -0.2167253243
   18      H       2.9463204481     2.1925854713     0.7474417490
 ----------------------------------------------------------------
 Nuclear Repulsion Energy =   519.1869003808 hartrees
 There are       40 alpha and       40 beta electrons
 Discretize the solute cavity surface with Lebedev spheres
	Using 110 Lebedev grid points for each H atom
	Using 110 Lebedev grid points for other atoms
	Atomic van der Waals radii will be scaled by 1.20
 Remove points where switching function is < 1.0e-08
 Keep 1112 surface tesserae and discard 868 interior tesserae
 Molecular Surface Area = 202.699 Angst**2
 Requested basis set is 6-31G(d)
 There are 56 shells and 166 basis functions
 A cutoff of  1.0D-14 yielded   1350 shell pairs
 There are     12344 function pairs
 Smallest overlap matrix eigenvalue = 3.22E-03
 Guess MOs from SCF MO coefficient file
 Reading MOs from coefficient file
 Reading MOs from coefficient file
 A restricted hybrid HF-DFT SCF calculation will be
 performed using Pulay DIIS extrapolation
 Polarizable Continuum solvation model will be applied
 Exchange:     0.2000 Hartree-Fock + 0.0800 Slater + 0.7200 B88
 Correlation:  0.1900 VWN1RPA + 0.8100 LYP
 Using SG-1 standard quadrature grid
 SCF converges when DIIS error is below 1.0E-08
Using Q-Chem read-in guess as SCF_GUESS READ specified.

 using 4 threads for integral computing
 -------------------------------------------------------
 OpenMP Integral computing Module                
 Release: version 1.0, May 2013, Q-Chem Inc. Pittsburgh 
 -------------------------------------------------------
 -------------------------------------------------------
 OpenMP BLAS3 based DFT computing Module                
 Release: version 1.0, May 2013, Q-Chem Inc. Pittsburgh 
 -------------------------------------------------------
 ---------------------------------------
  Cycle       Energy         DIIS Error
 ---------------------------------------
    1    -571.3352567638      1.02E-03
    2    -571.6583785197      1.33E-03
    3    -571.6688927166      5.80E-04
    4    -571.6703875473      4.25E-04
    5    -571.6711379578      3.31E-04
    6    -571.6716604261      2.49E-04
    7    -571.6720093086      1.75E-04
    8    -571.6722399787      9.59E-05
    9    -571.6723268991      3.54E-05
   10    -571.6723397896      8.09E-06
   11    -571.6723404536      1.76E-06
   12    -571.6723404816      2.35E-07
   13    -571.6723404819      7.53E-08
   14    -571.6723404819      1.81E-08
   15    -571.6723404819      4.13E-09 Convergence criterion met
 ---------------------------------------

************** Final PCM Free Energy Summary **************
 G_electrostatic  =      -0.33732329 hartree =    -211.67355801 kcal/mol
 G_cavitation     =       0.00000000 hartree =       0.00000000 kcal/mol
 G_dispersion     =       0.00000000 hartree =       0.00000000 kcal/mol
 G_repulsion      =       0.00000000 hartree =       0.00000000 kcal/mol
 --------------------------------------------------
 Non-electrostatic Free Energy =       0.00000000 hartree =       0.00000000 kcal/mol
 Total                         =      -0.33732329 hartree =    -211.67355801 kcal/mol
 --------------------------------------------------
 SCF Energy (H0 + V/2)                       =    -571.67234048 
 Solute Internal Energy (H0)                 =    -571.33501719 
 Total Free Energy (H0 + V/2 + non-elec)     =    -571.67234048 hartree
                                             = -358729.80796116 kcal/mol
***********************************************************

 SCF time:  CPU 53.82 s  wall 13.85 s
 SCF   energy in the final basis set = -571.67234048
 Total energy in the final basis set = -571.67234048
 
 --------------------------------------------------------------
 
                    Orbital Energies (a.u.)
 --------------------------------------------------------------
 
 Alpha MOs
 -- Occupied --
-19.158 -19.117 -19.024 -19.020 -19.018 -10.298 -10.205 -10.200
-10.178 -10.092  -1.068  -0.983  -0.946  -0.858  -0.855  -0.745
 -0.701  -0.588  -0.530  -0.469  -0.464  -0.449  -0.431  -0.404
 -0.396  -0.379  -0.364  -0.362  -0.337  -0.333  -0.322  -0.302
 -0.288  -0.277  -0.256  -0.196  -0.186  -0.180  -0.165  -0.138
 -- Virtual --
  0.031   0.118   0.126   0.139   0.151   0.170   0.176   0.185
  0.198   0.220   0.246   0.304   0.317   0.336   0.341   0.375
  0.400   0.452   0.539   0.544   0.572   0.596   0.612   0.622
  0.650   0.659   0.662   0.690   0.706   0.708   0.720   0.746
  0.815   0.827   0.857   0.867   0.892   0.900   0.906   0.912
  0.921   0.935   0.954   0.961   0.967   0.993   1.000   1.015
  1.040   1.061   1.085   1.111   1.132   1.134   1.159   1.186
  1.204   1.220   1.303   1.400   1.409   1.442   1.461   1.494
  1.524   1.533   1.580   1.667   1.701   1.726   1.742   1.765
  1.813   1.816   1.844   1.850   1.853   1.855   1.877   1.881
  1.908   1.918   1.929   1.954   1.963   1.981   2.003   2.037
  2.076   2.094   2.109   2.131   2.174   2.200   2.219   2.272
  2.331   2.364   2.406   2.424   2.484   2.567   2.584   2.617
  2.655   2.669   2.689   2.755   2.793   2.885   2.942   2.972
  3.037   3.063   3.146   3.188   3.767   3.947   3.985   4.101
  4.161   4.275   4.283   4.432   4.479   4.664
 --------------------------------------------------------------
 
          Ground-State Mulliken Net Atomic Charges

     Atom                 Charge (a.u.)
  ----------------------------------------
      1 C                     0.606307
      2 C                    -0.023573
      3 C                    -0.477888
      4 H                     0.112290
      5 H                     0.117315
      6 H                     0.300371
      7 O                    -0.478853
      8 C                    -0.535567
      9 H                     0.172399
     10 H                     0.184358
     11 H                     0.190696
     12 O                    -0.558105
     13 H                     0.033847
     14 C                     0.502607
     15 O                    -0.745915
     16 O                    -0.735029
     17 O                    -0.980028
     18 H                     0.314767
  ----------------------------------------
  Sum of atomic charges =    -2.000000

 -----------------------------------------------------------------
                    Cartesian Multipole Moments
 -----------------------------------------------------------------
    Charge (ESU x 10^10)
                -9.6064
    Dipole Moment (Debye)
         X     -16.9630      Y       0.2647      Z      -1.6241
       Tot      17.0427
    Quadrupole Moments (Debye-Ang)
        XX    -112.1531     XY      10.4312     YY     -94.9296
        XZ       7.1421     YZ       4.8917     ZZ     -69.9265
    Octopole Moments (Debye-Ang^2)
       XXX    -128.5481    XXY     -28.6394    XYY     -71.8291
       YYY     -15.2842    XXZ       6.9348    XYZ      20.5565
       YYZ       5.8749    XZZ     -13.7051    YZZ      10.8411
       ZZZ     -11.6799
    Hexadecapole Moments (Debye-Ang^3)
      XXXX   -2225.7799   XXXY      39.5667   XXYY    -652.0532
      XYYY     -11.0519   YYYY    -745.4158   XXXZ      83.9058
      XXYZ      23.4876   XYYZ      35.1911   YYYZ      27.1967
      XXZZ    -368.8005   XYZZ      27.7435   YYZZ    -143.6919
      XZZZ     -23.8517   YZZZ      25.2786   ZZZZ    -219.8218
 -----------------------------------------------------------------
 Calculating analytic gradient of the SCF energy
 Gradient of SCF Energy
            1           2           3           4           5           6
    1  -0.0033083   0.0185193  -0.0000666   0.0060234  -0.0006809  -0.0057987
    2   0.0671285   0.0633611  -0.0334912  -0.0442552  -0.0111176  -0.0159575
    3   0.0285075   0.0384524  -0.0382725   0.0193245  -0.0535757  -0.0090002
            7           8           9          10          11          12
    1  -0.0399253  -0.0016446   0.0269869  -0.0046881  -0.0067719   0.0333024
    2   0.0028710  -0.0131522  -0.0144754   0.0090563   0.0300539  -0.0940475
    3   0.0139090  -0.0015326  -0.0064271   0.0338475  -0.0213717  -0.0490964
           13          14          15          16          17          18
    1  -0.0043329   0.0297182  -0.0744839   0.0182521   0.0107456  -0.0018466
    2   0.0068943  -0.0920930   0.0977232   0.0260435   0.0068933   0.0085646
    3   0.0473377   0.0545724   0.0547519  -0.1227501   0.0484628  -0.0371393
 Max gradient component =       1.228E-01
 RMS gradient           =       4.088E-02
 Computing fast CPCM-ISWIG gradient
 Updating gradient with PCM contributions...
 -- total gradient after adding PCM contribution --
---------------------------------------------------
  Atom         X              Y              Z     
---------------------------------------------------
   1      -0.000121       0.000552       0.000734
   2       0.000035       0.000024       0.000002
   3      -0.000015      -0.000019      -0.000002
   4       0.000010      -0.000008      -0.000005
   5       0.000002      -0.000002      -0.000006
   6       0.000012      -0.000017      -0.000012
   7       0.000076      -0.000058      -0.000170
   8      -0.000043       0.000015      -0.000162
   9       0.000007       0.000049       0.000014
  10      -0.000063      -0.000020       0.000006
  11       0.000018       0.000055       0.000030
  12       0.000086      -0.000426      -0.000383
  13      -0.000007      -0.000021      -0.000003
  14      -0.000006      -0.000026      -0.000000
  15      -0.000022      -0.000025      -0.000000
  16      -0.000008      -0.000009      -0.000002
  17       0.000016      -0.000036      -0.000020
  18       0.000023      -0.000028      -0.000020
---------------------------------------------------
 Number of fixed atoms: 0
 Gradient time:  CPU 9.46 s  wall 2.90 s
 ----------------------------------------------------------------
             Standard Nuclear Orientation (Angstroms)
    I     Atom           X                Y                Z
 ----------------------------------------------------------------
    1      C      -2.4342025585     0.2284444545    -0.0077350295
    2      C      -0.0437093700     0.7012369894    -0.0993299956
    3      C       1.2319802862     0.1114135175    -0.5586662522
    4      H      -0.2910372667     1.6522727181    -0.5834539751
    5      H      -0.0464520052     0.8374068760     0.9845096004
    6      H       2.1166857935     1.2033287645    -0.3791164975
    7      O      -1.2357407245    -0.1980134515    -0.3916006888
    8      C      -3.5249366100    -0.7685564487    -0.3466831832
    9      H      -4.5046691301    -0.3293966084    -0.1495842161
   10      H      -3.4558135589    -1.0714220375    -1.3961152258
   11      H      -3.4046847583    -1.6703483545     0.2646980480
   12      O      -2.6443354804     1.2914358109     0.5657910597
   13      H       1.2410610291    -0.0822606514    -1.6416069896
   14      C       1.7615165796    -1.0570597867     0.2264962562
   15      O       2.5325418014    -1.8782785506    -0.3742441254
   16      O       1.4746246569    -1.1272180454     1.4709097898
   17      O       2.8278048677     2.2225073324    -0.2167253243
   18      H       2.9463204481     2.1925854713     0.7474417490
 ----------------------------------------------------------------
 Nuclear Repulsion Energy =   519.1837996243 hartrees
 There are       40 alpha and       40 beta electrons
 Discretize the solute cavity surface with Lebedev spheres
	Using 110 Lebedev grid points for each H atom
	Using 110 Lebedev grid points for other atoms
	Atomic van der Waals radii will be scaled by 1.20
 Remove points where switching function is < 1.0e-08
 Keep 1112 surface tesserae and discard 868 interior tesserae
 Molecular Surface Area = 202.688 Angst**2
 Requested basis set is 6-31G(d)
 There are 56 shells and 166 basis functions
 A cutoff of  1.0D-14 yielded   1350 shell pairs
 There are     12344 function pairs
 Smallest overlap matrix eigenvalue = 3.22E-03
 Guess MOs from SCF MO coefficient file
 Reading MOs from coefficient file
 Reading MOs from coefficient file
 A restricted hybrid HF-DFT SCF calculation will be
 performed using Pulay DIIS extrapolation
 Polarizable Continuum solvation model will be applied
 Exchange:     0.2000 Hartree-Fock + 0.0800 Slater + 0.7200 B88
 Correlation:  0.1900 VWN1RPA + 0.8100 LYP
 Using SG-1 standard quadrature grid
 SCF converges when DIIS error is below 1.0E-08
Using Q-Chem read-in guess as SCF_GUESS READ specified.

 using 4 threads for integral computing
 -------------------------------------------------------
 OpenMP Integral computing Module                
 Release: version 1.0, May 2013, Q-Chem Inc. Pittsburgh 
 -------------------------------------------------------
 -------------------------------------------------------
 OpenMP BLAS3 based DFT computing Module                
 Release: version 1.0, May 2013, Q-Chem Inc. Pittsburgh 
 -------------------------------------------------------
 ---------------------------------------
  Cycle       Energy         DIIS Error
 ---------------------------------------
    1    -571.3348619683      1.02E-03
    2    -571.6582856987      1.34E-03
    3    -571.6688682574      5.84E-04
    4    -571.6703736605      4.27E-04
    5    -571.6711090142      3.35E-04
    6    -571.6716351827      2.54E-04
    7    -571.6719713724      1.84E-04
    8    -571.6722240470      1.03E-04
    9    -571.6723222992      4.10E-05
   10    -571.6723393263      1.05E-05
   11    -571.6723404478      2.43E-06
   12    -571.6723405050      3.58E-07
   13    -571.6723405061      8.04E-08
   14    -571.6723405061      1.82E-08
   15    -571.6723405061      4.77E-09 Convergence criterion met
 ---------------------------------------

************** Final PCM Free Energy Summary **************
 G_electrostatic  =      -0.33731419 hartree =    -211.66784589 kcal/mol
 G_cavitation     =       0.00000000 hartree =       0.00000000 kcal/mol
[...]
 C          0.110 -0.134  0.114   -0.131 -0.132 -0.020    0.119  0.041  0.047
 O          0.106 -0.094 -0.178    0.064  0.002 -0.032    0.009 -0.049 -0.039
 O         -0.103  0.059  0.179    0.009  0.038  0.043   -0.041 -0.011  0.052
 O         -0.006 -0.011 -0.003   -0.036 -0.042  0.008    0.020  0.020 -0.003
 H         -0.014 -0.011 -0.002    0.109  0.160 -0.007   -0.045 -0.064  0.004
 TransDip   0.128 -0.061  0.083   -0.214  0.045  0.117    0.083  0.100  0.008

 Mode:                25                     26                     27
 Frequency:      1022.11                1033.59                1069.31
 Force Cnst:      1.1449                 1.0729                 1.2040
 Red. Mass:       1.8600                 1.7045                 1.7872
 IR Active:          YES                    YES                    YES
 IR Intens:       98.064                 28.579                 14.616
 Raman Active:       YES                    YES                    YES
               X      Y      Z        X      Y      Z        X      Y      Z
 C          0.035  0.006 -0.004   -0.049 -0.020 -0.011    0.023 -0.090  0.178
 C          0.056 -0.094  0.070    0.007 -0.069  0.053    0.002 -0.006  0.002
 C         -0.007  0.091 -0.119   -0.010  0.032 -0.092   -0.001  0.003 -0.004
 H          0.073 -0.271 -0.286    0.120 -0.151 -0.178    0.021 -0.008 -0.016
 H         -0.125  0.257  0.020   -0.028  0.225  0.017   -0.008  0.011 -0.001
 H         -0.110  0.076 -0.025   -0.048  0.070 -0.003   -0.005  0.006 -0.002
 O         -0.077  0.036  0.000    0.076  0.033 -0.011    0.001  0.016 -0.028
 C          0.070 -0.070 -0.038   -0.086  0.094  0.068   -0.026  0.073 -0.145
 H          0.279  0.332  0.133   -0.356 -0.407 -0.195   -0.065 -0.211  0.287
 H         -0.310 -0.072 -0.061    0.449  0.149  0.084   -0.302 -0.504  0.014
 H         -0.247 -0.053  0.044    0.298  0.040 -0.084    0.457  0.406  0.279
 O          0.007  0.022  0.008    0.006 -0.054 -0.027   -0.004  0.018 -0.034
 H         -0.296  0.410 -0.182   -0.099  0.352 -0.151   -0.021  0.022 -0.008
 C          0.005 -0.040  0.021    0.009 -0.009  0.009    0.001 -0.000  0.000
 O          0.016 -0.006 -0.026    0.009 -0.007 -0.020    0.000 -0.000 -0.001
 O         -0.018 -0.007  0.091   -0.015 -0.008  0.070   -0.001 -0.001  0.004
 O         -0.003 -0.010  0.001   -0.000 -0.004 -0.000   -0.000 -0.000  0.000
 H          0.023  0.037 -0.001    0.003  0.004 -0.001    0.001  0.002 -0.000
 TransDip   0.277 -0.142 -0.062   -0.169  0.005 -0.026   -0.002 -0.068  0.102

 Mode:                28                     29                     30
 Frequency:      1138.39                1233.53                1280.95
 Force Cnst:      1.7555                 1.0289                 2.4100
 Red. Mass:       2.2991                 1.1477                 2.4929
 IR Active:          YES                    YES                    YES
 IR Intens:       81.285                 15.047                622.955
 Raman Active:       YES                    YES                    YES
               X      Y      Z        X      Y      Z        X      Y      Z
 C         -0.022  0.004  0.008    0.012  0.001  0.001    0.286  0.031 -0.024
 C         -0.130  0.081  0.153    0.009 -0.015  0.073    0.040 -0.002 -0.011
 C          0.139 -0.150 -0.140   -0.034  0.036 -0.003    0.025 -0.026 -0.008
 H         -0.237 -0.004  0.026   -0.394 -0.226 -0.118   -0.649 -0.170  0.031
 H         -0.357  0.361  0.119    0.512  0.315  0.041   -0.410 -0.107 -0.004
 H          0.418 -0.253 -0.033   -0.291  0.182  0.048   -0.025 -0.035  0.002
 O          0.013 -0.032 -0.032   -0.004  0.010 -0.039   -0.106  0.069  0.042
 C          0.016 -0.012 -0.009   -0.002 -0.002  0.002   -0.066  0.022  0.021
 H          0.057  0.063  0.030   -0.006 -0.007 -0.006   -0.245 -0.299 -0.141
 H         -0.056 -0.008 -0.014   -0.003 -0.002  0.001    0.019 -0.144  0.062
 H         -0.037  0.001  0.019   -0.004 -0.009 -0.008    0.003 -0.109 -0.172
 O         -0.005  0.023  0.011   -0.003  0.004 -0.000   -0.023 -0.035 -0.015
 H          0.515  0.091 -0.170    0.402 -0.342  0.076   -0.058  0.045 -0.019
 C          0.001  0.038 -0.014   -0.031 -0.009 -0.002    0.035 -0.068  0.051
 O         -0.025  0.025  0.005    0.019 -0.016 -0.007   -0.034  0.040  0.020
 O          0.001 -0.012  0.020    0.004  0.005 -0.006    0.009  0.009 -0.054
 O         -0.006  0.011 -0.000    0.005 -0.005 -0.002    0.000  0.002 -0.000
 H         -0.009 -0.019 -0.000   -0.011 -0.006 -0.000   -0.002  0.002  0.001
 TransDip  -0.195  0.206 -0.055   -0.056  0.002  0.111    0.768 -0.223  0.001

 Mode:                31                     32                     33
 Frequency:      1310.49                1347.69                1398.03
 Force Cnst:      1.1626                 1.9898                 1.6143
 Red. Mass:       1.1490                 1.8594                 1.4018
 IR Active:          YES                    YES                    YES
 IR Intens:       24.630                104.389                  4.094
 Raman Active:       YES                    YES                    YES
               X      Y      Z        X      Y      Z        X      Y      Z
 C          0.053  0.008 -0.004    0.114  0.026 -0.003    0.037  0.019  0.003
 C         -0.003  0.018  0.033   -0.020 -0.021  0.014   -0.105  0.032  0.013
 C          0.001  0.025 -0.053   -0.077  0.070  0.018    0.079 -0.045  0.005
 H          0.498  0.139 -0.001    0.291 -0.058 -0.188    0.330  0.121 -0.037
 H         -0.468 -0.058  0.034    0.221 -0.078  0.012    0.494  0.074  0.013
 H         -0.429  0.290  0.023    0.606 -0.496 -0.085   -0.149  0.182  0.031
 O         -0.018 -0.016  0.019   -0.063  0.003  0.010   -0.031 -0.026 -0.010
 C         -0.008  0.005  0.002   -0.011  0.015  0.010    0.059  0.062  0.021
 H         -0.041 -0.056 -0.025   -0.095 -0.136 -0.066   -0.141 -0.315 -0.107
 H         -0.011 -0.037  0.012   -0.054 -0.107  0.036   -0.272 -0.283  0.089
 H         -0.012 -0.023 -0.034   -0.052 -0.072 -0.103   -0.293 -0.169 -0.236
 O         -0.007 -0.004 -0.000   -0.009 -0.021 -0.010   -0.003 -0.012 -0.005
 H          0.317 -0.344  0.022    0.196 -0.148  0.069   -0.199  0.172 -0.050
 C         -0.038  0.015 -0.013   -0.051  0.122 -0.076    0.022 -0.029 -0.004
 O          0.021 -0.019 -0.011    0.057 -0.071 -0.030   -0.023  0.027  0.012
 O          0.001 -0.000  0.016   -0.011 -0.015  0.076    0.000  0.001 -0.005
 O          0.007 -0.010 -0.000   -0.009  0.015  0.003    0.002 -0.006 -0.001
 H          0.009  0.016 -0.000    0.007  0.002  0.001   -0.004 -0.006 -0.001
 TransDip  -0.045  0.146 -0.046    0.122  0.236 -0.191   -0.062 -0.018 -0.000

 Mode:                34                     35                     36
 Frequency:      1420.21                1435.08                1482.51
 Force Cnst:      1.9845                 3.5237                 1.3726
 Red. Mass:       1.6699                 2.9040                 1.0600
 IR Active:          YES                    YES                    YES
 IR Intens:       85.985                321.270                 12.734
 Raman Active:       YES                    YES                    YES
               X      Y      Z        X      Y      Z        X      Y      Z
 C          0.128  0.027 -0.002   -0.012 -0.005 -0.001    0.010  0.016  0.005
 C         -0.092  0.034  0.018    0.037  0.046 -0.028   -0.011  0.022  0.015
 C          0.064 -0.035  0.005    0.119 -0.132  0.059    0.002  0.000 -0.004
 H          0.267  0.057 -0.111   -0.511 -0.112 -0.028   -0.005 -0.089 -0.194
 H          0.386 -0.026  0.024   -0.097 -0.220 -0.003    0.012 -0.198  0.038
 H         -0.095  0.107  0.021   -0.540  0.126  0.138    0.002  0.008 -0.005
 O         -0.055 -0.014 -0.001   -0.002  0.015  0.005    0.003  0.003  0.002
 C         -0.115 -0.091 -0.023    0.008  0.009  0.003    0.041 -0.020 -0.022
 H          0.121  0.378  0.071   -0.011 -0.030 -0.005   -0.138 -0.413  0.042
 H          0.355  0.299 -0.099   -0.022 -0.027  0.011   -0.137  0.489 -0.169
 H          0.429  0.162  0.230   -0.030 -0.015 -0.024   -0.337  0.281  0.488
 O         -0.013 -0.009 -0.003    0.002 -0.000 -0.000    0.001 -0.019 -0.010
 H         -0.138  0.109 -0.032   -0.386  0.160  0.019    0.015 -0.010 -0.003
 C          0.009 -0.006 -0.020   -0.105  0.210 -0.189    0.006 -0.009  0.002
 O         -0.011  0.013  0.007    0.066 -0.077 -0.026   -0.004  0.005  0.002
 O         -0.001 -0.002  0.009   -0.015 -0.029  0.135    0.000  0.001 -0.003
 O          0.001 -0.004 -0.001    0.016  0.004 -0.003   -0.000 -0.001  0.000
 H         -0.002 -0.004 -0.001   -0.018 -0.023  0.002    0.001  0.002 -0.000
 TransDip   0.259  0.142 -0.034   -0.340  0.294 -0.357    0.015  0.085  0.075

 Mode:                37                     38                     39
 Frequency:      1485.37                1491.69                1597.85
 Force Cnst:      1.4995                 1.3767                14.2204
 Red. Mass:       1.1535                 1.0501                 9.4534
 IR Active:          YES                    YES                    YES
 IR Intens:       52.113                  7.746                691.966
 Raman Active:       YES                    YES                    YES
               X      Y      Z        X      Y      Z        X      Y      Z
 C          0.038  0.020  0.008    0.009  0.010 -0.021    0.008  0.011  0.004
 C          0.022 -0.068 -0.044    0.000 -0.008 -0.004   -0.033  0.007  0.016
 C         -0.001 -0.005  0.012    0.001 -0.001  0.001    0.076 -0.058 -0.054
 H          0.029  0.287  0.609    0.009  0.032  0.066    0.061 -0.053 -0.134
 H         -0.005  0.634 -0.117    0.012  0.074 -0.012    0.126 -0.102  0.039
 H         -0.011 -0.024  0.020   -0.001 -0.003  0.003   -0.042  0.018  0.084
 O         -0.027 -0.010 -0.002   -0.006 -0.002  0.002   -0.006 -0.001 -0.002
 C          0.004 -0.016 -0.003   -0.019  0.018 -0.049   -0.002 -0.002 -0.001
 H         -0.057 -0.110 -0.073    0.060 -0.146  0.693    0.001  0.003  0.003
 H         -0.094  0.191 -0.067    0.541 -0.165  0.053    0.003 -0.003 -0.000
 H         -0.041  0.099  0.169   -0.395 -0.028 -0.016    0.000 -0.002 -0.001
 O         -0.003 -0.017 -0.009   -0.001  0.001  0.003    0.001 -0.007 -0.004
 H         -0.055  0.038  0.008   -0.007  0.005  0.000   -0.254  0.386 -0.104
 C         -0.019  0.032 -0.010   -0.002  0.003 -0.002   -0.353  0.268  0.592
 O          0.012 -0.014 -0.006    0.001 -0.001 -0.000    0.170 -0.177 -0.147
 O         -0.001 -0.003  0.010   -0.000 -0.000  0.001    0.069 -0.001 -0.256
 O          0.002  0.002 -0.001    0.000  0.000 -0.000    0.002  0.001 -0.003
 H         -0.005 -0.008  0.000   -0.001 -0.001 -0.000   -0.018 -0.029 -0.000
 TransDip  -0.121  0.196  0.021    0.026 -0.041  0.075   -0.431  0.332  0.643

 Mode:                40                     41                     42
 Frequency:      1664.23                1750.16                3014.85
 Force Cnst:      1.7206                18.0789                 5.7967
 Red. Mass:       1.0544                10.0177                 1.0824
 IR Active:          YES                    YES                    YES
 IR Intens:       28.450                473.424                149.992
 Raman Active:       YES                    YES                    YES
               X      Y      Z        X      Y      Z        X      Y      Z
 C         -0.000 -0.004 -0.002   -0.120  0.636  0.340   -0.000  0.000  0.000
 C         -0.002  0.001  0.003    0.040  0.025  0.009   -0.001 -0.008  0.004
 C          0.001  0.019 -0.040   -0.019 -0.001 -0.006    0.003 -0.012 -0.081
 H          0.022  0.003 -0.014   -0.150 -0.039 -0.066   -0.021  0.095 -0.051
 H         -0.008  0.000  0.002   -0.137 -0.094  0.039    0.004 -0.003 -0.005
 H          0.069 -0.111  0.913   -0.012  0.049  0.060    0.004  0.005 -0.002
 O          0.002 -0.000  0.000    0.028 -0.046 -0.027    0.000 -0.000  0.000
 C          0.000  0.000  0.000   -0.019 -0.057 -0.028    0.000  0.000  0.000
 H         -0.000 -0.001 -0.001    0.125  0.272  0.091   -0.001  0.001  0.000
 H         -0.000  0.001 -0.000   -0.049 -0.227  0.026    0.000 -0.000 -0.002
 H          0.001  0.001  0.001   -0.006 -0.127 -0.143    0.000 -0.001  0.001
 O         -0.000  0.003  0.001    0.070 -0.389 -0.209    0.000 -0.000 -0.000
 H         -0.130 -0.158 -0.010    0.031 -0.020 -0.005   -0.022  0.174  0.975
 C          0.016 -0.003  0.003    0.012 -0.015  0.002    0.002 -0.005 -0.001
 O         -0.004  0.003  0.001   -0.005  0.006  0.003   -0.001  0.001  0.001
 O         -0.002 -0.000 -0.001   -0.001  0.002 -0.003   -0.000  0.001 -0.000
 O          0.008  0.019 -0.031   -0.000 -0.001 -0.002   -0.000 -0.000 -0.000
 H         -0.178 -0.268 -0.003   -0.010 -0.014 -0.001    0.000  0.000  0.000
 TransDip   0.049 -0.055  0.154   -0.284  0.554  0.313    0.080 -0.060 -0.379

 Mode:                43                     44                     45
 Frequency:      3060.25                3066.07                3128.79
 Force Cnst:      5.8634                 5.7437                 6.3588
 Red. Mass:       1.0626                 1.0370                 1.1025
 IR Active:          YES                    YES                    YES
 IR Intens:       85.948                  4.418                 65.049
 Raman Active:       YES                    YES                    YES
               X      Y      Z        X      Y      Z        X      Y      Z
 C          0.002 -0.002 -0.001    0.002  0.001  0.000    0.000 -0.001 -0.000
 C          0.020 -0.067 -0.001    0.000  0.000  0.000   -0.007  0.021 -0.090
 C         -0.001  0.001  0.009   -0.000 -0.000 -0.000    0.000 -0.001 -0.005
 H         -0.206  0.769 -0.411   -0.000  0.001 -0.001    0.100 -0.355  0.175
 H          0.005  0.036  0.427    0.000 -0.000 -0.000   -0.012  0.108  0.900
 H         -0.003 -0.008 -0.003    0.000  0.001  0.000    0.001 -0.001  0.001
 O         -0.003 -0.001 -0.000   -0.000 -0.000 -0.000   -0.000 -0.000  0.000
 C         -0.001  0.000  0.000   -0.024 -0.045 -0.006   -0.001  0.001 -0.002
 H          0.003 -0.002 -0.001    0.395 -0.187 -0.081    0.006 -0.003 -0.002
 H          0.000  0.000 -0.002   -0.040  0.145  0.542   -0.002  0.005  0.017
 H          0.000 -0.001  0.001   -0.081  0.567 -0.394    0.002 -0.015  0.010
 O         -0.000  0.001  0.000   -0.000  0.000  0.000    0.000  0.000  0.000
 H          0.003 -0.016 -0.094   -0.000  0.001  0.003   -0.002  0.010  0.050
 C         -0.001  0.002 -0.001    0.000 -0.000  0.000    0.001 -0.000 -0.001
 O          0.000 -0.001 -0.000   -0.000  0.000  0.000   -0.000  0.000  0.000
 O         -0.000 -0.000  0.000   -0.000  0.000 -0.000   -0.001  0.000  0.000
 O          0.000  0.000  0.000   -0.000 -0.000 -0.000    0.000  0.000  0.000
 H          0.000  0.001 -0.001    0.000 -0.000  0.000   -0.000 -0.000 -0.000
 TransDip   0.075 -0.281  0.058   -0.044 -0.049 -0.011   -0.016  0.038 -0.255

 Mode:                46                     47                     48
 Frequency:      3132.08                3168.17                3705.54
 Force Cnst:      6.3597                 6.5323                 8.6256
 Red. Mass:       1.1003                 1.1046                 1.0662
 IR Active:          YES                    YES                    YES
 IR Intens:        9.225                 22.852                 10.689
 Raman Active:       YES                    YES                    YES
               X      Y      Z        X      Y      Z        X      Y      Z
 C          0.000  0.001 -0.000   -0.001  0.002  0.001   -0.000 -0.000 -0.000
 C          0.000 -0.001  0.002    0.000  0.000  0.000    0.000 -0.000 -0.000
 C         -0.000  0.000  0.000   -0.000 -0.000 -0.000    0.000 -0.000  0.000
 H         -0.003  0.009 -0.005   -0.000 -0.003  0.001   -0.000  0.000 -0.000
 H          0.000 -0.003 -0.024   -0.001 -0.001 -0.005   -0.000  0.000  0.001
 H          0.000  0.000  0.000    0.000  0.001  0.000    0.001  0.004 -0.012
 O         -0.000  0.000  0.000    0.000 -0.000 -0.000    0.000  0.000  0.000
 C         -0.014  0.034 -0.084   -0.070  0.053  0.035   -0.000  0.000 -0.000
 H          0.145 -0.061 -0.044    0.790 -0.358 -0.159   -0.000  0.000  0.000
 H         -0.053  0.207  0.684    0.019 -0.104 -0.391    0.000 -0.000 -0.000
 H          0.075 -0.558  0.366    0.015 -0.176  0.133    0.000 -0.000  0.000
 O         -0.000  0.000 -0.000    0.000 -0.001 -0.000    0.000  0.000  0.000
 H          0.000 -0.000 -0.001    0.000  0.000  0.001    0.001  0.001 -0.000
 C         -0.000 -0.000  0.000    0.000 -0.000  0.000   -0.000 -0.000 -0.000
 O         -0.000  0.000 -0.000   -0.000  0.000  0.000    0.000 -0.000  0.000
 O          0.000 -0.000 -0.000   -0.000  0.000 -0.000    0.000  0.000  0.000
 O         -0.000 -0.000 -0.000   -0.000 -0.000 -0.000   -0.008  0.001 -0.062
 H         -0.000  0.000  0.000   -0.000 -0.000 -0.000    0.125 -0.025  0.990
 TransDip  -0.029  0.026 -0.089   -0.132  0.063  0.046   -0.006  0.010 -0.104

 STANDARD THERMODYNAMIC QUANTITIES AT   298.15 K  AND     1.00 ATM

   This Molecule has  1 Imaginary Frequencies
   Zero point vibrational energy:       78.948 kcal/mol

   Atom    1 Element C  Has Mass   12.00000
   Atom    2 Element C  Has Mass   12.00000
   Atom    3 Element C  Has Mass   12.00000
   Atom    4 Element H  Has Mass    1.00783
   Atom    5 Element H  Has Mass    1.00783
   Atom    6 Element H  Has Mass    1.00783
   Atom    7 Element O  Has Mass   15.99491
   Atom    8 Element C  Has Mass   12.00000
   Atom    9 Element H  Has Mass    1.00783
   Atom   10 Element H  Has Mass    1.00783
   Atom   11 Element H  Has Mass    1.00783
   Atom   12 Element O  Has Mass   15.99491
   Atom   13 Element H  Has Mass    1.00783
   Atom   14 Element C  Has Mass   12.00000
   Atom   15 Element O  Has Mass   15.99491
   Atom   16 Element O  Has Mass   15.99491
   Atom   17 Element O  Has Mass   15.99491
   Atom   18 Element H  Has Mass    1.00783
   Molecular Mass:   148.037190 amu
   Principal axes and moments of inertia in amu*Bohr^2:
                             1           2           3
    Eigenvalues --     1000.06874  2838.78206  3430.72019
          X               0.99834     0.05647    -0.01090
          Y              -0.05584     0.99710     0.05180
          Z               0.01379    -0.05111     0.99860
   Rotational Symmetry Number is   1
   The Molecule is an Asymmetric Top
   Translational Enthalpy:        0.889 kcal/mol
   Rotational Enthalpy:           0.889 kcal/mol
   Vibrational Enthalpy:         84.802 kcal/mol
   gas constant (RT):             0.592 kcal/mol
   Translational Entropy:        40.887  cal/mol.K
   Rotational Entropy:           30.655  cal/mol.K
   Vibrational Entropy:          41.752  cal/mol.K

   Total Enthalpy:               87.172 kcal/mol
   Total Entropy:               113.294  cal/mol.K
Archival summary:
1\1\c5-66\FREQ\ProcedureUnspecified\6-31G*\558(2-,1)\alotsuki\MonMar1217:42:212018MonMar1217:42:212018\0\\#,FREQ,ProcedureUnspecified,6-31G*,\\-2,1\O\C,1,1.32902\O,2,1.22552,1,124.627\C,2,1.51634,1,111.886,3,-179.364,0\H,4,1.0916,2,109.914,1,-171.913,0\H,4,1.09445,2,110.578,1,-50.3399,0\H,4,1.09612,2,109.693,1,68.0189,0\C,1,1.52152,2,117.465,3,-0.0481837,0\H,8,1.09236,1,105.207,2,58.2493,0\H,8,1.09545,1,104.556,2,-56.8113,0\C,8,1.4786,1,112.365,2,179.272,0\H,11,1.10016,8,112.528,1,59.5855,0\H,11,1.41676,8,101.066,1,170.853,0\O,13,1.25331,11,175.92,8,-17.5618,0\H,14,0.971884,13,99.9446,11,94.8203,0\C,11,1.50407,8,116.839,1,-72.0114,0\O,16,1.27662,11,117.822,8,154.65,0\O,16,1.27898,11,118.136,8,-29.2066,0\\\@

 Total job time:  1786.32s(wall), 6733.81s(cpu) 
 Mon Mar 12 17:42:21 2018

        *************************************************************
        *                                                           *
        *  Thank you very much for using Q-Chem.  Have a nice day.  *
        *                                                           *
        *************************************************************


