18   
From 2-transition-freq.out: Frame 1 / 109, Energy=    -571.6723411811
C       -2.4342025585    0.2284444545   -0.0067350295
C       -0.0437093700    0.7012369894   -0.0993299956
C        1.2319802862    0.1114135175   -0.5586662522
H       -0.2910372667    1.6522727181   -0.5834539751
H       -0.0464520052    0.8374068760    0.9845096004
H        2.1166857935    1.2033287645   -0.3791164975
O       -1.2357407245   -0.1980134515   -0.3916006888
C       -3.5249366100   -0.7685564487   -0.3466831832
H       -4.5046691301   -0.3293966084   -0.1495842161
H       -3.4558135589   -1.0714220375   -1.3961152258
H       -3.4046847583   -1.6703483545    0.2646980480
O       -2.6443354804    1.2914358109    0.5657910597
H        1.2410610291   -0.0822606514   -1.6416069896
C        1.7615165796   -1.0570597867    0.2264962562
O        2.5325418014   -1.8782785506   -0.3742441254
O        1.4746246569   -1.1272180454    1.4709097898
O        2.8278048677    2.2225073324   -0.2167253243
H        2.9463204481    2.1925854713    0.7474417490
