18   
From 3-product-grad.out: Frame 1 / 1, Energy=    -571.7360464052
C       -3.1274558315   -0.4396003194   -1.0787048137
C        0.5656038142    0.8123900293    0.3756345717
C        1.0430911957   -0.3076792631   -0.1763626566
H       -0.4944388498    1.0499060825    0.2953382632
H        1.2116208505    1.5063073931    0.9078776067
H        3.2580713513    3.0219455570    0.7158462776
O       -2.2813794913   -1.3022953477   -1.4490883111
C       -4.6031586392   -0.7401018045   -1.4371903834
H       -5.2381291274    0.1445387060   -1.3247882488
H       -4.6836191005   -1.1193536726   -2.4624761630
H       -4.9890282753   -1.5253084497   -0.7731389753
O       -2.9024840743    0.6211778429   -0.4296113755
H        0.3513154894   -0.9693291417   -0.6978031359
C        2.4851604907   -0.7759892937   -0.1487025018
O        2.7105682016   -1.8794434602   -0.7110136782
O        3.3627602503   -0.0523565758    0.4262965005
O        3.3768233128    2.4491727030    1.4895342280
H        3.3243588895    1.5360699100    1.0968164206
