
Running Job 1 of 1 qc-freq2.in
qchem qc-freq2.in_4887.0 /scratch/lmgong/1862650/qc-freq2.d/ 1
/home/leeping/opt/qchem/5.0.2-openmp/exe/qcprog.exe_s qc-freq2.in_4887.0 /scratch/lmgong/1862650/qc-freq2.d/
Check license passed

                  Welcome to Q-Chem
     A Quantum Leap Into The Future Of Chemistry


 Q-Chem 5.0, Q-Chem, Inc., Pleasanton, CA (2017)

 Yihan Shao,  Zhengting Gan,  E. Epifanovsky,  A. T. B. Gilbert,  M. Wormit,  
 J. Kussmann,  A. W. Lange,  A. Behn,  Jia Deng,  Xintian Feng,  D. Ghosh,  
 M. Goldey,  P. R. Horn,  L. D. Jacobson,  I. Kaliman,  T. Kus,  A. Landau,  
 Jie Liu,  E. I. Proynov,  R. M. Richard,  R. P. Steele,  E. J. Sundstrom,  
 H. L. Woodcock III,  P. M. Zimmerman,  D. Zuev,  B. Albrecht,  E. Alguire,  
 S. A. Baeppler,  D. Barton,  Z. Benda,  Y. A. Bernard,  E. J. Berquist,  
 K. B. Bravaya,  H. Burton,  D. Casanova,  Chun-Min Chang,  Yunqing Chen,  
 A. Chien,  K. D. Closser,  M. P. Coons,  S. Dasgupta,  A. L. Dempwolff,  
 M. Diedenhofen,  Hainam Do,  R. G. Edgar,  Po-Tung Fang,  S. Fatehi,  
 Qingguo Feng,  J. Fosso-Tande,  Qinghui Ge,  A. Ghysels,  G. Gidofalvi,  
 J. Gomes,  J. Gonthier,  A. Gunina,  M. W. D. Hanson-Heine,  
 P. H. P. Harbach,  A. W. Hauser,  J. E. Herr,  E. G. Hohenstein,  
 Z. C. Holden,  Kerwin Hui,  T.-C. Jagau,  Hyunjun Ji,  B. Kaduk,  
 K. Khistyaev,  Jaehoon Kim,  P. Klunzinger,  K. Koh,  D. Kosenkov,  
 L. Koulias,  T. Kowalczyk,  C. M. Krauter,  A. Kunitsa,  Ka Un Lao,  
 A. Laurent,  K. V. Lawler,  Joonho Lee,  D. Lefrancois,  S. Lehtola,  
 D. S. Levine,  Yi-Pei Li,  You-Sheng Lin,  Fenglai Liu,  E. Livshits,  
 A. Luenser,  P. Manohar,  E. Mansoor,  S. F. Manzer,  Shan-Ping Mao,  
 Yuezhi Mao,  N. Mardirossian,  A. V. Marenich,  T. Markovich,  
 L. A. Martinez-Martinez,  S. A. Maurer,  N. J. Mayhall,  S. C. McKenzie,  
 J.-M. Mewes,  A. F. Morrison,  J. W. Mullinax,  K. Nanda,  
 T. S. Nguyen-Beck,  R. Olivares-Amaya,  J. A. Parkhill,  T. M. Perrine,  
 F. Plasser,  S. Prager,  A. Prociuk,  E. Ramos,  D. R. Rehn,  F. Rob,  
 M. Schneider,  N. Sergueev,  S. M. Sharada,  S. Sharma,  D. W. Small,  
 T. Stauch,  T. Stein,  Yu-Chuan Su,  A. J. W. Thom,  A. Tkatchenko,  
 T. Tsuchimochi,  L. Vogt,  O. Vydrov,  M. A. Watson,  J. Wenzel,  
 M. de Wergifosse,  T. A. Wesolowski,  A. White,  J. Witte,  A. Yamada,  
 Jun Yang,  K. Yao,  S. Yeganeh,  S. R. Yost,  Zhi-Qiang You,  A. Zech,  
 Igor Ying Zhang,  Xing Zhang,  Yan Zhao,  Ying Zhu,  B. R. Brooks,  
 G. K. L. Chan,  C. J. Cramer,  M. S. Gordon,  W. J. Hehre,  A. Klamt,  
 M. W. Schmidt,  C. D. Sherrill,  D. G. Truhlar,  A. Aspuru-Guzik,  R. Baer,  
 A. T. Bell,  N. A. Besley,  Jeng-Da Chai,  R. A. DiStasio Jr.,  A. Dreuw,  
 B. D. Dunietz,  T. R. Furlani,  Chao-Ping Hsu,  Yousung Jung,  Jing Kong,  
 D. S. Lambrecht,  WanZhen Liang,  C. Ochsenfeld,  V. A. Rassolov,  
 L. V. Slipchenko,  J. E. Subotnik,  T. Van Voorhis,  J. M. Herbert,  
 A. I. Krylov,  P. M. W. Gill,  M. Head-Gordon

 Contributors to earlier versions of Q-Chem not listed above: 
 R. D. Adamson,  B. Austin,  J. Baker,  G. J. O. Beran,  K. Brandhorst,  
 S. T. Brown,  E. F. C. Byrd,  A. K. Chakraborty,  C.-L. Cheng,  
 Siu Hung Chien,  D. M. Chipman,  D. L. Crittenden,  H. Dachsel,  
 R. J. Doerksen,  A. D. Dutoi,  L. Fusti-Molnar,  W. A. Goddard III,  
 A. Golubeva-Zadorozhnaya,  S. R. Gwaltney,  G. Hawkins,  A. Heyden,  
 S. Hirata,  G. Kedziora,  F. J. Keil,  C. Kelley,  Jihan Kim,  R. A. King,  
 R. Z. Khaliullin,  P. P. Korambath,  W. Kurlancheek,  A. M. Lee,  M. S. Lee,  
 S. V. Levchenko,  Ching Yeh Lin,  D. Liotard,  R. C. Lochan,  I. Lotan,  
 P. E. Maslen,  N. Nair,  D. P. O'Neill,  D. Neuhauser,  E. Neuscamman,  
 C. M. Oana,  R. Olson,  B. Peters,  R. Peverati,  P. A. Pieniazek,  
 Y. M. Rhee,  J. Ritchie,  M. A. Rohrdanz,  E. Rosta,  N. J. Russ,  
 H. F. Schaefer III,  N. E. Schultz,  N. Shenvi,  A. C. Simmonett,  A. Sodt,  
 D. Stuck,  K. S. Thanthiriwatte,  V. Vanovschi,  Tao Wang,  A. Warshel,  
 C. F. Williams,  Q. Wu,  X. Xu,  W. Zhang

 Please cite Q-Chem as follows:
 Y. Shao et al., Mol. Phys. 113, 184-215 (2015)
 DOI: 10.1080/00268976.2014.952696

 Q-Chem 5.0.2 for Intel X86 EM64T Linux

 Parts of Q-Chem use Armadillo 5.200.1 (Boston Tea Smuggler).
 http://arma.sourceforge.net/

 Q-Chem begins on Fri Mar 20 12:07:41 2020  

Host: 
0

     Scratch files written to /scratch/lmgong/1862650/qc-freq2.d//
 Dec517 15110_ 26548  26544 5633   
Processing $rem in /home/leeping/opt/qchem/5.0.2-openmp/config/preferences.
 MEM_STATIC 2000
 MEM_TOTAL  8000
 SYMMETRY   OFF
 SYM_IGNORE TRUE 
Symmetry turned off for PCM/SM12/SMD calculation

Checking the input file for inconsistencies... 	...done.

--------------------------------------------------------------
User input:
--------------------------------------------------------------
$molecule
-2 1
C       -0.5845941601   -1.6486433058    0.6594130020
C       -1.6624606615   -2.7059261262    0.3700651765
O       -1.4255645855   -3.8665900865    0.7935396443
O       -2.6899218043   -2.3431943697   -0.2563922124
C       -0.9109358886   -0.2822024251    0.0991508736
H        0.3644313196   -2.0060330063    0.2454354398
H       -0.4521098435   -1.5881785973    1.7451285553
O        0.1851947613    0.5965049176    0.4526219683
H       -1.8333453878    0.1215138724    0.5217369055
H       -1.0056819740   -0.3021463801   -0.9887124383
C        0.1199774383    1.8483885440   -0.0051956974
C        1.3327571985    2.6470689398    0.3781545492
H        1.5450378641    2.5248095846    1.4422462086
H        1.1748382326    3.6977794129    0.1395425708
H        2.1922274627    2.2691033637   -0.1832155060
O       -0.8111486951    2.2677500321   -0.6613926514
O        1.3694191781    0.5091884336   -3.0030640687
H        0.5733733314    0.9061060485   -2.6341842753
$end

$rem
jobtype               freq
method                wb97x-v
basis                 def2-tzvpd
symmetry              off
sym_ignore            true
incdft                false
incfock               0
!scf_algorithm        diis_gdm
scf_convergence       8
thresh                14
!purecart             112
max_scf_cycles        1000
geom_opt_max_cycles   500
geom_opt_dmax         100
geom_opt_tol_gradient 10
solvent_method        pcm
ideriv                1
rpath_tol_displacement 1000
rpath_max_cycles      100
rpath_direction       1
!scf_guess            read
scf_guess             read
$end

$pcm
theory              cosmo
method              iswig
Radii               bondi
vdwScale            1.20
hpoints             110
heavypoints         110
$end

$solvent
dielectric 78.400000
$end

--------------------------------------------------------------
 ----------------------------------------------------------------
             Standard Nuclear Orientation (Angstroms)
    I     Atom           X                Y                Z
 ----------------------------------------------------------------
    1      C      -0.5845941601    -1.6486433058     0.6594130020
    2      C      -1.6624606615    -2.7059261262     0.3700651765
    3      O      -1.4255645855    -3.8665900865     0.7935396443
    4      O      -2.6899218043    -2.3431943697    -0.2563922124
    5      C      -0.9109358886    -0.2822024251     0.0991508736
    6      H       0.3644313196    -2.0060330063     0.2454354398
    7      H      -0.4521098435    -1.5881785973     1.7451285553
    8      O       0.1851947613     0.5965049176     0.4526219683
    9      H      -1.8333453878     0.1215138724     0.5217369055
   10      H      -1.0056819740    -0.3021463801    -0.9887124383
   11      C       0.1199774383     1.8483885440    -0.0051956974
   12      C       1.3327571985     2.6470689398     0.3781545492
   13      H       1.5450378641     2.5248095846     1.4422462086
   14      H       1.1748382326     3.6977794129     0.1395425708
   15      H       2.1922274627     2.2691033637    -0.1832155060
   16      O      -0.8111486951     2.2677500321    -0.6613926514
   17      O       1.3694191781     0.5091884336    -3.0030640687
   18      H       0.5733733314     0.9061060485    -2.6341842753
 ----------------------------------------------------------------
 Nuclear Repulsion Energy =   512.5968926269 hartrees
 There are       40 alpha and       40 beta electrons
 Requested basis set is def2-TZVPD
 There are 175 shells and 457 basis functions

 Total QAlloc Memory Limit   8000 MB
 Mega-Array Size      1956 MB
 MEM_STATIC part      2000 MB
 Discretize the solute cavity surface with Lebedev spheres
	Using 110 Lebedev grid points for each H atom
	Using 110 Lebedev grid points for other atoms
	Atomic van der Waals radii will be scaled by 1.20
 Remove points where switching function is < 1.0e-08
 Keep 1149 surface tesserae and discard 831 interior tesserae
 Molecular Surface Area = 211.891 Angst**2
 A cutoff of  1.0D-14 yielded  13672 shell pairs
 There are     92978 function pairs (    118030 Cartesian)
 
 -------------------------------------------------------
 OpenMP Integral Computing Module                       
 Release: version 1.0, May 2013, Q-Chem Inc. Pittsburgh 
 -------------------------------------------------------
 Integral Job Info:
 Integral job number is                      11
 Integral operator is                         1
 short-range coefficients              16700000
 long-range coefficients              100000000
 Omega coefficients                         300
 if combine SR and LR in K                    1
 Integral screening is                        0
 Integral computing path is                   2
 max size of driver memory is            800000
 size of driver memory is                776718
 size of scratch memory is              4473992
 max col of scratch BK array              10000
 max len of scratch array in speh3          662
 max len of scratch index in speh4           32
 max int batch size is                      520
 min int batch size is                       52
 fixed nKL is                                52
 max L of basis functions is                  3
 order of int derivative is                   0
 number of shells is                        175
 number of basis is                         517
 number of cartesian basis is               517
 number of contracted shell pairs         13672
 number of primitive shell pairs          27445
 maxK2 (contraction) of shell pair           36
 max number of K2 of shell pair               1
 max number of CS2 of shell pair           2301
 max number of PS2 of shell pair           3150
 mem total for path MDJ                  762652
 -------------------------------------------------------
 Smallest overlap matrix eigenvalue = 3.96E-06
 Guess MOs from SCF MO coefficient file
 Reading MOs from coefficient file
 Reading MOs from coefficient file
 Long-range K will be added via erf
 Coulomb attenuation parameter = 0.3 bohr**(-1)
 A restricted hybrid HF-DFT SCF calculation will be
 performed using Pulay DIIS extrapolation
 Polarizable Continuum solvation model will be applied
 Exchange:     0.1670 Hartree-Fock + 1.0000 wB97X-V + LR-HF
 Correlation:  1.0000 wB97X-V
 Using SG-2 standard quadrature grid
 Nonlocal Correlation:  VV10 with C = 0.0100 and b = 6.00
 Grid used for NLC:  SG-1 standard quadrature
 SCF converges when DIIS error is below 1.0E-08
Using Q-Chem read-in guess as SCF_GUESS READ specified.

 using 16 threads for integral computing
 -------------------------------------------------------
 OpenMP Integral computing Module                
 Release: version 1.0, May 2013, Q-Chem Inc. Pittsburgh 
 -------------------------------------------------------
 using 16 threads for integral computing
 -------------------------------------------------------
 OpenMP Integral computing Module                
 Release: version 1.0, May 2013, Q-Chem Inc. Pittsburgh 
 -------------------------------------------------------
 -------------------------------------------------------
 OpenMP BLAS3 based DFT computing Module                
 Release: version 1.0, May 2013, Q-Chem Inc. Pittsburgh 
 -------------------------------------------------------
 -------------------------------------------------------
 OpenMP BLAS3 based DFT computing Module                
 Release: version 1.0, May 2013, Q-Chem Inc. Pittsburgh 
 -------------------------------------------------------
 -------------------------------------------------------
 OpenMP BLAS3 based DFT computing Module                
 Release: version 1.0, May 2013, Q-Chem Inc. Pittsburgh 
 -------------------------------------------------------
 ---------------------------------------
  Cycle       Energy         DIIS Error
 ---------------------------------------
    1    -571.4835719958      4.39E-04
    2    -571.8017981719      5.07E-04
    3    -571.8105524384      2.35E-04
    4    -571.8119641181      1.65E-04
    5    -571.8128925442      1.23E-04
    6    -571.8133598269      9.52E-05
    7    -571.8136474424      7.33E-05
    8    -571.8138472873      5.30E-05
    9    -571.8139415464      4.00E-05
   10    -571.8140005198      2.91E-05
   11    -571.8140262684      2.27E-05
   12    -571.8140443500      1.68E-05
   13    -571.8140517752      1.36E-05
   14    -571.8140562076      1.13E-05
   15    -571.8140595102      9.23E-06
   16    -571.8140622819      7.02E-06
   17    -571.8140661041      6.63E-09 Convergence criterion met
 ---------------------------------------

************** Final PCM Free Energy Summary **************
 G_electrostatic  =      -0.33049583 hartree =    -207.38926459 kcal/mol
 G_cavitation     =       0.00000000 hartree =       0.00000000 kcal/mol
 G_dispersion     =       0.00000000 hartree =       0.00000000 kcal/mol
 G_repulsion      =       0.00000000 hartree =       0.00000000 kcal/mol
 --------------------------------------------------
 Non-electrostatic Free Energy =       0.00000000 hartree =       0.00000000 kcal/mol
 Total                         =      -0.33049583 hartree =    -207.38926459 kcal/mol
 --------------------------------------------------
 SCF Energy (H0 + V/2)                       =    -571.81406610 
 Solute Internal Energy (H0)                 =    -571.48357027 
 Total Free Energy (H0 + V/2 + non-elec)     =    -571.81406610 hartree
                                             = -358818.74213132 kcal/mol
***********************************************************

 SCF time:  CPU 3887.47 s  wall 281.36 s
 SCF   energy in the final basis set = -571.81406610
 Total energy in the final basis set = -571.81406610
 
 --------------------------------------------------------------
 
                    Orbital Energies (a.u.)
 --------------------------------------------------------------
 
 Alpha MOs
 -- Occupied --
-19.255 -19.200 -19.144 -19.141 -19.092 -10.401 -10.346 -10.314
-10.268 -10.256  -1.239  -1.148  -1.145  -1.054  -0.965  -0.914
 -0.865  -0.769  -0.684  -0.618  -0.615  -0.598  -0.585  -0.562
 -0.533  -0.524  -0.514  -0.509  -0.485  -0.476  -0.450  -0.447
 -0.443  -0.408  -0.388  -0.350  -0.340  -0.335  -0.312  -0.312
 -- Virtual --
  0.058   0.072   0.081   0.086   0.098   0.099   0.101   0.110
  0.121   0.125   0.127   0.132   0.142   0.145   0.154   0.158
  0.162   0.172   0.172   0.179   0.193   0.205   0.208   0.212
  0.213   0.226   0.229   0.238   0.239   0.245   0.255   0.257
  0.271   0.282   0.288   0.289   0.296   0.301   0.304   0.313
  0.320   0.328   0.334   0.340   0.345   0.350   0.355   0.360
  0.365   0.371   0.374   0.381   0.384   0.386   0.394   0.400
  0.407   0.412   0.417   0.424   0.427   0.432   0.436   0.446
  0.452   0.456   0.459   0.463   0.472   0.477   0.487   0.491
  0.492   0.495   0.501   0.505   0.510   0.521   0.525   0.530
  0.537   0.542   0.543   0.549   0.553   0.562   0.571   0.580
  0.583   0.588   0.591   0.598   0.600   0.613   0.615   0.616
  0.624   0.633   0.638   0.644   0.655   0.668   0.670   0.678
  0.690   0.690   0.702   0.709   0.721   0.728   0.733   0.736
  0.746   0.751   0.761   0.767   0.775   0.778   0.789   0.793
  0.803   0.806   0.807   0.812   0.820   0.826   0.836   0.839
  0.848   0.858   0.859   0.865   0.870   0.878   0.892   0.901
  0.907   0.915   0.931   0.935   0.959   0.967   0.979   1.001
  1.010   1.016   1.027   1.036   1.048   1.064   1.077   1.080
  1.089   1.100   1.115   1.126   1.145   1.157   1.162   1.176
  1.201   1.211   1.213   1.231   1.240   1.263   1.269   1.279
  1.296   1.299   1.329   1.346   1.356   1.374   1.384   1.389
  1.402   1.414   1.428   1.435   1.460   1.473   1.501   1.522
  1.560   1.596   1.662   1.686   1.706   1.740   1.755   1.773
  1.787   1.822   1.843   1.868   1.892   1.907   1.919   1.925
  1.932   1.941   1.945   1.957   1.962   1.969   1.983   1.990
  2.003   2.009   2.013   2.020   2.046   2.074   2.098   2.123
  2.157   2.170   2.195   2.205   2.209   2.232   2.245   2.253
  2.286   2.288   2.302   2.322   2.329   2.339   2.365   2.388
  2.432   2.435   2.439   2.469   2.480   2.486   2.504   2.511
  2.529   2.568   2.574   2.592   2.628   2.657   2.660   2.678
  2.693   2.722   2.738   2.774   2.787   2.795   2.833   2.857
  2.867   2.884   2.906   2.931   2.964   2.976   2.978   2.996
  3.015   3.028   3.057   3.061   3.086   3.087   3.118   3.132
  3.164   3.209   3.231   3.248   3.259   3.282   3.293   3.306
  3.320   3.339   3.344   3.358   3.370   3.389   3.408   3.431
  3.441   3.457   3.465   3.479   3.488   3.512   3.521   3.531
  3.533   3.559   3.566   3.582   3.601   3.622   3.644   3.648
  3.661   3.668   3.681   3.691   3.703   3.716   3.729   3.738
  3.776   3.793   3.808   3.823   3.900   3.929   3.982   4.009
  4.067   4.083   4.091   4.100   4.128   4.168   4.193   4.244
  4.302   4.351   4.461   4.526   4.570   4.584   4.613   4.658
  4.701   4.734   4.783   4.812   4.827   4.837   4.887   5.025
  5.065   5.134   5.206   5.290   5.322   5.351   5.354   5.358
  5.359   5.370   5.377   5.379   5.397   5.434   5.505   5.582
  5.656   5.676   5.687   5.707   5.728   5.758   5.777   5.850
  6.004   6.068   6.144   6.251   6.312   6.318   6.328   6.340
  6.438   6.471   6.625   6.627   6.631   6.642   6.648   6.651
  6.694   6.718   6.725   6.746   6.759   6.778   6.818   6.913
  6.962   6.969   6.971   7.046   7.054   7.081   7.245   7.252
  7.279   7.358   7.389   7.411   7.414   7.548   7.651  22.632
 22.850  22.883  23.634  23.742  43.924  44.258  44.417  44.436
 44.647
 --------------------------------------------------------------
 
          Ground-State Mulliken Net Atomic Charges

     Atom                 Charge (a.u.)
  ----------------------------------------
      1 C                    -0.110199
      2 C                     0.049394
      3 O                    -0.703790
      4 O                    -0.689965
      5 C                    -0.185988
      6 H                     0.248132
      7 H                     0.245444
      8 O                    -0.198012
      9 H                     0.234321
     10 H                     0.219723
     11 C                     0.483305
     12 C                    -0.783582
     13 H                     0.263230
     14 H                     0.240890
     15 H                     0.208700
     16 O                    -0.520337
     17 O                    -1.116672
     18 H                     0.115407
  ----------------------------------------
  Sum of atomic charges =    -2.000000

 -----------------------------------------------------------------
                    Cartesian Multipole Moments
 -----------------------------------------------------------------
    Charge (ESU x 10^10)
                -9.6064
    Dipole Moment (Debye)
         X       4.8852      Y      12.3118      Z      15.3578
       Tot      20.2807
    Quadrupole Moments (Debye-Ang)
        XX    -102.0055     XY     -28.8576     YY    -125.4109
        XZ      20.5381     YZ      17.6060     ZZ    -113.4826
    Octopole Moments (Debye-Ang^2)
       XXX     140.6705    XXY      85.8645    XYY     148.4720
       YYY     267.3230    XXZ      54.7663    XYZ       4.7356
       YYZ      -2.3201    XZZ     -39.6884    YZZ       2.1711
       ZZZ     198.3268
    Hexadecapole Moments (Debye-Ang^3)
      XXXX   -1014.9123   XXXY    -592.8100   XXYY    -675.0875
      XYYY    -726.9340   YYYY   -2728.4450   XXXZ     132.9913
      XXYZ      65.7545   XYYZ      75.7407   YYYZ     312.2556
      XXZZ    -342.6424   XYZZ    -179.8311   YYZZ    -476.6158
      XZZZ     326.5599   YZZZ     215.9640   ZZZZ   -1142.5264
 -----------------------------------------------------------------
 Calculating analytic gradient of the SCF energy
 Gradient of SCF Energy
            1           2           3           4           5           6
    1   0.0689510  -0.0263167  -0.0016507   0.0480456  -0.0929682  -0.0514068
    2   0.0034838  -0.0272619   0.0529715  -0.0114996  -0.0218301   0.0240537
    3   0.0092635  -0.0072914  -0.0176936   0.0233182  -0.0283014   0.0329655
            7           8           9          10          11          12
    1   0.0008172   0.0078973   0.0550804  -0.0022054  -0.0390954   0.0276905
    2  -0.0022771   0.0318219  -0.0215172  -0.0030929  -0.0191108   0.0424138
    3  -0.0547753  -0.0016219  -0.0255309   0.0800798  -0.0434735  -0.0002414
           13          14          15          16          17          18
    1  -0.0107852   0.0106151  -0.0519367   0.0559164  -0.0538438   0.0551954
    2   0.0078591  -0.0617580   0.0251229  -0.0145836   0.0212524  -0.0260479
    3  -0.0522007   0.0157457   0.0336674   0.0346488   0.0519284  -0.0504871
 Max gradient component =       9.297E-02
 RMS gradient           =       3.754E-02
 Computing fast CPCM-ISWIG gradient
 Updating gradient with PCM contributions...
 -- total gradient after adding PCM contribution --
---------------------------------------------------
  Atom         X              Y              Z     
---------------------------------------------------
   1       0.000004       0.000005      -0.000002
   2       0.000001      -0.000003       0.000001
   3      -0.000004       0.000003       0.000006
   4       0.000004      -0.000002       0.000000
   5      -0.000006      -0.000004      -0.000002
   6      -0.000001       0.000002      -0.000003
   7       0.000003      -0.000003       0.000000
   8       0.000003      -0.000002       0.000006
   9       0.000000      -0.000001       0.000004
  10      -0.000001       0.000002       0.000002
  11      -0.000002       0.000007      -0.000004
  12      -0.000009       0.000010       0.000004
  13       0.000005      -0.000005      -0.000004
  14       0.000001      -0.000002      -0.000004
  15       0.000002      -0.000000      -0.000003
  16       0.000004      -0.000003      -0.000000
  17      -0.000004       0.000000      -0.000003
  18      -0.000001      -0.000004       0.000001
---------------------------------------------------
 Number of fixed atoms: 0
 Gradient time:  CPU 832.57 s  wall 61.34 s
 ######################################################
 ######################################################
 # Starting finite difference calculation for IDERIV  #
 Finite diff step size:  1.88973e-03 a.u.
 ----------------------------------------------------------------
             Standard Nuclear Orientation (Angstroms)
    I     Atom           X                Y                Z
 ----------------------------------------------------------------
    1      C      -0.5835941601    -1.6486433058     0.6594130020
    2      C      -1.6624606615    -2.7059261262     0.3700651765
    3      O      -1.4255645855    -3.8665900865     0.7935396443
    4      O      -2.6899218043    -2.3431943697    -0.2563922124
    5      C      -0.9109358886    -0.2822024251     0.0991508736
    6      H       0.3644313196    -2.0060330063     0.2454354398
    7      H      -0.4521098435    -1.5881785973     1.7451285553
    8      O       0.1851947613     0.5965049176     0.4526219683
    9      H      -1.8333453878     0.1215138724     0.5217369055
   10      H      -1.0056819740    -0.3021463801    -0.9887124383
   11      C       0.1199774383     1.8483885440    -0.0051956974
   12      C       1.3327571985     2.6470689398     0.3781545492
   13      H       1.5450378641     2.5248095846     1.4422462086
   14      H       1.1748382326     3.6977794129     0.1395425708
   15      H       2.1922274627     2.2691033637    -0.1832155060
   16      O      -0.8111486951     2.2677500321    -0.6613926514
   17      O       1.3694191781     0.5091884336    -3.0030640687
   18      H       0.5733733314     0.9061060485    -2.6341842753
 ----------------------------------------------------------------
 Nuclear Repulsion Energy =   512.5887641440 hartrees
 There are       40 alpha and       40 beta electrons
 Discretize the solute cavity surface with Lebedev spheres
	Using 110 Lebedev grid points for each H atom
	Using 110 Lebedev grid points for other atoms
	Atomic van der Waals radii will be scaled by 1.20
 Remove points where switching function is < 1.0e-08
 Keep 1149 surface tesserae and discard 831 interior tesserae
 Molecular Surface Area = 211.893 Angst**2
 Requested basis set is def2-TZVPD
 There are 175 shells and 457 basis functions
 A cutoff of  1.0D-14 yielded  13672 shell pairs
 There are     92978 function pairs (    118030 Cartesian)
 Smallest overlap matrix eigenvalue = 3.96E-06
 Guess MOs from SCF MO coefficient file
 Reading MOs from coefficient file
 Reading MOs from coefficient file
 Long-range K will be added via erf
 Coulomb attenuation parameter = 0.3 bohr**(-1)
 A restricted hybrid HF-DFT SCF calculation will be
 performed using Pulay DIIS extrapolation
 Polarizable Continuum solvation model will be applied
 Exchange:     0.1670 Hartree-Fock + 1.0000 wB97X-V + LR-HF
 Correlation:  1.0000 wB97X-V
 Using SG-2 standard quadrature grid
 Nonlocal Correlation:  VV10 with C = 0.0100 and b = 6.00
 Grid used for NLC:  SG-1 standard quadrature
 SCF converges when DIIS error is below 1.0E-08
Using Q-Chem read-in guess as SCF_GUESS READ specified.

 using 16 threads for integral computing
 -------------------------------------------------------
 OpenMP Integral computing Module                
 Release: version 1.0, May 2013, Q-Chem Inc. Pittsburgh 
 -------------------------------------------------------
 using 16 threads for integral computing
 -------------------------------------------------------
 OpenMP Integral computing Module                
 Release: version 1.0, May 2013, Q-Chem Inc. Pittsburgh 
 -------------------------------------------------------
 -------------------------------------------------------
 OpenMP BLAS3 based DFT computing Module                
 Release: version 1.0, May 2013, Q-Chem Inc. Pittsburgh 
 -------------------------------------------------------
 -------------------------------------------------------
 OpenMP BLAS3 based DFT computing Module                
 Release: version 1.0, May 2013, Q-Chem Inc. Pittsburgh 
 -------------------------------------------------------
 -------------------------------------------------------
 OpenMP BLAS3 based DFT computing Module                
 Release: version 1.0, May 2013, Q-Chem Inc. Pittsburgh 
 -------------------------------------------------------
 ---------------------------------------
  Cycle       Energy         DIIS Error
 ---------------------------------------
    1    -571.4838559556      4.39E-04
    2    -571.8017941991      5.07E-04
    3    -571.8105522033      2.35E-04
    4    -571.8119650221      1.65E-04
    5    -571.8128980194      1.22E-04
    6    -571.8133843396      9.34E-05
    7    -571.8136977298      6.87E-05
    8    -571.8139214743      4.30E-05
    9    -571.8140228764      2.34E-05
   10    -571.8140609227      7.40E-06
   11    -571.8140646784      2.45E-06
   12    -571.8140651221      4.38E-07
   13    -571.8140651358      9.80E-08
   14    -571.8140651365      2.64E-08
   15    -571.8140651365      1.55E-08
   16    -571.8140651365      4.72E-09 Convergence criterion met
 ---------------------------------------

************** Final PCM Free Energy Summary **************
 G_electrostatic  =      -0.33049095 hartree =    -207.38620156 kcal/mol
 G_cavitation     =       0.00000000 hartree =       0.00000000 kcal/mol
 G_dispersion     =       0.00000000 hartree =       0.00000000 kcal/mol
 G_repulsion      =       0.00000000 hartree =       0.00000000 kcal/mol
 --------------------------------------------------
 Non-electrostatic Free Energy =       0.00000000 hartree =       0.00000000 kcal/mol
 Total                         =      -0.33049095 hartree =    -207.38620156 kcal/mol
 --------------------------------------------------
 SCF Energy (H0 + V/2)                       =    -571.81406514 
 Solute Internal Energy (H0)                 =    -571.48357419 
 Total Free Energy (H0 + V/2 + non-elec)     =    -571.81406514 hartree
                                             = -358818.74152419 kcal/mol
***********************************************************

 SCF time:  CPU 3654.24 s  wall 264.63 s
 SCF   energy in the final basis set = -571.81406514
 Total energy in the final basis set = -571.81406514
 
 --------------------------------------------------------------
 
                    Orbital Energies (a.u.)
 --------------------------------------------------------------
 
 Alpha MOs
 -- Occupied --
-19.255 -19.200 -19.144 -19.141 -19.092 -10.401 -10.346 -10.314
-10.268 -10.256  -1.239  -1.148  -1.145  -1.054  -0.965  -0.914
 -0.865  -0.769  -0.684  -0.618  -0.615  -0.598  -0.585  -0.562
 -0.533  -0.524  -0.514  -0.509  -0.485  -0.476  -0.450  -0.447
 -0.443  -0.408  -0.388  -0.350  -0.340  -0.335  -0.312  -0.312
 -- Virtual --
  0.058   0.072   0.081   0.086   0.098   0.099   0.101   0.110
  0.121   0.125   0.127   0.132   0.142   0.145   0.154   0.158
  0.162   0.172   0.172   0.179   0.193   0.205   0.208   0.212
  0.213   0.226   0.229   0.238   0.239   0.245   0.255   0.257
  0.271   0.282   0.288   0.289   0.296   0.301   0.304   0.313
  0.320   0.328   0.334   0.340   0.345   0.350   0.355   0.360
  0.365   0.371   0.374   0.381   0.384   0.386   0.394   0.400
  0.407   0.412   0.417   0.424   0.427   0.432   0.436   0.446
  0.452   0.456   0.459   0.463   0.472   0.477   0.487   0.491
  0.492   0.495   0.501   0.505   0.510   0.521   0.525   0.531
  0.537   0.542   0.543   0.549   0.553   0.562   0.571   0.580
  0.583   0.588   0.591   0.598   0.600   0.613   0.614   0.616
  0.624   0.633   0.638   0.644   0.655   0.668   0.670   0.678
  0.690   0.690   0.702   0.709   0.721   0.728   0.733   0.736
  0.746   0.751   0.762   0.767   0.775   0.778   0.789   0.793
  0.803   0.806   0.807   0.812   0.820   0.826   0.836   0.839
  0.848   0.858   0.859   0.865   0.870   0.878   0.892   0.901
  0.907   0.915   0.931   0.935   0.959   0.967   0.979   1.001
  1.010   1.016   1.027   1.036   1.048   1.064   1.077   1.080
  1.089   1.100   1.115   1.125   1.145   1.157   1.162   1.176
  1.201   1.211   1.213   1.231   1.240   1.263   1.269   1.279
  1.296   1.299   1.329   1.346   1.356   1.374   1.384   1.389
  1.402   1.414   1.428   1.435   1.460   1.473   1.501   1.522
  1.560   1.596   1.662   1.686   1.706   1.740   1.755   1.773
  1.787   1.822   1.843   1.868   1.892   1.907   1.919   1.925
  1.932   1.941   1.945   1.957   1.962   1.969   1.983   1.990
  2.003   2.009   2.013   2.019   2.046   2.074   2.098   2.123
  2.157   2.170   2.195   2.205   2.209   2.232   2.245   2.253
  2.286   2.287   2.302   2.322   2.329   2.339   2.365   2.388
  2.432   2.435   2.439   2.469   2.480   2.486   2.504   2.511
  2.529   2.568   2.574   2.592   2.628   2.657   2.660   2.678
  2.692   2.722   2.738   2.774   2.787   2.795   2.833   2.857
  2.867   2.884   2.906   2.931   2.964   2.976   2.978   2.996
  3.015   3.028   3.057   3.061   3.086   3.087   3.118   3.132
  3.164   3.210   3.231   3.248   3.259   3.282   3.293   3.305
  3.320   3.339   3.344   3.358   3.370   3.388   3.408   3.431
  3.441   3.457   3.465   3.479   3.488   3.512   3.521   3.531
  3.533   3.559   3.566   3.582   3.601   3.622   3.644   3.648
  3.661   3.668   3.681   3.691   3.703   3.716   3.729   3.738
  3.776   3.793   3.808   3.823   3.899   3.929   3.982   4.009
  4.067   4.083   4.091   4.100   4.128   4.167   4.193   4.245
  4.302   4.351   4.461   4.526   4.570   4.584   4.613   4.658
  4.701   4.734   4.783   4.812   4.827   4.837   4.887   5.026
  5.065   5.134   5.206   5.290   5.322   5.351   5.354   5.358
  5.359   5.370   5.377   5.379   5.397   5.434   5.505   5.582
  5.656   5.676   5.687   5.707   5.728   5.758   5.777   5.850
  6.004   6.068   6.145   6.251   6.312   6.318   6.328   6.340
  6.438   6.471   6.625   6.627   6.631   6.642   6.648   6.651
  6.694   6.718   6.725   6.746   6.759   6.778   6.818   6.913
  6.962   6.968   6.971   7.046   7.054   7.081   7.245   7.252
  7.279   7.358   7.389   7.410   7.414   7.548   7.651  22.632
 22.850  22.882  23.634  23.741  43.924  44.258  44.417  44.436
 44.647
 --------------------------------------------------------------
 
          Ground-State Mulliken Net Atomic Charges

     Atom                 Charge (a.u.)
  ----------------------------------------
      1 C                    -0.111123
      2 C                     0.050027
      3 O                    -0.703733
      4 O                    -0.689892
      5 C                    -0.186027
      6 H                     0.248605
      7 H                     0.245221
      8 O                    -0.197976
      9 H                     0.234409
     10 H                     0.219698
     11 C                     0.483193
     12 C                    -0.783567
     13 H                     0.263213
     14 H                     0.240891
     15 H                     0.208679
     16 O                    -0.520350
     17 O                    -1.116678
     18 H                     0.115409
  ----------------------------------------
  Sum of atomic charges =    -2.000000

 -----------------------------------------------------------------
                    Cartesian Multipole Moments
 -----------------------------------------------------------------
    Charge (ESU x 10^10)
                -9.6064
    Dipole Moment (Debye)
         X       4.8844      Y      12.3105      Z      15.3572
       Tot      20.2793
    Quadrupole Moments (Debye-Ang)
        XX    -102.0027     XY     -28.8573     YY    -125.4084
        XZ      20.5381     YZ      17.6073     ZZ    -113.4828
    Octopole Moments (Debye-Ang^2)
       XXX     140.6471    XXY      85.8579    XYY     148.4631
       YYY     267.3047    XXZ      54.7641    XYZ       4.7336
       YYZ      -2.3233    XZZ     -39.6951    YZZ       2.1700
       ZZZ     198.3268
    Hexadecapole Moments (Debye-Ang^3)
      XXXX   -1014.8496   XXXY    -592.7723   XXYY    -675.0674
      XYYY    -726.9059   YYYY   -2728.4176   XXXZ     132.9899
      XXYZ      65.7627   XYYZ      75.7441   YYYZ     312.2660
      XXZZ    -342.6349   XYZZ    -179.8215   YYZZ    -476.6159
      XZZZ     326.5478   YZZZ     215.9661   ZZZZ   -1142.5277
 -----------------------------------------------------------------
 Calculating analytic gradient of the SCF energy
 Gradient of SCF Energy
            1           2           3           4           5           6
    1   0.0698166  -0.0265816  -0.0016259   0.0480233  -0.0930716  -0.0518854
    2   0.0033268  -0.0274026   0.0529685  -0.0115159  -0.0216667   0.0242544
    3   0.0091900  -0.0073035  -0.0176959   0.0232962  -0.0283346   0.0331527
            7           8           9          10          11          12
    1   0.0007892   0.0079000   0.0550780  -0.0021965  -0.0390987   0.0276919
    2  -0.0022653   0.0317734  -0.0215118  -0.0031121  -0.0191018   0.0424109
    3  -0.0548574  -0.0015970  -0.0255515   0.0801191  -0.0434842  -0.0002354
           13          14          15          16          17          18
    1  -0.0107877   0.0106155  -0.0519390   0.0559198  -0.0538436   0.0551956
    2   0.0078561  -0.0617588   0.0251216  -0.0145829   0.0212551  -0.0260490
    3  -0.0522056   0.0157459   0.0336700   0.0346499   0.0519284  -0.0504872
 Max gradient component =       9.307E-02
 RMS gradient           =       3.760E-02
 Computing fast CPCM-ISWIG gradient
 Updating gradient with PCM contributions...
 -- total gradient after adding PCM contribution --
---------------------------------------------------
  Atom         X              Y              Z     
---------------------------------------------------
   1       0.001020      -0.000073      -0.000016
   2      -0.000228      -0.000081      -0.000005
   3       0.000013      -0.000002      -0.000003
   4      -0.000060      -0.000035      -0.000049
   5      -0.000180       0.000094      -0.000036
   6      -0.000465       0.000138       0.000169
   7      -0.000083      -0.000005      -0.000055
   8       0.000002      -0.000088       0.000029
   9      -0.000006       0.000045      -0.000018
  10      -0.000000       0.000005       0.000003
  11      -0.000016       0.000013      -0.000014
  12      -0.000008       0.000007       0.000005
  13       0.000005      -0.000005      -0.000004
  14       0.000000      -0.000003      -0.000004
  15       0.000002      -0.000000      -0.000003
  16       0.000010      -0.000004       0.000003
  17      -0.000004       0.000000      -0.000003
  18      -0.000001      -0.000004       0.000001
---------------------------------------------------
 Number of fixed atoms: 0
 Gradient time:  CPU 771.91 s  wall 57.47 s
 ----------------------------------------------------------------
             Standard Nuclear Orientation (Angstroms)
    I     Atom           X                Y                Z
 ----------------------------------------------------------------
    1      C      -0.5855941601    -1.6486433058     0.6594130020
    2      C      -1.6624606615    -2.7059261262     0.3700651765
    3      O      -1.4255645855    -3.8665900865     0.7935396443
    4      O      -2.6899218043    -2.3431943697    -0.2563922124
    5      C      -0.9109358886    -0.2822024251     0.0991508736
    6      H       0.3644313196    -2.0060330063     0.2454354398
    7      H      -0.4521098435    -1.5881785973     1.7451285553
    8      O       0.1851947613     0.5965049176     0.4526219683
    9      H      -1.8333453878     0.1215138724     0.5217369055
   10      H      -1.0056819740    -0.3021463801    -0.9887124383
   11      C       0.1199774383     1.8483885440    -0.0051956974
   12      C       1.3327571985     2.6470689398     0.3781545492
   13      H       1.5450378641     2.5248095846     1.4422462086
   14      H       1.1748382326     3.6977794129     0.1395425708
   15      H       2.1922274627     2.2691033637    -0.1832155060
   16      O      -0.8111486951     2.2677500321    -0.6613926514
   17      O       1.3694191781     0.5091884336    -3.0030640687
   18      H       0.5733733314     0.9061060485    -2.6341842753
 ----------------------------------------------------------------
 Nuclear Repulsion Energy =   512.6050182665 hartrees
 There are       40 alpha and       40 beta electrons
 Discretize the solute cavity surface with Lebedev spheres
	Using 110 Lebedev grid points for each H atom
	Using 110 Lebedev grid points for other atoms
	Atomic van der Waals radii will be scaled by 1.20
 Remove points where switching function is < 1.0e-08
 Keep 1149 surface tesserae and discard 831 interior tesserae
 Molecular Surface Area = 211.890 Angst**2
 Requested basis set is def2-TZVPD
 There are 175 shells and 457 basis functions
 A cutoff of  1.0D-14 yielded  13672 shell pairs
 There are     92978 function pairs (    118030 Cartesian)
 Smallest overlap matrix eigenvalue = 3.96E-06
 Guess MOs from SCF MO coefficient file
 Reading MOs from coefficient file
 Reading MOs from coefficient file
 Long-range K will be added via erf
 Coulomb attenuation parameter = 0.3 bohr**(-1)
 A restricted hybrid HF-DFT SCF calculation will be
 performed using Pulay DIIS extrapolation
 Polarizable Continuum solvation model will be applied
 Exchange:     0.1670 Hartree-Fock + 1.0000 wB97X-V + LR-HF
 Correlation:  1.0000 wB97X-V
 Using SG-2 standard quadrature grid
 Nonlocal Correlation:  VV10 with C = 0.0100 and b = 6.00
 Grid used for NLC:  SG-1 standard quadrature
 SCF converges when DIIS error is below 1.0E-08
Using Q-Chem read-in guess as SCF_GUESS READ specified.

 using 16 threads for integral computing
 -------------------------------------------------------
 OpenMP Integral computing Module                
 Release: version 1.0, May 2013, Q-Chem Inc. Pittsburgh 
 -------------------------------------------------------
 using 16 threads for integral computing
 -------------------------------------------------------
 OpenMP Integral computing Module                
 Release: version 1.0, May 2013, Q-Chem Inc. Pittsburgh 
 -------------------------------------------------------
 -------------------------------------------------------
 OpenMP BLAS3 based DFT computing Module                
 Release: version 1.0, May 2013, Q-Chem Inc. Pittsburgh 
 -------------------------------------------------------
 -------------------------------------------------------
 OpenMP BLAS3 based DFT computing Module                
 Release: version 1.0, May 2013, Q-Chem Inc. Pittsburgh 
 -------------------------------------------------------
 -------------------------------------------------------
 OpenMP BLAS3 based DFT computing Module                
 Release: version 1.0, May 2013, Q-Chem Inc. Pittsburgh 
 -------------------------------------------------------
 ---------------------------------------
  Cycle       Energy         DIIS Error
 ---------------------------------------
    1    -571.4830054828      4.40E-04
    2    -571.8018043465      5.07E-04
    3    -571.8105585261      2.34E-04
    4    -571.8119717890      1.65E-04
    5    -571.8129181782      1.21E-04
    6    -571.8134521822      8.86E-05
    7    -571.8138044807      5.78E-05
    8    -571.8140104633      2.65E-05
    9    -571.8140591983      8.78E-06
   10    -571.8140649713      1.58E-06
   11    -571.8140651423      3.96E-07
   12    -571.8140651536      4.77E-08
   13    -571.8140651537      1.51E-08
   14    -571.8140651537      8.63E-09 Convergence criterion met
 ---------------------------------------

************** Final PCM Free Energy Summary **************
 G_electrostatic  =      -0.33050091 hartree =    -207.39245091 kcal/mol
 G_cavitation     =       0.00000000 hartree =       0.00000000 kcal/mol
 G_dispersion     =       0.00000000 hartree =       0.00000000 kcal/mol
 G_repulsion      =       0.00000000 hartree =       0.00000000 kcal/mol
 --------------------------------------------------
 Non-electrostatic Free Energy =       0.00000000 hartree =       0.00000000 kcal/mol
 Total                         =      -0.33050091 hartree =    -207.39245091 kcal/mol
 --------------------------------------------------
 SCF Energy (H0 + V/2)                       =    -571.81406515 
 Solute Internal Energy (H0)                 =    -571.48356424 
 Total Free Energy (H0 + V/2 + non-elec)     =    -571.81406515 hartree
                                             = -358818.74153497 kcal/mol
***********************************************************

 SCF time:  CPU 3208.90 s  wall 232.15 s
 SCF   energy in the final basis set = -571.81406515
 Total energy in the final basis set = -571.81406515
 
 --------------------------------------------------------------
 
                    Orbital Energies (a.u.)
 --------------------------------------------------------------
 
 Alpha MOs
 -- Occupied --
-19.255 -19.200 -19.144 -19.141 -19.092 -10.401 -10.346 -10.314
-10.268 -10.256  -1.239  -1.148  -1.145  -1.054  -0.965  -0.914
 -0.865  -0.769  -0.684  -0.618  -0.615  -0.598  -0.585  -0.562
 -0.534  -0.524  -0.514  -0.509  -0.485  -0.476  -0.450  -0.447
 -0.442  -0.408  -0.388  -0.350  -0.340  -0.335  -0.312  -0.312
 -- Virtual --
  0.058   0.072   0.081   0.086   0.098   0.099   0.101   0.110
  0.121   0.125   0.127   0.132   0.142   0.145   0.154   0.158
  0.162   0.172   0.172   0.179   0.193   0.205   0.208   0.212
  0.213   0.226   0.229   0.238   0.239   0.245   0.255   0.257
  0.271   0.282   0.287   0.289   0.296   0.301   0.304   0.313
  0.320   0.328   0.334   0.340   0.345   0.350   0.355   0.360
  0.365   0.371   0.375   0.381   0.384   0.386   0.394   0.400
  0.407   0.412   0.417   0.424   0.427   0.432   0.436   0.446
  0.452   0.456   0.459   0.463   0.472   0.477   0.487   0.491
  0.492   0.495   0.501   0.505   0.510   0.521   0.525   0.530
  0.537   0.542   0.543   0.549   0.553   0.562   0.571   0.580
  0.583   0.588   0.591   0.598   0.601   0.613   0.615   0.616
  0.624   0.633   0.638   0.644   0.655   0.668   0.670   0.678
  0.690   0.690   0.702   0.709   0.721   0.728   0.733   0.736
  0.746   0.751   0.761   0.767   0.775   0.778   0.789   0.793
  0.803   0.806   0.807   0.812   0.820   0.826   0.836   0.839
  0.848   0.858   0.859   0.865   0.870   0.878   0.892   0.901
  0.907   0.915   0.931   0.934   0.959   0.967   0.979   1.001
  1.010   1.016   1.027   1.036   1.048   1.064   1.077   1.080
  1.089   1.101   1.115   1.126   1.145   1.157   1.162   1.175
  1.201   1.211   1.213   1.231   1.240   1.263   1.269   1.279
  1.296   1.299   1.329   1.346   1.356   1.374   1.384   1.389
  1.402   1.414   1.428   1.435   1.461   1.473   1.501   1.522
  1.560   1.596   1.661   1.687   1.706   1.740   1.755   1.773
  1.787   1.821   1.843   1.868   1.892   1.907   1.919   1.925
  1.932   1.941   1.945   1.957   1.962   1.969   1.983   1.990
  2.003   2.009   2.013   2.020   2.046   2.074   2.098   2.123
  2.157   2.170   2.195   2.205   2.209   2.232   2.245   2.253
  2.286   2.288   2.302   2.322   2.329   2.339   2.365   2.388
  2.432   2.435   2.439   2.469   2.480   2.486   2.504   2.511
  2.529   2.568   2.574   2.592   2.628   2.657   2.660   2.678
  2.693   2.722   2.738   2.774   2.787   2.795   2.833   2.857
  2.867   2.884   2.906   2.931   2.964   2.976   2.978   2.996
  3.015   3.028   3.057   3.061   3.086   3.087   3.118   3.132
  3.164   3.209   3.231   3.248   3.259   3.282   3.293   3.306
  3.320   3.339   3.344   3.358   3.370   3.389   3.408   3.431
  3.442   3.457   3.465   3.479   3.489   3.512   3.521   3.531
  3.533   3.559   3.566   3.582   3.601   3.621   3.644   3.648
  3.661   3.668   3.681   3.692   3.703   3.716   3.729   3.738
  3.776   3.793   3.808   3.823   3.900   3.929   3.982   4.009
  4.067   4.083   4.091   4.100   4.127   4.168   4.193   4.244
  4.303   4.351   4.462   4.527   4.570   4.584   4.613   4.658
  4.701   4.733   4.783   4.811   4.827   4.837   4.887   5.025
  5.065   5.134   5.206   5.290   5.322   5.351   5.354   5.358
  5.359   5.371   5.377   5.379   5.397   5.434   5.505   5.583
  5.656   5.676   5.687   5.707   5.728   5.758   5.777   5.850
  6.004   6.068   6.144   6.251   6.312   6.318   6.328   6.340
  6.438   6.471   6.625   6.627   6.631   6.642   6.648   6.651
  6.694   6.718   6.725   6.746   6.759   6.778   6.818   6.913
  6.962   6.969   6.971   7.046   7.054   7.081   7.245   7.252
  7.279   7.358   7.389   7.411   7.414   7.548   7.651  22.632
 22.850  22.883  23.634  23.742  43.924  44.258  44.417  44.436
 44.646
 --------------------------------------------------------------
 
          Ground-State Mulliken Net Atomic Charges

     Atom                 Charge (a.u.)
  ----------------------------------------
      1 C                    -0.109286
      2 C                     0.048762
      3 O                    -0.703847
      4 O                    -0.690038
      5 C                    -0.185946
      6 H                     0.247662
      7 H                     0.245668
      8 O                    -0.198048
      9 H                     0.234234
     10 H                     0.219748
     11 C                     0.483416
     12 C                    -0.783598
     13 H                     0.263248
     14 H                     0.240889
     15 H                     0.208721
     16 O                    -0.520324
     17 O                    -1.116665
     18 H                     0.115405
  ----------------------------------------
  Sum of atomic charges =    -2.000000

 -----------------------------------------------------------------
                    Cartesian Multipole Moments
 -----------------------------------------------------------------
    Charge (ESU x 10^10)
                -9.6064
    Dipole Moment (Debye)
         X       4.8860      Y      12.3131      Z      15.3584
       Tot      20.2822
    Quadrupole Moments (Debye-Ang)
        XX    -102.0083     XY     -28.8579     YY    -125.4134
        XZ      20.5381     YZ      17.6047     ZZ    -113.4824
    Octopole Moments (Debye-Ang^2)
       XXX     140.6940    XXY      85.8713    XYY     148.4811
       YYY     267.3415    XXZ      54.7686    XYZ       4.7377
       YYZ      -2.3169    XZZ     -39.6818    YZZ       2.1723
       ZZZ     198.3269
    Hexadecapole Moments (Debye-Ang^3)
      XXXX   -1014.9749   XXXY    -592.8477   XXYY    -675.1076
      XYYY    -726.9620   YYYY   -2728.4722   XXXZ     132.9926
      XXYZ      65.7463   XYYZ      75.7373   YYYZ     312.2451
      XXZZ    -342.6499   XYZZ    -179.8408   YYZZ    -476.6157
      XZZZ     326.5722   YZZZ     215.9618   ZZZZ   -1142.5252
 -----------------------------------------------------------------
 Calculating analytic gradient of the SCF energy
 Gradient of SCF Energy
            1           2           3           4           5           6
    1   0.0680870  -0.0260516  -0.0016754   0.0480684  -0.0928653  -0.0509305
    2   0.0036386  -0.0271204   0.0529750  -0.0114832  -0.0219935   0.0238542
    3   0.0093355  -0.0072791  -0.0176913   0.0233404  -0.0282681   0.0327794
            7           8           9          10          11          12
    1   0.0008452   0.0078945   0.0550832  -0.0022144  -0.0390927   0.0276891
    2  -0.0022890   0.0318709  -0.0215228  -0.0030736  -0.0191200   0.0424170
    3  -0.0546933  -0.0016467  -0.0255107   0.0800408  -0.0434634  -0.0002472
           13          14          15          16          17          18
    1  -0.0107827   0.0106148  -0.0519346   0.0559135  -0.0538445   0.0551958
    2   0.0078621  -0.0617578   0.0251244  -0.0145843   0.0212497  -0.0260470
    3  -0.0521964   0.0157456   0.0336651   0.0346480   0.0519286  -0.0504872
 Max gradient component =       9.287E-02
 RMS gradient           =       3.748E-02
 Computing fast CPCM-ISWIG gradient
 Updating gradient with PCM contributions...
 -- total gradient after adding PCM contribution --
---------------------------------------------------
  Atom         X              Y              Z     
---------------------------------------------------
   1      -0.001009       0.000081       0.000010
   2       0.000229       0.000076       0.000008
   3      -0.000021       0.000009       0.000014
   4       0.000069       0.000031       0.000050
   5       0.000167      -0.000102       0.000032
   6       0.000460      -0.000134      -0.000173
   7       0.000090      -0.000001       0.000056
   8       0.000005       0.000085      -0.000017
   9       0.000007      -0.000047       0.000026
  10      -0.000002      -0.000001       0.000002
  11       0.000011       0.000001       0.000006
  12      -0.000009       0.000013       0.000003
  13       0.000005      -0.000005      -0.000004
  14       0.000002      -0.000002      -0.000004
  15       0.000002       0.000000      -0.000003
  16      -0.000002      -0.000003      -0.000003
  17      -0.000004       0.000000      -0.000003
  18      -0.000000      -0.000004       0.000001
---------------------------------------------------
 Number of fixed atoms: 0
 Gradient time:  CPU 780.50 s  wall 57.88 s
 ----------------------------------------------------------------
             Standard Nuclear Orientation (Angstroms)
    I     Atom           X                Y                Z
 ----------------------------------------------------------------
    1      C      -0.5845941601    -1.6476433058     0.6594130020
    2      C      -1.6624606615    -2.7059261262     0.3700651765
    3      O      -1.4255645855    -3.8665900865     0.7935396443
    4      O      -2.6899218043    -2.3431943697    -0.2563922124
    5      C      -0.9109358886    -0.2822024251     0.0991508736
    6      H       0.3644313196    -2.0060330063     0.2454354398
    7      H      -0.4521098435    -1.5881785973     1.7451285553
    8      O       0.1851947613     0.5965049176     0.4526219683
    9      H      -1.8333453878     0.1215138724     0.5217369055
   10      H      -1.0056819740    -0.3021463801    -0.9887124383
   11      C       0.1199774383     1.8483885440    -0.0051956974
   12      C       1.3327571985     2.6470689398     0.3781545492
   13      H       1.5450378641     2.5248095846     1.4422462086
   14      H       1.1748382326     3.6977794129     0.1395425708
   15      H       2.1922274627     2.2691033637    -0.1832155060
   16      O      -0.8111486951     2.2677500321    -0.6613926514
   17      O       1.3694191781     0.5091884336    -3.0030640687
   18      H       0.5733733314     0.9061060485    -2.6341842753
 ----------------------------------------------------------------
 Nuclear Repulsion Energy =   512.6024069767 hartrees
 There are       40 alpha and       40 beta electrons
 Discretize the solute cavity surface with Lebedev spheres
	Using 110 Lebedev grid points for each H atom
	Using 110 Lebedev grid points for other atoms
	Atomic van der Waals radii will be scaled by 1.20
 Remove points where switching function is < 1.0e-08
 Keep 1149 surface tesserae and discard 831 interior tesserae
 Molecular Surface Area = 211.888 Angst**2
 Requested basis set is def2-TZVPD
 There are 175 shells and 457 basis functions
 A cutoff of  1.0D-14 yielded  13672 shell pairs
 There are     92978 function pairs (    118030 Cartesian)
 Smallest overlap matrix eigenvalue = 3.95E-06
 Guess MOs from SCF MO coefficient file
 Reading MOs from coefficient file
 Reading MOs from coefficient file
 Long-range K will be added via erf
 Coulomb attenuation parameter = 0.3 bohr**(-1)
 A restricted hybrid HF-DFT SCF calculation will be
 performed using Pulay DIIS extrapolation
 Polarizable Continuum solvation model will be applied
 Exchange:     0.1670 Hartree-Fock + 1.0000 wB97X-V + LR-HF
 Correlation:  1.0000 wB97X-V
 Using SG-2 standard quadrature grid
 Nonlocal Correlation:  VV10 with C = 0.0100 and b = 6.00
 Grid used for NLC:  SG-1 standard quadrature
 SCF converges when DIIS error is below 1.0E-08
Using Q-Chem read-in guess as SCF_GUESS READ specified.

 using 16 threads for integral computing
 -------------------------------------------------------
 OpenMP Integral computing Module                
 Release: version 1.0, May 2013, Q-Chem Inc. Pittsburgh 
 -------------------------------------------------------
 using 16 threads for integral computing
 -------------------------------------------------------
 OpenMP Integral computing Module                
 Release: version 1.0, May 2013, Q-Chem Inc. Pittsburgh 
 -------------------------------------------------------
 -------------------------------------------------------
 OpenMP BLAS3 based DFT computing Module                
 Release: version 1.0, May 2013, Q-Chem Inc. Pittsburgh 
 -------------------------------------------------------
 -------------------------------------------------------
 OpenMP BLAS3 based DFT computing Module                
 Release: version 1.0, May 2013, Q-Chem Inc. Pittsburgh 
 -------------------------------------------------------
 -------------------------------------------------------
 OpenMP BLAS3 based DFT computing Module                
 Release: version 1.0, May 2013, Q-Chem Inc. Pittsburgh 
 -------------------------------------------------------
 ---------------------------------------
  Cycle       Energy         DIIS Error
 ---------------------------------------
    1    -571.4837080033      4.39E-04
    2    -571.8017897109      5.07E-04
    3    -571.8105527823      2.35E-04
    4    -571.8119669143      1.65E-04
    5    -571.8129045123      1.22E-04
    6    -571.8134077893      9.18E-05
    7    -571.8137409211      6.45E-05
    8    -571.8139661460      3.57E-05
    9    -571.8140464808      1.55E-05
   10    -571.8140642808      3.45E-06
   11    -571.8140651166      9.30E-07
   12    -571.8140651799      1.41E-07
   13    -571.8140651813      2.62E-08
   14    -571.8140651813      5.91E-09 Convergence criterion met
 ---------------------------------------

************** Final PCM Free Energy Summary **************
 G_electrostatic  =      -0.33049083 hartree =    -207.38612616 kcal/mol
 G_cavitation     =       0.00000000 hartree =       0.00000000 kcal/mol
 G_dispersion     =       0.00000000 hartree =       0.00000000 kcal/mol
 G_repulsion      =       0.00000000 hartree =       0.00000000 kcal/mol
 --------------------------------------------------
 Non-electrostatic Free Energy =       0.00000000 hartree =       0.00000000 kcal/mol
 Total                         =      -0.33049083 hartree =    -207.38612616 kcal/mol
 --------------------------------------------------
 SCF Energy (H0 + V/2)                       =    -571.81406518 
 Solute Internal Energy (H0)                 =    -571.48357435 
 Total Free Energy (H0 + V/2 + non-elec)     =    -571.81406518 hartree
                                             = -358818.74155230 kcal/mol
***********************************************************

 SCF time:  CPU 3208.57 s  wall 232.08 s
 SCF   energy in the final basis set = -571.81406518
 Total energy in the final basis set = -571.81406518
 
 --------------------------------------------------------------
 
                    Orbital Energies (a.u.)
 --------------------------------------------------------------
 
 Alpha MOs
 -- Occupied --
-19.255 -19.200 -19.144 -19.141 -19.092 -10.401 -10.346 -10.314
-10.268 -10.256  -1.239  -1.148  -1.145  -1.054  -0.965  -0.914
 -0.865  -0.768  -0.684  -0.618  -0.615  -0.598  -0.585  -0.562
 -0.533  -0.524  -0.514  -0.509  -0.485  -0.476  -0.450  -0.447
 -0.443  -0.408  -0.388  -0.350  -0.340  -0.335  -0.312  -0.312
 -- Virtual --
  0.058   0.072   0.081   0.086   0.098   0.099   0.101   0.110
  0.121   0.125   0.127   0.132   0.142   0.145   0.154   0.158
  0.162   0.172   0.172   0.179   0.193   0.205   0.208   0.212
  0.213   0.226   0.229   0.238   0.239   0.245   0.255   0.257
  0.271   0.282   0.288   0.289   0.296   0.301   0.304   0.313
  0.320   0.328   0.334   0.340   0.345   0.350   0.355   0.360
  0.365   0.371   0.374   0.381   0.384   0.386   0.394   0.400
  0.407   0.412   0.417   0.424   0.427   0.432   0.436   0.446
  0.452   0.456   0.459   0.463   0.472   0.477   0.487   0.491
  0.492   0.495   0.501   0.505   0.510   0.521   0.525   0.531
  0.537   0.542   0.543   0.549   0.553   0.562   0.571   0.580
  0.583   0.588   0.591   0.598   0.601   0.613   0.615   0.616
  0.624   0.633   0.638   0.644   0.655   0.668   0.670   0.678
  0.690   0.690   0.702   0.709   0.721   0.728   0.733   0.736
  0.746   0.751   0.761   0.767   0.775   0.778   0.789   0.793
  0.803   0.806   0.807   0.812   0.820   0.826   0.836   0.839
  0.848   0.858   0.859   0.865   0.870   0.878   0.892   0.901
  0.907   0.915   0.931   0.935   0.959   0.967   0.979   1.001
  1.010   1.016   1.027   1.036   1.047   1.064   1.077   1.080
  1.089   1.100   1.115   1.126   1.145   1.157   1.162   1.175
  1.201   1.211   1.213   1.231   1.240   1.263   1.269   1.279
  1.296   1.299   1.329   1.346   1.356   1.374   1.384   1.389
  1.402   1.414   1.428   1.435   1.460   1.473   1.501   1.522
  1.560   1.596   1.661   1.687   1.706   1.740   1.755   1.773
  1.787   1.821   1.843   1.868   1.892   1.907   1.919   1.925
  1.932   1.941   1.945   1.957   1.962   1.969   1.983   1.990
  2.003   2.009   2.013   2.019   2.046   2.074   2.098   2.123
  2.157   2.170   2.195   2.205   2.209   2.232   2.245   2.253
  2.286   2.288   2.302   2.322   2.329   2.339   2.365   2.388
  2.432   2.435   2.439   2.469   2.480   2.486   2.504   2.511
  2.529   2.568   2.574   2.592   2.628   2.657   2.660   2.678
  2.693   2.722   2.738   2.774   2.787   2.795   2.833   2.857
  2.867   2.884   2.906   2.931   2.964   2.976   2.978   2.996
  3.015   3.028   3.057   3.061   3.087   3.087   3.118   3.132
  3.164   3.209   3.231   3.248   3.259   3.282   3.293   3.305
  3.320   3.339   3.344   3.358   3.370   3.388   3.408   3.431
  3.442   3.457   3.465   3.479   3.488   3.512   3.521   3.531
  3.533   3.559   3.566   3.582   3.601   3.622   3.644   3.648
  3.661   3.668   3.681   3.692   3.703   3.716   3.729   3.738
  3.776   3.793   3.808   3.823   3.900   3.929   3.982   4.009
  4.067   4.083   4.091   4.100   4.128   4.168   4.193   4.244
  4.302   4.351   4.461   4.526   4.570   4.584   4.613   4.658
  4.701   4.734   4.783   4.812   4.827   4.837   4.887   5.025
  5.065   5.134   5.206   5.290   5.322   5.351   5.355   5.358
  5.359   5.370   5.377   5.379   5.397   5.434   5.505   5.583
  5.656   5.676   5.687   5.707   5.728   5.758   5.777   5.850
  6.004   6.068   6.145   6.251   6.312   6.318   6.328   6.340
  6.438   6.471   6.625   6.627   6.631   6.642   6.648   6.651
  6.694   6.718   6.725   6.746   6.759   6.778   6.818   6.913
  6.962   6.969   6.971   7.046   7.054   7.081   7.245   7.252
  7.279   7.358   7.389   7.411   7.414   7.548   7.651  22.632
 22.850  22.883  23.634  23.741  43.924  44.258  44.417  44.436
 44.647
 --------------------------------------------------------------
 
          Ground-State Mulliken Net Atomic Charges

     Atom                 Charge (a.u.)
  ----------------------------------------
      1 C                    -0.110653
      2 C                     0.049411
      3 O                    -0.703775
      4 O                    -0.689921
      5 C                    -0.185125
      6 H                     0.247920
      7 H                     0.245649
      8 O                    -0.197952
      9 H                     0.234048
     10 H                     0.219552
     11 C                     0.483166
     12 C                    -0.783549
     13 H                     0.263231
     14 H                     0.240890
     15 H                     0.208707
     16 O                    -0.520335
     17 O                    -1.116668
     18 H                     0.115403
  ----------------------------------------
  Sum of atomic charges =    -2.000000

 -----------------------------------------------------------------
                    Cartesian Multipole Moments
 -----------------------------------------------------------------
    Charge (ESU x 10^10)
                -9.6064
    Dipole Moment (Debye)
         X       4.8839      Y      12.3111      Z      15.3576
       Tot      20.2798
    Quadrupole Moments (Debye-Ang)
        XX    -102.0045     XY     -28.8547     YY    -125.4052
        XZ      20.5376     YZ      17.6044     ZZ    -113.4827
    Octopole Moments (Debye-Ang^2)
       XXX     140.6666    XXY      85.8555    XYY     148.4588
       YYY     267.2760    XXZ      54.7674    XYZ       4.7384
       YYZ      -2.3121    XZZ     -39.6891    YZZ       2.1650
       ZZZ     198.3256
    Hexadecapole Moments (Debye-Ang^3)
      XXXX   -1014.9085   XXXY    -592.7898   XXYY    -675.0471
      XYYY    -726.8633   YYYY   -2728.1906   XXXZ     132.9865
      XXYZ      65.7444   XYYZ      75.7275   YYYZ     312.2099
      XXZZ    -342.6417   XYZZ    -179.8263   YYZZ    -476.5906
      XZZZ     326.5592   YZZZ     215.9493   ZZZZ   -1142.5266
 -----------------------------------------------------------------
 Calculating analytic gradient of the SCF energy
 Gradient of SCF Energy
            1           2           3           4           5           6
    1   0.0689421  -0.0264228  -0.0016756   0.0480397  -0.0930329  -0.0511990
    2   0.0040480  -0.0274737   0.0529353  -0.0114772  -0.0221021   0.0240352
    3   0.0093564  -0.0073206  -0.0176902   0.0233159  -0.0282570   0.0328940
            7           8           9          10          11          12
    1   0.0008463   0.0078791   0.0550756  -0.0022021  -0.0391038   0.0276916
    2  -0.0022459   0.0317772  -0.0215393  -0.0031122  -0.0191055   0.0424173
    3  -0.0548077  -0.0016206  -0.0254954   0.0800446  -0.0434807  -0.0002422
           13          14          15          16          17          18
    1  -0.0107843   0.0106155  -0.0519377   0.0559161  -0.0538431   0.0551953
    2   0.0078590  -0.0617608   0.0251247  -0.0145828   0.0212507  -0.0260478
    3  -0.0522026   0.0157467   0.0336680   0.0346488   0.0519289  -0.0504863
 Max gradient component =       9.303E-02
 RMS gradient           =       3.754E-02
 Computing fast CPCM-ISWIG gradient
 Updating gradient with PCM contributions...
 -- total gradient after adding PCM contribution --
---------------------------------------------------
  Atom         X              Y              Z     
---------------------------------------------------
   1      -0.000074       0.000972      -0.000014
   2      -0.000074      -0.000223      -0.000027
   3      -0.000056      -0.000093       0.000013
   4       0.000006       0.000017       0.000009
   5       0.000058      -0.000355       0.000086
   6       0.000142      -0.000139      -0.000063
   7       0.000001      -0.000097      -0.000030
   8      -0.000003      -0.000066       0.000021
   9       0.000007      -0.000020       0.000015
  10       0.000001       0.000004       0.000003
  11      -0.000006       0.000006      -0.000006
  12      -0.000009       0.000008       0.000005
  13       0.000005      -0.000005      -0.000004
  14       0.000001      -0.000002      -0.000004
  15       0.000002      -0.000000      -0.000003
  16       0.000005      -0.000002       0.000001
  17      -0.000004       0.000000      -0.000004
  18      -0.000001      -0.000004       0.000001
---------------------------------------------------
 Number of fixed atoms: 0
 Gradient time:  CPU 778.65 s  wall 57.79 s
 ----------------------------------------------------------------
             Standard Nuclear Orientation (Angstroms)
    I     Atom           X                Y                Z
 ----------------------------------------------------------------
    1      C      -0.5845941601    -1.6496433058     0.6594130020
    2      C      -1.6624606615    -2.7059261262     0.3700651765
    3      O      -1.4255645855    -3.8665900865     0.7935396443
    4      O      -2.6899218043    -2.3431943697    -0.2563922124
    5      C      -0.9109358886    -0.2822024251     0.0991508736
    6      H       0.3644313196    -2.0060330063     0.2454354398
    7      H      -0.4521098435    -1.5881785973     1.7451285553
    8      O       0.1851947613     0.5965049176     0.4526219683
    9      H      -1.8333453878     0.1215138724     0.5217369055
   10      H      -1.0056819740    -0.3021463801    -0.9887124383
   11      C       0.1199774383     1.8483885440    -0.0051956974
   12      C       1.3327571985     2.6470689398     0.3781545492
   13      H       1.5450378641     2.5248095846     1.4422462086
   14      H       1.1748382326     3.6977794129     0.1395425708
   15      H       2.1922274627     2.2691033637    -0.1832155060
   16      O      -0.8111486951     2.2677500321    -0.6613926514
   17      O       1.3694191781     0.5091884336    -3.0030640687
   18      H       0.5733733314     0.9061060485    -2.6341842753
 ----------------------------------------------------------------
 Nuclear Repulsion Energy =   512.5913911704 hartrees
 There are       40 alpha and       40 beta electrons
 Discretize the solute cavity surface with Lebedev spheres
	Using 110 Lebedev grid points for each H atom
	Using 110 Lebedev grid points for other atoms
	Atomic van der Waals radii will be scaled by 1.20
 Remove points where switching function is < 1.0e-08
 Keep 1149 surface tesserae and discard 831 interior tesserae
 Molecular Surface Area = 211.894 Angst**2
 Requested basis set is def2-TZVPD
 There are 175 shells and 457 basis functions
 A cutoff of  1.0D-14 yielded  13671 shell pairs
 There are     92977 function pairs (    118029 Cartesian)
 Smallest overlap matrix eigenvalue = 3.97E-06
 Guess MOs from SCF MO coefficient file
 Reading MOs from coefficient file
 Reading MOs from coefficient file
 Long-range K will be added via erf
 Coulomb attenuation parameter = 0.3 bohr**(-1)
 A restricted hybrid HF-DFT SCF calculation will be
 performed using Pulay DIIS extrapolation
 Polarizable Continuum solvation model will be applied
 Exchange:     0.1670 Hartree-Fock + 1.0000 wB97X-V + LR-HF
 Correlation:  1.0000 wB97X-V
 Using SG-2 standard quadrature grid
 Nonlocal Correlation:  VV10 with C = 0.0100 and b = 6.00
 Grid used for NLC:  SG-1 standard quadrature
 SCF converges when DIIS error is below 1.0E-08
Using Q-Chem read-in guess as SCF_GUESS READ specified.

 using 16 threads for integral computing
 -------------------------------------------------------
 OpenMP Integral computing Module                
 Release: version 1.0, May 2013, Q-Chem Inc. Pittsburgh 
 -------------------------------------------------------
 using 16 threads for integral computing
 -------------------------------------------------------
 OpenMP Integral computing Module                
 Release: version 1.0, May 2013, Q-Chem Inc. Pittsburgh 
 -------------------------------------------------------
 -------------------------------------------------------
 OpenMP BLAS3 based DFT computing Module                
 Release: version 1.0, May 2013, Q-Chem Inc. Pittsburgh 
 -------------------------------------------------------
 -------------------------------------------------------
 OpenMP BLAS3 based DFT computing Module                
 Release: version 1.0, May 2013, Q-Chem Inc. Pittsburgh 
 -------------------------------------------------------
 -------------------------------------------------------
 OpenMP BLAS3 based DFT computing Module                
 Release: version 1.0, May 2013, Q-Chem Inc. Pittsburgh 
 -------------------------------------------------------
 ---------------------------------------
  Cycle       Energy         DIIS Error
 ---------------------------------------
    1    -571.4838746839      4.40E-04
    2    -571.8018039145      5.07E-04
    3    -571.8105584484      2.34E-04
    4    -571.8119719569      1.65E-04
    5    -571.8129196430      1.21E-04
    6    -571.8134592478      8.81E-05
    7    -571.8138112267      5.71E-05
    8    -571.8140142441      2.56E-05
    9    -571.8140597932      8.37E-06
   10    -571.8140650508      1.45E-06
   11    -571.8140651947      3.13E-07
   12    -571.8140652016      3.96E-08
   13    -571.8140652017      1.58E-08
   14    -571.8140652017      9.28E-09 Convergence criterion met
 ---------------------------------------

************** Final PCM Free Energy Summary **************
 G_electrostatic  =      -0.33050091 hartree =    -207.39245263 kcal/mol
 G_cavitation     =       0.00000000 hartree =       0.00000000 kcal/mol
 G_dispersion     =       0.00000000 hartree =       0.00000000 kcal/mol
 G_repulsion      =       0.00000000 hartree =       0.00000000 kcal/mol
 --------------------------------------------------
 Non-electrostatic Free Energy =       0.00000000 hartree =       0.00000000 kcal/mol
 Total                         =      -0.33050091 hartree =    -207.39245263 kcal/mol
 --------------------------------------------------
 SCF Energy (H0 + V/2)                       =    -571.81406520 
 Solute Internal Energy (H0)                 =    -571.48356429 
 Total Free Energy (H0 + V/2 + non-elec)     =    -571.81406520 hartree
                                             = -358818.74156510 kcal/mol
***********************************************************

 SCF time:  CPU 3198.42 s  wall 231.64 s
 SCF   energy in the final basis set = -571.81406520
 Total energy in the final basis set = -571.81406520
 
 --------------------------------------------------------------
 
                    Orbital Energies (a.u.)
 --------------------------------------------------------------
 
 Alpha MOs
 -- Occupied --
-19.255 -19.200 -19.144 -19.141 -19.092 -10.401 -10.346 -10.314
-10.268 -10.256  -1.239  -1.148  -1.145  -1.054  -0.965  -0.914
 -0.865  -0.769  -0.684  -0.618  -0.615  -0.598  -0.585  -0.562
 -0.533  -0.524  -0.514  -0.509  -0.485  -0.476  -0.450  -0.447
 -0.443  -0.408  -0.388  -0.350  -0.340  -0.335  -0.312  -0.312
 -- Virtual --
  0.058   0.072   0.081   0.086   0.098   0.099   0.101   0.110
  0.121   0.125   0.127   0.132   0.142   0.145   0.154   0.158
  0.162   0.172   0.172   0.179   0.193   0.205   0.208   0.212
  0.213   0.226   0.229   0.238   0.239   0.245   0.255   0.257
  0.271   0.282   0.288   0.289   0.296   0.301   0.304   0.313
  0.320   0.328   0.334   0.340   0.345   0.350   0.355   0.360
  0.365   0.371   0.374   0.381   0.384   0.386   0.394   0.400
  0.407   0.412   0.417   0.424   0.427   0.432   0.436   0.446
  0.452   0.456   0.459   0.463   0.472   0.477   0.487   0.491
  0.492   0.495   0.501   0.505   0.510   0.521   0.525   0.530
  0.537   0.542   0.543   0.549   0.553   0.562   0.571   0.580
  0.583   0.588   0.591   0.598   0.600   0.613   0.615   0.617
  0.624   0.633   0.638   0.644   0.655   0.668   0.670   0.678
  0.690   0.690   0.702   0.709   0.721   0.728   0.733   0.736
  0.746   0.751   0.761   0.767   0.775   0.778   0.789   0.793
  0.803   0.806   0.807   0.812   0.820   0.826   0.836   0.839
  0.848   0.858   0.859   0.865   0.870   0.878   0.892   0.901
  0.907   0.915   0.931   0.934   0.959   0.967   0.979   1.001
  1.010   1.016   1.027   1.036   1.048   1.064   1.077   1.080
  1.089   1.100   1.115   1.126   1.145   1.157   1.162   1.176
  1.201   1.211   1.213   1.231   1.240   1.263   1.269   1.279
  1.296   1.299   1.329   1.346   1.356   1.374   1.384   1.389
  1.402   1.414   1.428   1.435   1.460   1.473   1.501   1.522
  1.560   1.596   1.662   1.686   1.706   1.740   1.755   1.773
  1.787   1.822   1.843   1.868   1.892   1.907   1.919   1.925
  1.932   1.941   1.945   1.957   1.962   1.969   1.983   1.990
  2.003   2.009   2.013   2.020   2.046   2.074   2.098   2.123
  2.157   2.170   2.195   2.205   2.209   2.232   2.245   2.253
  2.286   2.287   2.302   2.322   2.329   2.339   2.365   2.388
  2.432   2.435   2.439   2.469   2.480   2.486   2.504   2.511
  2.529   2.568   2.574   2.592   2.628   2.657   2.660   2.678
  2.692   2.722   2.738   2.774   2.787   2.795   2.833   2.857
  2.867   2.884   2.906   2.931   2.964   2.976   2.978   2.996
  3.015   3.028   3.057   3.061   3.086   3.087   3.118   3.132
  3.164   3.209   3.231   3.248   3.259   3.282   3.293   3.306
  3.320   3.339   3.344   3.358   3.370   3.389   3.408   3.431
  3.441   3.457   3.465   3.479   3.488   3.512   3.521   3.531
  3.533   3.558   3.566   3.582   3.601   3.622   3.644   3.648
  3.661   3.668   3.681   3.691   3.703   3.716   3.729   3.738
  3.776   3.793   3.808   3.823   3.899   3.929   3.982   4.009
  4.067   4.084   4.091   4.100   4.127   4.167   4.193   4.244
  4.303   4.351   4.461   4.526   4.570   4.583   4.613   4.658
  4.701   4.734   4.783   4.812   4.828   4.837   4.887   5.025
  5.065   5.134   5.206   5.290   5.322   5.351   5.354   5.358
  5.359   5.371   5.377   5.379   5.397   5.434   5.505   5.582
  5.656   5.676   5.687   5.707   5.728   5.758   5.777   5.850
  6.004   6.068   6.144   6.251   6.312   6.317   6.328   6.340
  6.438   6.471   6.625   6.627   6.631   6.642   6.648   6.651
  6.694   6.718   6.725   6.746   6.759   6.778   6.818   6.913
  6.962   6.969   6.971   7.046   7.054   7.081   7.245   7.252
  7.279   7.358   7.389   7.411   7.414   7.548   7.651  22.632
 22.850  22.882  23.634  23.742  43.924  44.258  44.417  44.436
 44.646
 --------------------------------------------------------------
 
          Ground-State Mulliken Net Atomic Charges

     Atom                 Charge (a.u.)
  ----------------------------------------
      1 C                    -0.109752
      2 C                     0.049382
      3 O                    -0.703806
      4 O                    -0.690009
      5 C                    -0.186852
      6 H                     0.248343
      7 H                     0.245240
      8 O                    -0.198073
      9 H                     0.234594
     10 H                     0.219894
     11 C                     0.483443
     12 C                    -0.783614
     13 H                     0.263229
     14 H                     0.240891
     15 H                     0.208693
     16 O                    -0.520339
     17 O                    -1.116675
     18 H                     0.115411
  ----------------------------------------
  Sum of atomic charges =    -2.000000

 -----------------------------------------------------------------
                    Cartesian Multipole Moments
 -----------------------------------------------------------------
    Charge (ESU x 10^10)
                -9.6064
    Dipole Moment (Debye)
         X       4.8865      Y      12.3125      Z      15.3580
       Tot      20.2816
    Quadrupole Moments (Debye-Ang)
        XX    -102.0065     XY     -28.8605     YY    -125.4166
        XZ      20.5386     YZ      17.6076     ZZ    -113.4825
    Octopole Moments (Debye-Ang^2)
       XXX     140.6745    XXY      85.8735    XYY     148.4853
       YYY     267.3699    XXZ      54.7653    XYZ       4.7329
       YYZ      -2.3281    XZZ     -39.6878    YZZ       2.1773
       ZZZ     198.3281
    Hexadecapole Moments (Debye-Ang^3)
      XXXX   -1014.9160   XXXY    -592.8302   XXYY    -675.1279
      XYYY    -727.0045   YYYY   -2728.6991   XXXZ     132.9961
      XXYZ      65.7646   XYYZ      75.7539   YYYZ     312.3010
      XXZZ    -342.6431   XYZZ    -179.8360   YYZZ    -476.6410
      XZZZ     326.5609   YZZZ     215.9787   ZZZZ   -1142.5266
 -----------------------------------------------------------------
 Calculating analytic gradient of the SCF energy
 Gradient of SCF Energy
            1           2           3           4           5           6
    1   0.0689592  -0.0262103  -0.0016256   0.0480518  -0.0929039  -0.0516147
    2   0.0029215  -0.0270496   0.0530081  -0.0115219  -0.0215600   0.0240718
    3   0.0091694  -0.0072621  -0.0176969   0.0233205  -0.0283454   0.0330370
            7           8           9          10          11          12
    1   0.0007881   0.0079154   0.0550856  -0.0022088  -0.0390874   0.0276894
    2  -0.0023083   0.0318667  -0.0214953  -0.0030737  -0.0191161   0.0424105
    3  -0.0547427  -0.0016230  -0.0255667   0.0801153  -0.0434668  -0.0002404
           13          14          15          16          17          18
    1  -0.0107860   0.0106148  -0.0519357   0.0559170  -0.0538448   0.0551958
    2   0.0078592  -0.0617556   0.0251212  -0.0145844   0.0212540  -0.0260481
    3  -0.0521992   0.0157449   0.0336670   0.0346490   0.0519279  -0.0504879
 Max gradient component =       9.290E-02
 RMS gradient           =       3.754E-02
 Computing fast CPCM-ISWIG gradient
 Updating gradient with PCM contributions...
 -- total gradient after adding PCM contribution --
---------------------------------------------------
  Atom         X              Y              Z     
---------------------------------------------------
   1       0.000081      -0.000960       0.000009
   2       0.000076       0.000218       0.000029
   3       0.000048       0.000100      -0.000002
   4       0.000003      -0.000021      -0.000008
   5      -0.000070       0.000345      -0.000089
[...]
 H         -0.352 -0.173 -0.150   -0.357 -0.155 -0.153   -0.188  0.034  0.327
 H         -0.039  0.058 -0.074    0.288  0.411 -0.024    0.472  0.290  0.293
 O          0.062 -0.079  0.063   -0.096  0.057 -0.076    0.029 -0.013 -0.028
 O         -0.000 -0.000 -0.000   -0.000  0.000 -0.000    0.000  0.000  0.001
 H          0.000 -0.001  0.001    0.002 -0.003  0.007   -0.007 -0.001 -0.013
 TransDip   0.127  0.077  0.048    0.046  0.083  0.018   -0.067  0.050  0.098

 Mode:                25                     26                     27
 Frequency:      1073.24                1085.39                1127.57
 Force Cnst:      2.0503                 1.3620                 2.0653
 Red. Mass:       3.0211                 1.9623                 2.7571
 IR Active:          YES                    YES                    YES
 IR Intens:      183.691                 12.202                  7.659
 Raman Active:       YES                    YES                    YES
               X      Y      Z        X      Y      Z        X      Y      Z
 C          0.017 -0.040  0.020    0.083 -0.046 -0.143    0.136 -0.194  0.132
 C          0.003 -0.001  0.001   -0.079  0.040  0.152    0.009  0.013 -0.005
 O         -0.003  0.025 -0.008    0.014 -0.005 -0.027    0.009  0.027 -0.001
 O         -0.003 -0.005  0.000    0.013 -0.008 -0.030   -0.024 -0.004 -0.010
 C         -0.185 -0.118 -0.069   -0.066  0.039  0.114   -0.111  0.207 -0.124
 H          0.030  0.051 -0.019    0.357  0.274  0.231    0.072 -0.410  0.159
 H          0.013  0.058  0.012   -0.443 -0.252 -0.058    0.097 -0.389  0.152
 O          0.177  0.183  0.038    0.017 -0.011 -0.036    0.014 -0.067  0.032
 H         -0.104 -0.013 -0.021   -0.244  0.105 -0.349   -0.034  0.446 -0.159
 H         -0.080 -0.032 -0.069    0.385 -0.164  0.074   -0.076  0.451 -0.141
 C         -0.003  0.013  0.018   -0.017  0.012  0.033   -0.024 -0.031 -0.009
 C          0.038 -0.167  0.055    0.009 -0.006 -0.024    0.013  0.018  0.006
 H          0.123  0.376  0.094   -0.093 -0.031 -0.005    0.044  0.014  0.001
 H         -0.613 -0.319 -0.216   -0.028  0.006  0.055    0.070  0.030  0.016
 H          0.138  0.306 -0.096    0.071  0.043  0.045    0.017  0.008  0.015
 O         -0.043  0.005 -0.029    0.007 -0.004 -0.006   -0.027  0.026 -0.023
 O          0.000  0.000  0.000   -0.000  0.000  0.000   -0.000  0.000 -0.000
 H         -0.004 -0.001 -0.006   -0.002  0.000 -0.003    0.000 -0.005  0.005
 TransDip  -0.186 -0.390  0.036   -0.050  0.032  0.095    0.053  0.071  0.000

 Mode:                28                     29                     30
 Frequency:      1229.63                1284.89                1302.14
 Force Cnst:      1.0685                 1.7858                 2.2546
 Red. Mass:       1.1994                 1.8359                 2.2568
 IR Active:          YES                    YES                    YES
 IR Intens:        3.611                424.558                270.808
 Raman Active:       YES                    YES                    YES
               X      Y      Z        X      Y      Z        X      Y      Z
 C         -0.001 -0.003 -0.001    0.038  0.120 -0.005   -0.052 -0.146  0.019
 C         -0.025  0.011  0.047    0.021  0.046  0.006   -0.007 -0.027  0.004
 O          0.003  0.001 -0.008    0.007 -0.063  0.019   -0.002  0.053 -0.015
 O          0.004 -0.002 -0.007   -0.020  0.009 -0.014    0.006 -0.004  0.004
 C          0.049 -0.030 -0.087   -0.005  0.061 -0.033    0.040  0.014  0.013
 H          0.136  0.426 -0.063   -0.151 -0.367 -0.012    0.221  0.512  0.056
 H         -0.114 -0.401  0.033   -0.191 -0.494  0.055    0.279  0.404 -0.045
 O         -0.024  0.015  0.040    0.020 -0.093  0.041   -0.035 -0.107  0.014
 H          0.366  0.399  0.177   -0.189 -0.410  0.028    0.015  0.058 -0.057
 H         -0.414 -0.326 -0.048   -0.202 -0.350 -0.013   -0.008  0.162  0.005
 C         -0.000 -0.008 -0.003    0.050  0.158 -0.025    0.084  0.230 -0.030
 C          0.001  0.002 -0.001    0.010 -0.038  0.017    0.018 -0.042  0.022
 H          0.004  0.001 -0.001   -0.133  0.023  0.044   -0.249 -0.009  0.067
 H          0.006  0.003  0.002   -0.227 -0.100 -0.104   -0.333 -0.134 -0.152
 H          0.005 -0.001  0.007   -0.085 -0.000 -0.145   -0.160 -0.044 -0.236
 O         -0.002  0.002  0.002   -0.017 -0.007 -0.007   -0.015 -0.023 -0.001
 O          0.000 -0.000  0.000   -0.000 -0.000  0.000   -0.000 -0.000  0.000
 H          0.000  0.004 -0.003    0.002  0.005 -0.002    0.001  0.003 -0.001
 TransDip   0.021 -0.045 -0.035    0.056  0.635 -0.169    0.184  0.490 -0.065

 Mode:                31                     32                     33
 Frequency:      1309.97                1396.31                1422.25
 Force Cnst:      1.1123                 1.5563                 2.4594
 Red. Mass:       1.1001                 1.3548                 2.0636
 IR Active:          YES                    YES                    YES
 IR Intens:        7.952                 72.931                258.997
 Raman Active:       YES                    YES                    YES
               X      Y      Z        X      Y      Z        X      Y      Z
 C         -0.030  0.011  0.054   -0.029 -0.047 -0.003    0.019  0.027  0.004
 C         -0.013  0.003  0.022   -0.008 -0.019  0.000    0.101  0.121  0.022
 O          0.001  0.002 -0.004   -0.001  0.021 -0.006    0.007 -0.092  0.027
 O          0.003 -0.001 -0.002    0.007 -0.001  0.004   -0.070  0.012 -0.039
 C          0.022 -0.012 -0.043    0.016  0.077 -0.013   -0.013 -0.132  0.030
 H          0.054  0.447 -0.131    0.088  0.106  0.116   -0.113 -0.064 -0.194
 H         -0.021 -0.443  0.078    0.165  0.075 -0.028   -0.231 -0.011  0.027
 O          0.011  0.005 -0.021    0.014 -0.014  0.012   -0.034 -0.032 -0.009
 H         -0.132 -0.494  0.088   -0.136 -0.272 -0.002    0.206  0.456 -0.059
 H          0.133  0.526 -0.058   -0.152 -0.296  0.004    0.182  0.500  0.003
 C         -0.007 -0.020  0.003    0.003  0.046 -0.008    0.044  0.113 -0.008
 C         -0.003  0.004 -0.001   -0.110 -0.070 -0.026   -0.082 -0.066 -0.011
 H          0.025  0.001 -0.006    0.450  0.190 -0.105    0.201  0.120 -0.050
 H          0.031  0.012  0.012    0.381  0.025  0.064    0.272 -0.016 -0.035
 H          0.012  0.003  0.020    0.294  0.352  0.300    0.156  0.313  0.098
 O          0.002  0.001 -0.000    0.007 -0.008  0.006    0.003 -0.016  0.006
 O         -0.000  0.000 -0.000    0.000 -0.000  0.000   -0.000  0.000  0.000
 H         -0.000 -0.005  0.004    0.001  0.003 -0.001   -0.000 -0.002  0.001
 TransDip  -0.028 -0.071  0.048    0.165  0.218 -0.004    0.263  0.443 -0.013

 Mode:                34                     35                     36
 Frequency:      1434.63                1452.65                1461.56
 Force Cnst:      3.8660                 1.3187                 1.3459
 Red. Mass:       3.1881                 1.0606                 1.0694
 IR Active:          YES                    YES                    YES
 IR Intens:      199.776                 18.600                 22.283
 Raman Active:       YES                    YES                    YES
               X      Y      Z        X      Y      Z        X      Y      Z
 C         -0.122 -0.094 -0.040    0.011 -0.002  0.007    0.014 -0.029  0.016
 C          0.218  0.204  0.060   -0.004 -0.000 -0.002    0.010  0.015  0.001
 O          0.009 -0.135  0.040    0.000  0.000  0.000    0.001 -0.008  0.003
 O         -0.141  0.024 -0.080    0.002 -0.000  0.001   -0.006  0.001 -0.003
 C          0.010  0.047 -0.008    0.000 -0.005  0.002    0.002  0.019 -0.003
 H          0.216  0.164  0.487   -0.033  0.005 -0.095   -0.061  0.052 -0.216
 H          0.544 -0.009 -0.117   -0.093  0.036  0.015   -0.194  0.122  0.028
 O          0.018  0.046 -0.004   -0.002 -0.010  0.002   -0.001 -0.003  0.003
 H         -0.071 -0.200  0.039    0.007  0.022 -0.008   -0.006 -0.040  0.035
 H         -0.056 -0.214  0.007    0.005  0.026  0.001    0.018 -0.049 -0.003
 C         -0.031 -0.078  0.004    0.024  0.029  0.004    0.011  0.003 -0.025
 C          0.042  0.042 -0.001   -0.008  0.041 -0.019    0.004 -0.028 -0.043
 H         -0.029 -0.068  0.005    0.455 -0.305 -0.142    0.022  0.563  0.029
 H         -0.190  0.019  0.063   -0.471 -0.046 -0.041   -0.108  0.114  0.646
 H         -0.057 -0.231  0.031    0.165 -0.370  0.514   -0.114 -0.332  0.000
 O          0.004  0.007  0.000   -0.020  0.003 -0.013    0.002 -0.002  0.005
 O         -0.000  0.000 -0.000    0.000  0.000  0.000   -0.000 -0.000 -0.000
 H          0.000 -0.000  0.001   -0.001  0.000 -0.001    0.001  0.000  0.002
 TransDip   0.368  0.210  0.159    0.111 -0.031  0.076   -0.057  0.130  0.051

 Mode:                37                     38                     39
 Frequency:      1464.07                1497.24                1596.66
 Force Cnst:      1.6255                 1.4534                15.9195
 Red. Mass:       1.2871                 1.1004                10.5988
 IR Active:          YES                    YES                    YES
 IR Intens:        8.050                 20.653               1270.182
 Raman Active:       YES                    YES                    YES
               X      Y      Z        X      Y      Z        X      Y      Z
 C         -0.027  0.093 -0.040   -0.007  0.011 -0.007    0.011 -0.065  0.022
 C         -0.039 -0.047 -0.008   -0.005 -0.017  0.002   -0.456  0.522 -0.371
 O         -0.003  0.026 -0.008   -0.001  0.011 -0.004    0.067 -0.265  0.103
 O          0.023 -0.003  0.013    0.003  0.000  0.001    0.250 -0.100  0.156
 C         -0.002 -0.076  0.020   -0.064  0.018 -0.040   -0.026 -0.000 -0.014
 H          0.142 -0.165  0.543    0.035 -0.041  0.128    0.167  0.207  0.163
 H          0.475 -0.339 -0.066    0.113 -0.080 -0.014    0.259  0.142 -0.026
 O         -0.007 -0.009  0.000   -0.014 -0.014 -0.003    0.006  0.001  0.003
 H          0.015  0.181 -0.177    0.267  0.023  0.634    0.004  0.010  0.065
 H         -0.088  0.245  0.018    0.663 -0.178 -0.083    0.056 -0.017 -0.030
 C          0.021  0.031 -0.011    0.016  0.024  0.000    0.002 -0.003  0.002
 C         -0.010 -0.017 -0.022   -0.008 -0.007 -0.003   -0.000 -0.000  0.000
 H          0.082  0.214 -0.011    0.023  0.021 -0.006   -0.002  0.000  0.001
 H         -0.078  0.037  0.260   -0.008 -0.003  0.018    0.001  0.000  0.000
 H         -0.014 -0.150  0.069    0.007 -0.003  0.018   -0.001  0.000 -0.002
 O         -0.003 -0.003  0.001   -0.005 -0.002 -0.002   -0.003  0.002 -0.002
 O          0.000 -0.000  0.000    0.000  0.000 -0.000    0.000  0.000  0.000
 H          0.000 -0.000  0.000   -0.000 -0.004  0.002   -0.001 -0.000 -0.000
 TransDip  -0.011 -0.070  0.057    0.105 -0.071  0.070   -0.633  0.788 -0.530

 Mode:                40                     41                     42
 Frequency:      1763.19                3067.51                3077.41
 Force Cnst:     20.2586                 5.8840                 5.7876
 Red. Mass:      11.0602                 1.0613                 1.0372
 IR Active:          YES                    YES                    YES
 IR Intens:      594.575                 22.542                  0.549
 Raman Active:       YES                    YES                    YES
               X      Y      Z        X      Y      Z        X      Y      Z
 C         -0.014 -0.006 -0.006   -0.057  0.016 -0.036    0.000 -0.000  0.000
 C          0.010  0.005  0.004    0.000  0.002 -0.000    0.000 -0.000  0.000
 O         -0.001 -0.004  0.001    0.000 -0.000  0.000   -0.000 -0.000 -0.000
 O         -0.004 -0.000 -0.002    0.000 -0.000  0.000   -0.000 -0.000 -0.000
 C          0.031  0.013  0.014    0.003 -0.003  0.003    0.001 -0.000  0.001
 H         -0.002  0.025 -0.000    0.598 -0.230 -0.277   -0.004  0.001  0.002
 H          0.003  0.024 -0.012    0.072  0.041  0.706   -0.000 -0.000 -0.002
 O         -0.040  0.003 -0.023    0.000  0.001 -0.000   -0.000  0.000 -0.000
 H         -0.029 -0.099 -0.052   -0.033  0.015  0.017   -0.009  0.004  0.005
 H         -0.077 -0.078  0.044   -0.002 -0.001 -0.043   -0.001 -0.000 -0.011
 C          0.621 -0.190  0.408    0.000 -0.000  0.000    0.001  0.002  0.000
 C         -0.081 -0.023 -0.039   -0.000  0.000 -0.000   -0.049 -0.013 -0.008
 H         -0.190  0.027 -0.008    0.000 -0.000  0.002    0.101 -0.062  0.545
 H          0.265  0.030  0.107    0.000  0.001 -0.000   -0.071  0.436 -0.099
 H         -0.090  0.044 -0.107    0.002 -0.001 -0.001    0.543 -0.240 -0.359
 O         -0.373  0.155 -0.258   -0.000  0.000 -0.000    0.000 -0.000  0.000
 O          0.001 -0.000 -0.000   -0.000 -0.000 -0.000   -0.000  0.000  0.000
 H         -0.008 -0.001 -0.010   -0.000 -0.000  0.000   -0.000  0.000  0.000
 TransDip   0.536 -0.382  0.420   -0.107  0.072 -0.081   -0.017 -0.013 -0.009

 Mode:                43                     44                     45
 Frequency:      3094.57                3108.49                3150.54
 Force Cnst:      5.9657                 6.2784                 6.4913
 Red. Mass:       1.0573                 1.1028                 1.1100
 IR Active:          YES                    YES                    YES
 IR Intens:       29.378                 10.506                 41.258
 Raman Active:       YES                    YES                    YES
               X      Y      Z        X      Y      Z        X      Y      Z
 C         -0.003 -0.000 -0.001    0.042 -0.022 -0.076    0.011 -0.006 -0.020
 C         -0.001  0.000 -0.001    0.000 -0.000 -0.001    0.000 -0.000 -0.000
 O          0.000  0.000  0.000   -0.000  0.000  0.000   -0.000  0.000 -0.000
 O          0.000 -0.000  0.000    0.000 -0.000 -0.000   -0.000  0.000  0.000
 C         -0.052  0.023 -0.035   -0.011  0.006  0.019    0.044 -0.023 -0.079
 H          0.038 -0.015 -0.016   -0.600  0.225  0.254   -0.150  0.060  0.064
 H          0.005  0.001  0.040    0.089  0.036  0.669    0.022  0.006  0.172
 O         -0.001 -0.002  0.000   -0.000 -0.000  0.000   -0.000  0.000  0.000
 H          0.585 -0.258 -0.286    0.150 -0.064 -0.067   -0.576  0.260  0.261
 H          0.046  0.018  0.706   -0.017 -0.004 -0.169    0.059  0.004  0.676
 C         -0.001  0.002 -0.001   -0.000 -0.000 -0.000   -0.000  0.000  0.000
 C         -0.001 -0.001  0.000    0.000  0.000  0.000    0.002 -0.001 -0.004
 H          0.002 -0.001  0.007   -0.000  0.000 -0.001    0.006 -0.004  0.029
 H         -0.003  0.011 -0.003    0.000 -0.001  0.000   -0.001  0.008 -0.002
 H          0.008 -0.004 -0.005   -0.000  0.000  0.000   -0.023  0.010  0.015
 O          0.001 -0.000  0.001    0.000 -0.000 -0.000   -0.000  0.000  0.000
 O          0.000  0.000 -0.000   -0.000 -0.000  0.000    0.000  0.000 -0.000
 H         -0.000  0.000  0.000    0.000 -0.000 -0.000   -0.000  0.000  0.000
 TransDip  -0.155  0.011 -0.077    0.049 -0.024 -0.088    0.098 -0.053 -0.173

 Mode:                46                     47                     48
 Frequency:      3152.17                3187.62                3845.70
 Force Cnst:      6.4404                 6.6166                 9.2957
 Red. Mass:       1.1001                 1.1052                 1.0668
 IR Active:          YES                    YES                    YES
 IR Intens:        2.821                  8.916                  3.320
 Raman Active:       YES                    YES                    YES
               X      Y      Z        X      Y      Z        X      Y      Z
 C         -0.000  0.000  0.001   -0.000  0.000  0.000   -0.000 -0.000 -0.000
 C          0.000  0.000  0.000    0.000  0.000  0.000   -0.000  0.000 -0.000
 O         -0.000 -0.000  0.000   -0.000 -0.000 -0.000    0.000  0.000  0.000
 O          0.000 -0.000 -0.000   -0.000 -0.000 -0.000    0.000  0.000  0.000
 C         -0.002  0.001  0.004    0.000  0.000  0.000   -0.000 -0.000 -0.000
 H          0.006 -0.002 -0.002    0.000 -0.000 -0.000    0.000  0.000 -0.000
 H         -0.001 -0.000 -0.007    0.000  0.000 -0.000    0.000  0.000  0.000
 O          0.000 -0.000  0.000   -0.000  0.000 -0.000    0.000  0.000 -0.000
 H          0.024 -0.011 -0.011   -0.002  0.000  0.001   -0.000  0.000  0.000
 H         -0.002 -0.000 -0.029   -0.001 -0.001 -0.004   -0.000 -0.000  0.001
 C          0.001  0.000 -0.001    0.002 -0.001  0.001    0.000 -0.000  0.000
 C          0.034 -0.028 -0.080    0.030 -0.079  0.041   -0.000 -0.000 -0.000
 H          0.146 -0.085  0.684   -0.080  0.040 -0.423   -0.000 -0.000  0.000
 H         -0.022  0.180 -0.054   -0.127  0.842 -0.189   -0.000  0.000 -0.000
 H         -0.538  0.233  0.338   -0.162  0.062  0.116   -0.000 -0.000 -0.000
 O         -0.000 -0.000 -0.000   -0.001  0.000 -0.000   -0.000  0.000 -0.000
 O         -0.000 -0.000 -0.000   -0.000 -0.000 -0.000   -0.052  0.026  0.024
 H          0.000  0.000  0.000    0.000  0.000  0.000    0.825 -0.410 -0.384
 TransDip   0.000 -0.025 -0.048    0.008 -0.089  0.035   -0.054  0.023  0.001

 STANDARD THERMODYNAMIC QUANTITIES AT   298.15 K  AND     1.00 ATM

   This Molecule has  0 Imaginary Frequencies
   Zero point vibrational energy:       82.326 kcal/mol

   Atom    1 Element C  Has Mass   12.00000
   Atom    2 Element C  Has Mass   12.00000
   Atom    3 Element O  Has Mass   15.99491
   Atom    4 Element O  Has Mass   15.99491
   Atom    5 Element C  Has Mass   12.00000
   Atom    6 Element H  Has Mass    1.00783
   Atom    7 Element H  Has Mass    1.00783
   Atom    8 Element O  Has Mass   15.99491
   Atom    9 Element H  Has Mass    1.00783
   Atom   10 Element H  Has Mass    1.00783
   Atom   11 Element C  Has Mass   12.00000
   Atom   12 Element C  Has Mass   12.00000
   Atom   13 Element H  Has Mass    1.00783
   Atom   14 Element H  Has Mass    1.00783
   Atom   15 Element H  Has Mass    1.00783
   Atom   16 Element O  Has Mass   15.99491
   Atom   17 Element O  Has Mass   15.99491
   Atom   18 Element H  Has Mass    1.00783
   Molecular Mass:   148.037190 amu
   Principal axes and moments of inertia in amu*Bohr^2:
                             1           2           3
    Eigenvalues --      931.37048  3349.51653  3630.02700
          X               0.43062    -0.26773     0.86191
          Y               0.88153     0.32957    -0.33805
          Z              -0.19355     0.90537     0.37794
   Rotational Symmetry Number is   1
   The Molecule is an Asymmetric Top
   Translational Enthalpy:        0.889 kcal/mol
   Rotational Enthalpy:           0.889 kcal/mol
   Vibrational Enthalpy:         88.839 kcal/mol
   gas constant (RT):             0.592 kcal/mol
   Translational Entropy:        40.887  cal/mol.K
   Rotational Entropy:           30.805  cal/mol.K
   Vibrational Entropy:          48.490  cal/mol.K

   Total Enthalpy:               91.209 kcal/mol
   Total Entropy:               120.182  cal/mol.K
Archival summary:
1\1\c4-88\FREQ\ProcedureUnspecified\BasisUnspecified\558(2-,1)\lmgong\FriMar2021:48:502020FriMar2021:48:502020\0\\#,FREQ,ProcedureUnspecified,BasisUnspecified,\\-2,1\O\C,1,1.33456\O,2,1.21386,1,123.162\C,1,1.44864,2,116.635,3,1.60978,0\H,4,1.09197,1,108.692,2,-61.8857,0\H,4,1.09216,1,108.648,2,56.1182,0\C,2,1.50189,1,111.828,3,-179.37,0\H,7,1.08898,2,109.881,1,-170.456,0\H,7,1.09193,2,110.254,1,-48.4589,0\H,7,1.09393,2,108.645,1,69.688,0\C,4,1.51247,1,107.119,2,177.04,0\H,11,1.09533,4,109.982,1,-58.7422,0\H,11,1.09544,4,110.082,1,58.5813,0\C,11,1.53732,4,113.599,1,179.853,0\O,14,1.25686,11,117.936,4,-1.47335,0\O,14,1.25801,11,116.049,4,178.68,0\H,6,2.58087,4,124.99,1,3.59999,0\O,17,0.962967,6,123.851,4,89.8272,0\\\@

 Total job time:  34869.73s(wall), 479390.42s(cpu) 
 Fri Mar 20 21:48:51 2020

        *************************************************************
        *                                                           *
        *  Thank you very much for using Q-Chem.  Have a nice day.  *
        *                                                           *
        *************************************************************


