
Running Job 1 of 1 qc-freq1.in
qchem qc-freq1.in_26646.0 /scratch/leeping/1862746/qc-freq1.d/ 1
/home/leeping/opt/qchem/5.0.2-openmp/exe/qcprog.exe_s qc-freq1.in_26646.0 /scratch/leeping/1862746/qc-freq1.d/
Check license passed

                  Welcome to Q-Chem
     A Quantum Leap Into The Future Of Chemistry


 Q-Chem 5.0, Q-Chem, Inc., Pleasanton, CA (2017)

 Yihan Shao,  Zhengting Gan,  E. Epifanovsky,  A. T. B. Gilbert,  M. Wormit,  
 J. Kussmann,  A. W. Lange,  A. Behn,  Jia Deng,  Xintian Feng,  D. Ghosh,  
 M. Goldey,  P. R. Horn,  L. D. Jacobson,  I. Kaliman,  T. Kus,  A. Landau,  
 Jie Liu,  E. I. Proynov,  R. M. Richard,  R. P. Steele,  E. J. Sundstrom,  
 H. L. Woodcock III,  P. M. Zimmerman,  D. Zuev,  B. Albrecht,  E. Alguire,  
 S. A. Baeppler,  D. Barton,  Z. Benda,  Y. A. Bernard,  E. J. Berquist,  
 K. B. Bravaya,  H. Burton,  D. Casanova,  Chun-Min Chang,  Yunqing Chen,  
 A. Chien,  K. D. Closser,  M. P. Coons,  S. Dasgupta,  A. L. Dempwolff,  
 M. Diedenhofen,  Hainam Do,  R. G. Edgar,  Po-Tung Fang,  S. Fatehi,  
 Qingguo Feng,  J. Fosso-Tande,  Qinghui Ge,  A. Ghysels,  G. Gidofalvi,  
 J. Gomes,  J. Gonthier,  A. Gunina,  M. W. D. Hanson-Heine,  
 P. H. P. Harbach,  A. W. Hauser,  J. E. Herr,  E. G. Hohenstein,  
 Z. C. Holden,  Kerwin Hui,  T.-C. Jagau,  Hyunjun Ji,  B. Kaduk,  
 K. Khistyaev,  Jaehoon Kim,  P. Klunzinger,  K. Koh,  D. Kosenkov,  
 L. Koulias,  T. Kowalczyk,  C. M. Krauter,  A. Kunitsa,  Ka Un Lao,  
 A. Laurent,  K. V. Lawler,  Joonho Lee,  D. Lefrancois,  S. Lehtola,  
 D. S. Levine,  Yi-Pei Li,  You-Sheng Lin,  Fenglai Liu,  E. Livshits,  
 A. Luenser,  P. Manohar,  E. Mansoor,  S. F. Manzer,  Shan-Ping Mao,  
 Yuezhi Mao,  N. Mardirossian,  A. V. Marenich,  T. Markovich,  
 L. A. Martinez-Martinez,  S. A. Maurer,  N. J. Mayhall,  S. C. McKenzie,  
 J.-M. Mewes,  A. F. Morrison,  J. W. Mullinax,  K. Nanda,  
 T. S. Nguyen-Beck,  R. Olivares-Amaya,  J. A. Parkhill,  T. M. Perrine,  
 F. Plasser,  S. Prager,  A. Prociuk,  E. Ramos,  D. R. Rehn,  F. Rob,  
 M. Schneider,  N. Sergueev,  S. M. Sharada,  S. Sharma,  D. W. Small,  
 T. Stauch,  T. Stein,  Yu-Chuan Su,  A. J. W. Thom,  A. Tkatchenko,  
 T. Tsuchimochi,  L. Vogt,  O. Vydrov,  M. A. Watson,  J. Wenzel,  
 M. de Wergifosse,  T. A. Wesolowski,  A. White,  J. Witte,  A. Yamada,  
 Jun Yang,  K. Yao,  S. Yeganeh,  S. R. Yost,  Zhi-Qiang You,  A. Zech,  
 Igor Ying Zhang,  Xing Zhang,  Yan Zhao,  Ying Zhu,  B. R. Brooks,  
 G. K. L. Chan,  C. J. Cramer,  M. S. Gordon,  W. J. Hehre,  A. Klamt,  
 M. W. Schmidt,  C. D. Sherrill,  D. G. Truhlar,  A. Aspuru-Guzik,  R. Baer,  
 A. T. Bell,  N. A. Besley,  Jeng-Da Chai,  R. A. DiStasio Jr.,  A. Dreuw,  
 B. D. Dunietz,  T. R. Furlani,  Chao-Ping Hsu,  Yousung Jung,  Jing Kong,  
 D. S. Lambrecht,  WanZhen Liang,  C. Ochsenfeld,  V. A. Rassolov,  
 L. V. Slipchenko,  J. E. Subotnik,  T. Van Voorhis,  J. M. Herbert,  
 A. I. Krylov,  P. M. W. Gill,  M. Head-Gordon

 Contributors to earlier versions of Q-Chem not listed above: 
 R. D. Adamson,  B. Austin,  J. Baker,  G. J. O. Beran,  K. Brandhorst,  
 S. T. Brown,  E. F. C. Byrd,  A. K. Chakraborty,  C.-L. Cheng,  
 Siu Hung Chien,  D. M. Chipman,  D. L. Crittenden,  H. Dachsel,  
 R. J. Doerksen,  A. D. Dutoi,  L. Fusti-Molnar,  W. A. Goddard III,  
 A. Golubeva-Zadorozhnaya,  S. R. Gwaltney,  G. Hawkins,  A. Heyden,  
 S. Hirata,  G. Kedziora,  F. J. Keil,  C. Kelley,  Jihan Kim,  R. A. King,  
 R. Z. Khaliullin,  P. P. Korambath,  W. Kurlancheek,  A. M. Lee,  M. S. Lee,  
 S. V. Levchenko,  Ching Yeh Lin,  D. Liotard,  R. C. Lochan,  I. Lotan,  
 P. E. Maslen,  N. Nair,  D. P. O'Neill,  D. Neuhauser,  E. Neuscamman,  
 C. M. Oana,  R. Olson,  B. Peters,  R. Peverati,  P. A. Pieniazek,  
 Y. M. Rhee,  J. Ritchie,  M. A. Rohrdanz,  E. Rosta,  N. J. Russ,  
 H. F. Schaefer III,  N. E. Schultz,  N. Shenvi,  A. C. Simmonett,  A. Sodt,  
 D. Stuck,  K. S. Thanthiriwatte,  V. Vanovschi,  Tao Wang,  A. Warshel,  
 C. F. Williams,  Q. Wu,  X. Xu,  W. Zhang

 Please cite Q-Chem as follows:
 Y. Shao et al., Mol. Phys. 113, 184-215 (2015)
 DOI: 10.1080/00268976.2014.952696

 Q-Chem 5.0.2 for Intel X86 EM64T Linux

 Parts of Q-Chem use Armadillo 5.200.1 (Boston Tea Smuggler).
 http://arma.sourceforge.net/

 Q-Chem begins on Fri Mar 20 21:42:16 2020  

Host: 
0

     Scratch files written to /scratch/leeping/1862746/qc-freq1.d//
 Dec517 15110_ 26548  26544 5633   
Processing $rem in /home/leeping/opt/qchem/5.0.2-openmp/config/preferences.
 MEM_STATIC 2000
 MEM_TOTAL  8000
 SYMMETRY   OFF
 SYM_IGNORE TRUE 
Symmetry turned off for PCM/SM12/SMD calculation

Checking the input file for inconsistencies... 	...done.

--------------------------------------------------------------
User input:
--------------------------------------------------------------
$molecule
-2 1
C       -0.8320366220   -0.3437303380    0.5696024402
C        0.4886764597   -0.4484553468   -0.0656461184
H       -1.1461456709   -1.2891712276    1.0313280734
H       -0.8629514931    0.4403113002    1.3352022743
H        0.8039446285   -1.4203741629   -0.4455411571
C        1.3820803213    0.6553081569   -0.2304857721
O        2.5262421621    0.4707314191   -0.8213094693
O        1.0659082161    1.8334220346    0.2094305940
O       -1.9435365580   -0.0021169024   -0.3704699081
H       -1.4817863153    0.1036725303   -1.2115570314
$end

$rem
jobtype               freq
method                wb97x-v
basis                 def2-tzvpd
symmetry              off
sym_ignore            true
incdft                false
incfock               0
!scf_algorithm        diis_gdm
scf_convergence       8
thresh                14
!purecart             112
max_scf_cycles        1000
geom_opt_max_cycles   500
geom_opt_dmax         100
geom_opt_tol_gradient 10
solvent_method        pcm
ideriv                1
rpath_tol_displacement 1000
rpath_max_cycles      100
rpath_direction       1
!scf_guess            read
scf_guess             read
$end

$pcm
theory              cosmo
method              iswig
Radii               bondi
vdwScale            1.20
hpoints             110
heavypoints         110
$end

$solvent
dielectric 78.400000
$end

--------------------------------------------------------------
 ----------------------------------------------------------------
             Standard Nuclear Orientation (Angstroms)
    I     Atom           X                Y                Z
 ----------------------------------------------------------------
    1      C      -0.8320366220    -0.3437303380     0.5696024402
    2      C       0.4886764597    -0.4484553468    -0.0656461184
    3      H      -1.1461456709    -1.2891712276     1.0313280734
    4      H      -0.8629514931     0.4403113002     1.3352022743
    5      H       0.8039446285    -1.4203741629    -0.4455411571
    6      C       1.3820803213     0.6553081569    -0.2304857721
    7      O       2.5262421621     0.4707314191    -0.8213094693
    8      O       1.0659082161     1.8334220346     0.2094305940
    9      O      -1.9435365580    -0.0021169024    -0.3704699081
   10      H      -1.4817863153     0.1036725303    -1.2115570314
 ----------------------------------------------------------------
 Nuclear Repulsion Energy =   218.2871781662 hartrees
 There are       24 alpha and       24 beta electrons
 Requested basis set is def2-TZVPD
 There are 101 shells and 267 basis functions

 Total QAlloc Memory Limit   8000 MB
 Mega-Array Size      1956 MB
 MEM_STATIC part      2000 MB
 Discretize the solute cavity surface with Lebedev spheres
	Using 110 Lebedev grid points for each H atom
	Using 110 Lebedev grid points for other atoms
	Atomic van der Waals radii will be scaled by 1.20
 Remove points where switching function is < 1.0e-08
 Keep 653 surface tesserae and discard 447 interior tesserae
 Molecular Surface Area = 125.885 Angst**2

                       Distance Matrix (Angstroms)
             C (  1)   C (  2)   H (  3)   H (  4)   H (  5)   C (  6)
   C (  2)  1.469283
   H (  3)  1.098050  2.140747
   H (  4)  1.096276  2.139902  1.778665
   H (  5)  2.205927  1.090110  2.449737  3.067856
   C (  6)  2.557447  1.429558  3.430029  2.745500  2.165398
   O (  7)  3.725053  2.359577  4.473919  4.017226  2.585303  1.300864
   O (  8)  2.910655  2.369774  3.913986  2.632227  3.329385  1.296705
   O (  9)  1.495282  2.491545  2.063342  2.067057  3.092853  3.392865
   H ( 10)  1.948043  2.345353  2.661429  2.642398  2.852028  3.077098
             O (  7)   O (  8)   O (  9)
   O (  8)  2.247649
   O (  9)  4.517274  3.572429
   H ( 10)  4.043676  3.391458  0.965315
 
 A cutoff of  1.0D-14 yielded   4957 shell pairs
 There are     35143 function pairs (     45300 Cartesian)
 
 -------------------------------------------------------
 OpenMP Integral Computing Module                       
 Release: version 1.0, May 2013, Q-Chem Inc. Pittsburgh 
 -------------------------------------------------------
 Integral Job Info:
 Integral job number is                      11
 Integral operator is                         1
 short-range coefficients              16700000
 long-range coefficients              100000000
 Omega coefficients                         300
 if combine SR and LR in K                    1
 Integral screening is                        0
 Integral computing path is                   2
 max size of driver memory is            800000
 size of driver memory is                776718
 size of scratch memory is              4473992
 max col of scratch BK array              10000
 max len of scratch array in speh3          662
 max len of scratch index in speh4           32
 max int batch size is                      520
 min int batch size is                       52
 fixed nKL is                                52
 max L of basis functions is                  3
 order of int derivative is                   0
 number of shells is                        101
 number of basis is                         303
 number of cartesian basis is               303
 number of contracted shell pairs          4957
 number of primitive shell pairs          10696
 maxK2 (contraction) of shell pair           36
 max number of K2 of shell pair               1
 max number of CS2 of shell pair            742
 max number of PS2 of shell pair           1218
 mem total for path MDJ                  620720
 -------------------------------------------------------
 Smallest overlap matrix eigenvalue = 6.98E-06
 Guess MOs from SCF MO coefficient file
 Reading MOs from coefficient file
 Reading MOs from coefficient file
 Long-range K will be added via erf
 Coulomb attenuation parameter = 0.3 bohr**(-1)
 A restricted hybrid HF-DFT SCF calculation will be
 performed using Pulay DIIS extrapolation
 Polarizable Continuum solvation model will be applied
 Exchange:     0.1670 Hartree-Fock + 1.0000 wB97X-V + LR-HF
 Correlation:  1.0000 wB97X-V
 Using SG-2 standard quadrature grid
 Nonlocal Correlation:  VV10 with C = 0.0100 and b = 6.00
 Grid used for NLC:  SG-1 standard quadrature
 SCF converges when DIIS error is below 1.0E-08
Using Q-Chem read-in guess as SCF_GUESS READ specified.

 using 16 threads for integral computing
 -------------------------------------------------------
 OpenMP Integral computing Module                
 Release: version 1.0, May 2013, Q-Chem Inc. Pittsburgh 
 -------------------------------------------------------
 using 16 threads for integral computing
 -------------------------------------------------------
 OpenMP Integral computing Module                
 Release: version 1.0, May 2013, Q-Chem Inc. Pittsburgh 
 -------------------------------------------------------
 -------------------------------------------------------
 OpenMP BLAS3 based DFT computing Module                
 Release: version 1.0, May 2013, Q-Chem Inc. Pittsburgh 
 -------------------------------------------------------
 -------------------------------------------------------
 OpenMP BLAS3 based DFT computing Module                
 Release: version 1.0, May 2013, Q-Chem Inc. Pittsburgh 
 -------------------------------------------------------
 -------------------------------------------------------
 OpenMP BLAS3 based DFT computing Module                
 Release: version 1.0, May 2013, Q-Chem Inc. Pittsburgh 
 -------------------------------------------------------
 ---------------------------------------
  Cycle       Energy         DIIS Error
 ---------------------------------------
    1    -342.2904926911      5.91E-04
    2    -342.6387660956      6.92E-04
    3    -342.6459894649      3.00E-04
    4    -342.6471770826      2.14E-04
    5    -342.6478674299      1.61E-04
    6    -342.6482786809      1.20E-04
    7    -342.6485280130      8.79E-05
    8    -342.6486298233      7.10E-05
    9    -342.6487079149      5.47E-05
   10    -342.6487613216      3.98E-05
   11    -342.6487865440      3.02E-05
   12    -342.6487984199      2.45E-05
   13    -342.6488065791      1.95E-05
   14    -342.6488125161      1.49E-05
   15    -342.6488169578      1.01E-05
   16    -342.6488190793      6.67E-06
   17    -342.6488207357      1.18E-08
   18    -342.6488207357      3.26E-09 Convergence criterion met
 ---------------------------------------

************** Final PCM Free Energy Summary **************
 G_electrostatic  =      -0.35832882 hartree =    -224.85472759 kcal/mol
 G_cavitation     =       0.00000000 hartree =       0.00000000 kcal/mol
 G_dispersion     =       0.00000000 hartree =       0.00000000 kcal/mol
 G_repulsion      =       0.00000000 hartree =       0.00000000 kcal/mol
 --------------------------------------------------
 Non-electrostatic Free Energy =       0.00000000 hartree =       0.00000000 kcal/mol
 Total                         =      -0.35832882 hartree =    -224.85472759 kcal/mol
 --------------------------------------------------
 SCF Energy (H0 + V/2)                       =    -342.64882074 
 Solute Internal Energy (H0)                 =    -342.29049192 
 Total Free Energy (H0 + V/2 + non-elec)     =    -342.64882074 hartree
                                             = -215015.38023863 kcal/mol
***********************************************************

 SCF time:  CPU 869.09 s  wall 60.86 s
 SCF   energy in the final basis set = -342.64882074
 Total energy in the final basis set = -342.64882074
 
 --------------------------------------------------------------
 
                    Orbital Energies (a.u.)
 --------------------------------------------------------------
 
 Alpha MOs
 -- Occupied --
-19.175 -19.101 -19.099 -10.299 -10.274 -10.171  -1.101  -1.088
 -0.992  -0.822  -0.710  -0.583  -0.545  -0.521  -0.500  -0.470
 -0.458  -0.451  -0.410  -0.355  -0.314  -0.313  -0.290  -0.226
 -- Virtual --
  0.065   0.083   0.092   0.097   0.117   0.124   0.128   0.139
  0.150   0.164   0.167   0.176   0.194   0.204   0.215   0.224
  0.241   0.251   0.262   0.265   0.289   0.296   0.308   0.318
  0.327   0.335   0.351   0.358   0.360   0.368   0.381   0.388
  0.395   0.404   0.415   0.420   0.426   0.433   0.446   0.452
  0.459   0.469   0.479   0.492   0.506   0.517   0.522   0.529
  0.539   0.555   0.556   0.564   0.581   0.589   0.606   0.617
  0.626   0.629   0.652   0.665   0.671   0.688   0.696   0.705
  0.716   0.730   0.733   0.741   0.746   0.757   0.779   0.786
  0.802   0.820   0.837   0.847   0.850   0.861   0.864   0.882
  0.915   0.927   0.979   0.995   1.004   1.020   1.035   1.045
  1.059   1.083   1.098   1.122   1.149   1.174   1.220   1.243
  1.254   1.291   1.312   1.331   1.353   1.381   1.416   1.437
  1.495   1.537   1.557   1.601   1.674   1.744   1.801   1.818
  1.860   1.867   1.899   1.931   1.933   1.942   1.981   1.998
  2.024   2.033   2.082   2.088   2.110   2.150   2.171   2.217
  2.244   2.255   2.273   2.312   2.360   2.413   2.425   2.445
  2.460   2.468   2.510   2.555   2.640   2.656   2.712   2.739
  2.755   2.783   2.813   2.855   2.885   2.903   2.935   2.961
  2.994   3.047   3.058   3.083   3.116   3.182   3.190   3.243
  3.256   3.295   3.328   3.361   3.390   3.429   3.439   3.466
  3.487   3.502   3.536   3.556   3.559   3.587   3.600   3.610
  3.654   3.657   3.695   3.735   3.798   3.822   3.847   3.886
  3.985   3.989   4.166   4.216   4.285   4.346   4.373   4.461
  4.509   4.674   4.694   4.850   4.884   4.931   4.971   5.042
  5.177   5.355   5.386   5.404   5.426   5.433   5.485   5.541
  5.610   5.714   5.749   5.787   5.825   5.832   5.996   6.085
  6.154   6.266   6.402   6.429   6.537   6.657   6.711   6.744
  6.759   6.785   6.880   6.931   6.984   7.001   7.035   7.188
  7.310   7.358   7.374   7.396   7.444  22.642  22.919  23.568
 44.169  44.325  44.373
 --------------------------------------------------------------
 
          Ground-State Mulliken Net Atomic Charges

     Atom                 Charge (a.u.)
  ----------------------------------------
      1 C                    -0.319653
      2 C                    -0.540249
      3 H                     0.149282
      4 H                     0.110511
      5 H                     0.297325
      6 C                     0.225718
      7 O                    -0.823249
      8 O                    -0.796005
      9 O                    -0.671699
     10 H                     0.368019
  ----------------------------------------
  Sum of atomic charges =    -2.000000

 -----------------------------------------------------------------
                    Cartesian Multipole Moments
 -----------------------------------------------------------------
    Charge (ESU x 10^10)
                -9.6064
    Dipole Moment (Debye)
         X     -10.3248      Y      -7.4013      Z       2.1699
       Tot      12.8875
    Quadrupole Moments (Debye-Ang)
        XX     -82.6492     XY     -10.9332     YY     -58.1737
        XZ       6.9798     YZ      -0.6336     ZZ     -44.2180
    Octopole Moments (Debye-Ang^2)
       XXX    -108.0439    XXY     -34.2715    XYY     -38.1484
       YYY     -72.0162    XXZ      29.1487    XYZ       3.6931
       YYZ       2.3852    XZZ     -30.6053    YZZ     -13.6258
       ZZZ      14.3056
    Hexadecapole Moments (Debye-Ang^3)
      XXXX    -907.3087   XXXY    -129.5157   XXYY    -183.3684
      XYYY    -119.0155   YYYY    -316.7248   XXXZ      97.9377
      XXYZ      10.3979   XYYZ      11.8353   YYYZ       0.9350
      XXZZ    -147.0226   XYZZ     -32.6457   YYZZ     -66.6575
      XZZZ      56.3263   YZZZ       5.3870   ZZZZ    -125.0705
 -----------------------------------------------------------------
 Calculating analytic gradient of the SCF energy
 Gradient of SCF Energy
            1           2           3           4           5           6
    1  -0.0439169   0.0547722   0.0101485  -0.0023395   0.0322690  -0.0001571
    2  -0.0027585  -0.0831103   0.0640673  -0.0544264   0.0560087   0.0604874
    3   0.0735863  -0.0215199  -0.0510048  -0.0658763   0.1166398  -0.0451561
            7           8           9          10
    1  -0.0452660   0.0085876   0.0296342  -0.0437319
    2  -0.0018059  -0.0434519   0.0160805  -0.0110910
    3   0.0213462  -0.0151651  -0.0762739   0.0634238
 Max gradient component =       1.166E-01
 RMS gradient           =       4.934E-02
 Computing fast CPCM-ISWIG gradient
 Updating gradient with PCM contributions...
 -- total gradient after adding PCM contribution --
---------------------------------------------------
  Atom         X              Y              Z     
---------------------------------------------------
   1       0.000046      -0.000018       0.000084
   2      -0.000061       0.000007      -0.000085
   3      -0.000007       0.000002       0.000005
   4       0.000011       0.000002      -0.000038
   5      -0.000006       0.000013      -0.000002
   6       0.000022      -0.000013       0.000028
   7      -0.000000       0.000026       0.000002
   8       0.000015      -0.000017       0.000007
   9       0.000001      -0.000034      -0.000008
  10      -0.000021       0.000033       0.000008
---------------------------------------------------
 Number of fixed atoms: 0
 Gradient time:  CPU 167.05 s  wall 12.23 s
 ######################################################
 ######################################################
 # Starting finite difference calculation for IDERIV  #
 Finite diff step size:  1.88973e-03 a.u.
 ----------------------------------------------------------------
             Standard Nuclear Orientation (Angstroms)
    I     Atom           X                Y                Z
 ----------------------------------------------------------------
    1      C      -0.8310366220    -0.3437303380     0.5696024402
    2      C       0.4886764597    -0.4484553468    -0.0656461184
    3      H      -1.1461456709    -1.2891712276     1.0313280734
    4      H      -0.8629514931     0.4403113002     1.3352022743
    5      H       0.8039446285    -1.4203741629    -0.4455411571
    6      C       1.3820803213     0.6553081569    -0.2304857721
    7      O       2.5262421621     0.4707314191    -0.8213094693
    8      O       1.0659082161     1.8334220346     0.2094305940
    9      O      -1.9435365580    -0.0021169024    -0.3704699081
   10      H      -1.4817863153     0.1036725303    -1.2115570314
 ----------------------------------------------------------------
 Nuclear Repulsion Energy =   218.2921755905 hartrees
 There are       24 alpha and       24 beta electrons
 Discretize the solute cavity surface with Lebedev spheres
	Using 110 Lebedev grid points for each H atom
	Using 110 Lebedev grid points for other atoms
	Atomic van der Waals radii will be scaled by 1.20
 Remove points where switching function is < 1.0e-08
 Keep 652 surface tesserae and discard 448 interior tesserae
 Molecular Surface Area = 125.889 Angst**2

                       Distance Matrix (Angstroms)
             C (  1)   C (  2)   H (  3)   H (  4)   H (  5)   C (  6)
   C (  2)  1.468384
   H (  3)  1.098336  2.140747
   H (  4)  1.096304  2.139902  1.778665
   H (  5)  2.205185  1.090110  2.449737  3.067856
   C (  6)  2.556581  1.429558  3.430029  2.745500  2.165398
   O (  7)  3.724152  2.359577  4.473919  4.017226  2.585303  1.300864
   O (  8)  2.910003  2.369774  3.913986  2.632227  3.329385  1.296705
   O (  9)  1.496025  2.491545  2.063342  2.067057  3.092853  3.392865
   H ( 10)  1.948377  2.345353  2.661429  2.642398  2.852028  3.077098
             O (  7)   O (  8)   O (  9)
   O (  8)  2.247649
   O (  9)  4.517274  3.572429
   H ( 10)  4.043676  3.391458  0.965315
 
 Requested basis set is def2-TZVPD
 There are 101 shells and 267 basis functions
 A cutoff of  1.0D-14 yielded   4957 shell pairs
 There are     35143 function pairs (     45300 Cartesian)
 Smallest overlap matrix eigenvalue = 6.98E-06
 Guess MOs from SCF MO coefficient file
 Reading MOs from coefficient file
 Reading MOs from coefficient file
 Long-range K will be added via erf
 Coulomb attenuation parameter = 0.3 bohr**(-1)
 A restricted hybrid HF-DFT SCF calculation will be
 performed using Pulay DIIS extrapolation
 Polarizable Continuum solvation model will be applied
 Exchange:     0.1670 Hartree-Fock + 1.0000 wB97X-V + LR-HF
 Correlation:  1.0000 wB97X-V
 Using SG-2 standard quadrature grid
 Nonlocal Correlation:  VV10 with C = 0.0100 and b = 6.00
 Grid used for NLC:  SG-1 standard quadrature
 SCF converges when DIIS error is below 1.0E-08
Using Q-Chem read-in guess as SCF_GUESS READ specified.

 using 16 threads for integral computing
 -------------------------------------------------------
 OpenMP Integral computing Module                
 Release: version 1.0, May 2013, Q-Chem Inc. Pittsburgh 
 -------------------------------------------------------
 using 16 threads for integral computing
 -------------------------------------------------------
 OpenMP Integral computing Module                
 Release: version 1.0, May 2013, Q-Chem Inc. Pittsburgh 
 -------------------------------------------------------
 -------------------------------------------------------
 OpenMP BLAS3 based DFT computing Module                
 Release: version 1.0, May 2013, Q-Chem Inc. Pittsburgh 
 -------------------------------------------------------
 -------------------------------------------------------
 OpenMP BLAS3 based DFT computing Module                
 Release: version 1.0, May 2013, Q-Chem Inc. Pittsburgh 
 -------------------------------------------------------
 -------------------------------------------------------
 OpenMP BLAS3 based DFT computing Module                
 Release: version 1.0, May 2013, Q-Chem Inc. Pittsburgh 
 -------------------------------------------------------
 ---------------------------------------
  Cycle       Energy         DIIS Error
 ---------------------------------------
    1    -342.2899419959      5.92E-04
    2    -342.6387666415      6.92E-04
    3    -342.6459954374      3.00E-04
    4    -342.6471829807      2.14E-04
    5    -342.6478768120      1.60E-04
    6    -342.6482936217      1.18E-04
    7    -342.6485515739      8.41E-05
    8    -342.6486629664      6.43E-05
    9    -342.6487506186      4.29E-05
   10    -342.6488014901      2.23E-05
   11    -342.6488160005      1.04E-05
   12    -342.6488193959      4.00E-06
   13    -342.6488199106      1.33E-06
   14    -342.6488199716      2.49E-07
   15    -342.6488199738      3.65E-08
   16    -342.6488199739      6.79E-09 Convergence criterion met
 ---------------------------------------

************** Final PCM Free Energy Summary **************
 G_electrostatic  =      -0.35829353 hartree =    -224.83258491 kcal/mol
 G_cavitation     =       0.00000000 hartree =       0.00000000 kcal/mol
 G_dispersion     =       0.00000000 hartree =       0.00000000 kcal/mol
 G_repulsion      =       0.00000000 hartree =       0.00000000 kcal/mol
 --------------------------------------------------
 Non-electrostatic Free Energy =       0.00000000 hartree =       0.00000000 kcal/mol
 Total                         =      -0.35829353 hartree =    -224.83258491 kcal/mol
 --------------------------------------------------
 SCF Energy (H0 + V/2)                       =    -342.64881997 
 Solute Internal Energy (H0)                 =    -342.29052644 
 Total Free Energy (H0 + V/2 + non-elec)     =    -342.64881997 hartree
                                             = -215015.37976057 kcal/mol
***********************************************************

 SCF time:  CPU 763.43 s  wall 53.37 s
 SCF   energy in the final basis set = -342.64881997
 Total energy in the final basis set = -342.64881997
 
 --------------------------------------------------------------
 
                    Orbital Energies (a.u.)
 --------------------------------------------------------------
 
 Alpha MOs
 -- Occupied --
-19.175 -19.101 -19.100 -10.299 -10.274 -10.171  -1.100  -1.088
 -0.992  -0.822  -0.710  -0.583  -0.545  -0.521  -0.500  -0.470
 -0.458  -0.451  -0.410  -0.355  -0.314  -0.313  -0.290  -0.226
 -- Virtual --
  0.065   0.083   0.092   0.097   0.117   0.124   0.128   0.139
  0.150   0.164   0.167   0.176   0.194   0.204   0.215   0.224
  0.241   0.251   0.262   0.265   0.289   0.296   0.308   0.318
  0.327   0.335   0.351   0.358   0.360   0.368   0.381   0.388
  0.395   0.404   0.415   0.420   0.426   0.433   0.446   0.452
  0.459   0.469   0.479   0.492   0.506   0.517   0.522   0.529
  0.539   0.555   0.556   0.564   0.581   0.589   0.606   0.617
  0.626   0.629   0.652   0.665   0.671   0.688   0.696   0.705
  0.716   0.730   0.733   0.741   0.746   0.757   0.779   0.786
  0.802   0.820   0.837   0.847   0.850   0.861   0.864   0.882
  0.916   0.927   0.979   0.995   1.004   1.020   1.035   1.045
  1.059   1.083   1.098   1.122   1.149   1.174   1.220   1.243
  1.254   1.291   1.313   1.331   1.353   1.381   1.416   1.438
  1.495   1.537   1.557   1.601   1.674   1.744   1.801   1.817
  1.860   1.867   1.899   1.931   1.933   1.942   1.981   1.998
  2.024   2.033   2.082   2.088   2.110   2.150   2.171   2.217
  2.244   2.255   2.273   2.312   2.360   2.413   2.424   2.445
  2.460   2.468   2.510   2.555   2.640   2.656   2.713   2.739
  2.755   2.783   2.813   2.855   2.884   2.903   2.935   2.961
  2.994   3.047   3.058   3.083   3.116   3.182   3.190   3.243
  3.256   3.295   3.328   3.361   3.391   3.428   3.438   3.466
  3.487   3.502   3.536   3.556   3.559   3.587   3.600   3.610
  3.654   3.657   3.695   3.735   3.798   3.823   3.848   3.886
  3.985   3.989   4.166   4.216   4.286   4.347   4.372   4.462
  4.510   4.674   4.693   4.850   4.884   4.931   4.971   5.042
  5.177   5.355   5.386   5.404   5.426   5.433   5.485   5.541
  5.610   5.714   5.749   5.787   5.824   5.831   5.996   6.084
  6.153   6.266   6.402   6.429   6.537   6.657   6.711   6.744
  6.759   6.785   6.880   6.931   6.984   7.001   7.035   7.188
  7.310   7.358   7.374   7.396   7.444  22.642  22.920  23.568
 44.169  44.325  44.373
 --------------------------------------------------------------
 
          Ground-State Mulliken Net Atomic Charges

     Atom                 Charge (a.u.)
  ----------------------------------------
      1 C                    -0.320328
      2 C                    -0.539389
      3 H                     0.149165
      4 H                     0.110821
      5 H                     0.297280
      6 C                     0.225877
      7 O                    -0.823193
      8 O                    -0.795949
      9 O                    -0.672024
     10 H                     0.367739
  ----------------------------------------
  Sum of atomic charges =    -2.000000

 -----------------------------------------------------------------
                    Cartesian Multipole Moments
 -----------------------------------------------------------------
    Charge (ESU x 10^10)
                -9.6064
    Dipole Moment (Debye)
         X     -10.3159      Y      -7.4012      Z       2.1712
       Tot      12.8806
    Quadrupole Moments (Debye-Ang)
        XX     -82.6554     XY     -10.9329     YY     -58.1713
        XZ       6.9758     YZ      -0.6333     ZZ     -44.2160
    Octopole Moments (Debye-Ang^2)
       XXX    -108.0064    XXY     -34.2690    XYY     -38.1408
       YYY     -72.0112    XXZ      29.1556    XYZ       3.6916
       YYZ       2.3855    XZZ     -30.6004    YZZ     -13.6258
       ZZZ      14.3083
    Hexadecapole Moments (Debye-Ang^3)
      XXXX    -907.3004   XXXY    -129.5029   XXYY    -183.3596
      XYYY    -119.0059   YYYY    -316.7029   XXXZ      97.9023
      XXYZ      10.3965   XYYZ      11.8302   YYYZ       0.9370
      XXZZ    -147.0155   XYZZ     -32.6437   YYZZ     -66.6542
      XZZZ      56.3034   YZZZ       5.3891   ZZZZ    -125.0632
 -----------------------------------------------------------------
 Calculating analytic gradient of the SCF energy
 Gradient of SCF Energy
            1           2           3           4           5           6
    1  -0.0437843   0.0545323   0.0101823  -0.0022333   0.0321664  -0.0000445
    2  -0.0025682  -0.0830652   0.0638967  -0.0544305   0.0560041   0.0603882
    3   0.0732226  -0.0212458  -0.0508603  -0.0657870   0.1164036  -0.0450072
            7           8           9          10
    1  -0.0452550   0.0085795   0.0295381  -0.0436814
    2  -0.0018086  -0.0434371   0.0161127  -0.0110920
    3   0.0213383  -0.0151700  -0.0763225   0.0634282
 Max gradient component =       1.164E-01
 RMS gradient           =       4.925E-02
 Computing fast CPCM-ISWIG gradient
 Updating gradient with PCM contributions...
 -- total gradient after adding PCM contribution --
---------------------------------------------------
  Atom         X              Y              Z     
---------------------------------------------------
   1       0.000760       0.000090      -0.000148
   2      -0.000416       0.000045       0.000053
   3      -0.000128      -0.000123       0.000075
   4      -0.000067       0.000003      -0.000011
   5      -0.000016       0.000005       0.000001
   6      -0.000049      -0.000071       0.000048
   7       0.000029       0.000027      -0.000008
   8       0.000012       0.000017       0.000015
   9      -0.000121      -0.000023      -0.000045
  10      -0.000005       0.000027       0.000021
---------------------------------------------------
 Number of fixed atoms: 0
 Gradient time:  CPU 166.71 s  wall 12.08 s
 ----------------------------------------------------------------
             Standard Nuclear Orientation (Angstroms)
    I     Atom           X                Y                Z
 ----------------------------------------------------------------
    1      C      -0.8330366220    -0.3437303380     0.5696024402
    2      C       0.4886764597    -0.4484553468    -0.0656461184
    3      H      -1.1461456709    -1.2891712276     1.0313280734
    4      H      -0.8629514931     0.4403113002     1.3352022743
    5      H       0.8039446285    -1.4203741629    -0.4455411571
    6      C       1.3820803213     0.6553081569    -0.2304857721
    7      O       2.5262421621     0.4707314191    -0.8213094693
    8      O       1.0659082161     1.8334220346     0.2094305940
    9      O      -1.9435365580    -0.0021169024    -0.3704699081
   10      H      -1.4817863153     0.1036725303    -1.2115570314
 ----------------------------------------------------------------
 Nuclear Repulsion Energy =   218.2821923962 hartrees
 There are       24 alpha and       24 beta electrons
 Discretize the solute cavity surface with Lebedev spheres
	Using 110 Lebedev grid points for each H atom
	Using 110 Lebedev grid points for other atoms
	Atomic van der Waals radii will be scaled by 1.20
 Remove points where switching function is < 1.0e-08
 Keep 652 surface tesserae and discard 448 interior tesserae
 Molecular Surface Area = 125.882 Angst**2

                       Distance Matrix (Angstroms)
             C (  1)   C (  2)   H (  3)   H (  4)   H (  5)   C (  6)
   C (  2)  1.470181
   H (  3)  1.097764  2.140747
   H (  4)  1.096248  2.139902  1.778665
   H (  5)  2.206669  1.090110  2.449737  3.067856
   C (  6)  2.558312  1.429558  3.430029  2.745500  2.165398
   O (  7)  3.725955  2.359577  4.473919  4.017226  2.585303  1.300864
   O (  8)  2.911307  2.369774  3.913986  2.632227  3.329385  1.296705
   O (  9)  1.494539  2.491545  2.063342  2.067057  3.092853  3.392865
   H ( 10)  1.947710  2.345353  2.661429  2.642398  2.852028  3.077098
             O (  7)   O (  8)   O (  9)
   O (  8)  2.247649
   O (  9)  4.517274  3.572429
   H ( 10)  4.043676  3.391458  0.965315
 
 Requested basis set is def2-TZVPD
 There are 101 shells and 267 basis functions
 A cutoff of  1.0D-14 yielded   4957 shell pairs
 There are     35143 function pairs (     45300 Cartesian)
 Smallest overlap matrix eigenvalue = 6.98E-06
 Guess MOs from SCF MO coefficient file
 Reading MOs from coefficient file
 Reading MOs from coefficient file
 Long-range K will be added via erf
 Coulomb attenuation parameter = 0.3 bohr**(-1)
 A restricted hybrid HF-DFT SCF calculation will be
 performed using Pulay DIIS extrapolation
 Polarizable Continuum solvation model will be applied
 Exchange:     0.1670 Hartree-Fock + 1.0000 wB97X-V + LR-HF
 Correlation:  1.0000 wB97X-V
 Using SG-2 standard quadrature grid
 Nonlocal Correlation:  VV10 with C = 0.0100 and b = 6.00
 Grid used for NLC:  SG-1 standard quadrature
 SCF converges when DIIS error is below 1.0E-08
Using Q-Chem read-in guess as SCF_GUESS READ specified.

 using 16 threads for integral computing
 -------------------------------------------------------
 OpenMP Integral computing Module                
 Release: version 1.0, May 2013, Q-Chem Inc. Pittsburgh 
 -------------------------------------------------------
 using 16 threads for integral computing
 -------------------------------------------------------
 OpenMP Integral computing Module                
 Release: version 1.0, May 2013, Q-Chem Inc. Pittsburgh 
 -------------------------------------------------------
 -------------------------------------------------------
 OpenMP BLAS3 based DFT computing Module                
 Release: version 1.0, May 2013, Q-Chem Inc. Pittsburgh 
 -------------------------------------------------------
 -------------------------------------------------------
 OpenMP BLAS3 based DFT computing Module                
 Release: version 1.0, May 2013, Q-Chem Inc. Pittsburgh 
 -------------------------------------------------------
 -------------------------------------------------------
 OpenMP BLAS3 based DFT computing Module                
 Release: version 1.0, May 2013, Q-Chem Inc. Pittsburgh 
 -------------------------------------------------------
 ---------------------------------------
  Cycle       Energy         DIIS Error
 ---------------------------------------
    1    -342.2916315499      5.91E-04
    2    -342.6387715591      6.91E-04
    3    -342.6459857449      3.00E-04
    4    -342.6471747229      2.14E-04
    5    -342.6478756896      1.60E-04
    6    -342.6483064485      1.17E-04
    7    -342.6485882180      7.78E-05
    8    -342.6487227662      5.04E-05
    9    -342.6487966100      2.49E-05
   10    -342.6488179284      7.77E-06
   11    -342.6488199143      2.57E-06
   12    -342.6488201291      7.62E-07
   13    -342.6488201467      2.16E-07
   14    -342.6488201482      3.79E-08
   15    -342.6488201483      1.19E-08
   16    -342.6488201483      4.20E-09 Convergence criterion met
 ---------------------------------------

************** Final PCM Free Energy Summary **************
 G_electrostatic  =      -0.35836398 hartree =    -224.87679445 kcal/mol
 G_cavitation     =       0.00000000 hartree =       0.00000000 kcal/mol
 G_dispersion     =       0.00000000 hartree =       0.00000000 kcal/mol
 G_repulsion      =       0.00000000 hartree =       0.00000000 kcal/mol
 --------------------------------------------------
 Non-electrostatic Free Energy =       0.00000000 hartree =       0.00000000 kcal/mol
 Total                         =      -0.35836398 hartree =    -224.87679445 kcal/mol
 --------------------------------------------------
 SCF Energy (H0 + V/2)                       =    -342.64882015 
 Solute Internal Energy (H0)                 =    -342.29045616 
 Total Free Energy (H0 + V/2 + non-elec)     =    -342.64882015 hartree
                                             = -215015.37987003 kcal/mol
***********************************************************

 SCF time:  CPU 768.13 s  wall 53.53 s
 SCF   energy in the final basis set = -342.64882015
 Total energy in the final basis set = -342.64882015
 
 --------------------------------------------------------------
 
                    Orbital Energies (a.u.)
 --------------------------------------------------------------
 
 Alpha MOs
 -- Occupied --
-19.175 -19.101 -19.099 -10.299 -10.274 -10.171  -1.101  -1.088
 -0.992  -0.822  -0.710  -0.583  -0.545  -0.521  -0.500  -0.470
 -0.458  -0.451  -0.410  -0.355  -0.314  -0.313  -0.290  -0.226
 -- Virtual --
  0.065   0.083   0.092   0.097   0.117   0.124   0.128   0.139
  0.150   0.164   0.167   0.176   0.194   0.204   0.215   0.224
  0.241   0.251   0.262   0.265   0.289   0.296   0.308   0.318
  0.327   0.335   0.351   0.358   0.360   0.368   0.381   0.388
  0.395   0.404   0.415   0.420   0.426   0.433   0.445   0.452
  0.459   0.469   0.479   0.492   0.506   0.517   0.522   0.529
  0.539   0.555   0.556   0.564   0.581   0.589   0.606   0.617
  0.626   0.629   0.652   0.665   0.671   0.688   0.696   0.705
  0.716   0.730   0.733   0.741   0.746   0.757   0.779   0.786
  0.802   0.820   0.837   0.847   0.850   0.861   0.864   0.882
  0.915   0.927   0.979   0.995   1.004   1.020   1.035   1.045
  1.059   1.083   1.098   1.122   1.149   1.174   1.220   1.243
  1.254   1.291   1.312   1.331   1.353   1.381   1.416   1.437
  1.495   1.537   1.557   1.601   1.674   1.744   1.801   1.818
  1.860   1.867   1.899   1.931   1.933   1.942   1.981   1.998
  2.024   2.033   2.082   2.088   2.110   2.150   2.170   2.218
  2.244   2.255   2.273   2.312   2.360   2.413   2.425   2.445
  2.460   2.468   2.510   2.555   2.640   2.656   2.712   2.739
  2.755   2.783   2.812   2.855   2.885   2.903   2.935   2.961
  2.994   3.047   3.058   3.083   3.116   3.182   3.189   3.243
  3.256   3.295   3.328   3.362   3.390   3.429   3.439   3.466
  3.487   3.502   3.536   3.556   3.559   3.587   3.600   3.610
  3.654   3.657   3.695   3.734   3.798   3.822   3.847   3.885
  3.984   3.989   4.165   4.215   4.285   4.346   4.373   4.461
  4.509   4.673   4.694   4.850   4.883   4.931   4.971   5.042
  5.177   5.355   5.386   5.404   5.426   5.433   5.485   5.541
  5.610   5.714   5.749   5.787   5.826   5.833   5.996   6.086
  6.154   6.266   6.402   6.429   6.537   6.657   6.711   6.744
  6.759   6.785   6.880   6.931   6.984   7.001   7.035   7.189
  7.310   7.358   7.374   7.396   7.444  22.642  22.919  23.568
 44.169  44.325  44.373
 --------------------------------------------------------------
 
          Ground-State Mulliken Net Atomic Charges

     Atom                 Charge (a.u.)
  ----------------------------------------
      1 C                    -0.318978
      2 C                    -0.541108
      3 H                     0.149398
      4 H                     0.110200
      5 H                     0.297369
      6 C                     0.225562
      7 O                    -0.823306
      8 O                    -0.796062
      9 O                    -0.671374
     10 H                     0.368299
  ----------------------------------------
  Sum of atomic charges =    -2.000000

 -----------------------------------------------------------------
                    Cartesian Multipole Moments
 -----------------------------------------------------------------
    Charge (ESU x 10^10)
                -9.6064
    Dipole Moment (Debye)
         X     -10.3336      Y      -7.4015      Z       2.1686
       Tot      12.8945
    Quadrupole Moments (Debye-Ang)
        XX     -82.6429     XY     -10.9334     YY     -58.1762
        XZ       6.9838     YZ      -0.6339     ZZ     -44.2199
    Octopole Moments (Debye-Ang^2)
       XXX    -108.0810    XXY     -34.2739    XYY     -38.1559
       YYY     -72.0211    XXZ      29.1418    XYZ       3.6947
       YYZ       2.3849    XZZ     -30.6102    YZZ     -13.6258
       ZZZ      14.3027
    Hexadecapole Moments (Debye-Ang^3)
      XXXX    -907.3171   XXXY    -129.5283   XXYY    -183.3771
      XYYY    -119.0250   YYYY    -316.7466   XXXZ      97.9729
      XXYZ      10.3994   XYYZ      11.8404   YYYZ       0.9331
      XXZZ    -147.0297   XYZZ     -32.6477   YYZZ     -66.6608
      XZZZ      56.3492   YZZZ       5.3849   ZZZZ    -125.0779
 -----------------------------------------------------------------
 Calculating analytic gradient of the SCF energy
 Gradient of SCF Energy
            1           2           3           4           5           6
    1  -0.0440484   0.0550101   0.0101144  -0.0024455   0.0323715  -0.0002694
    2  -0.0029491  -0.0831552   0.0642379  -0.0544219   0.0560135   0.0605863
    3   0.0739477  -0.0217941  -0.0511492  -0.0659654   0.1168766  -0.0453045
            7           8           9          10
    1  -0.0452770   0.0085958   0.0297309  -0.0437825
    2  -0.0018032  -0.0434665   0.0160481  -0.0110899
    3   0.0213541  -0.0151602  -0.0762245   0.0634195
 Max gradient component =       1.169E-01
 RMS gradient           =       4.942E-02
 Computing fast CPCM-ISWIG gradient
 Updating gradient with PCM contributions...
 -- total gradient after adding PCM contribution --
---------------------------------------------------
  Atom         X              Y              Z     
---------------------------------------------------
   1      -0.000668      -0.000125       0.000314
   2       0.000292      -0.000032      -0.000222
   3       0.000113       0.000126      -0.000065
   4       0.000089       0.000000      -0.000066
   5       0.000003       0.000021      -0.000005
   6       0.000093       0.000044       0.000008
   7      -0.000029       0.000025       0.000012
   8       0.000018      -0.000052      -0.000001
   9       0.000123      -0.000046       0.000031
  10      -0.000036       0.000038      -0.000005
---------------------------------------------------
 Number of fixed atoms: 0
 Gradient time:  CPU 166.54 s  wall 12.04 s
 ----------------------------------------------------------------
             Standard Nuclear Orientation (Angstroms)
    I     Atom           X                Y                Z
 ----------------------------------------------------------------
    1      C      -0.8320366220    -0.3427303380     0.5696024402
    2      C       0.4886764597    -0.4484553468    -0.0656461184
    3      H      -1.1461456709    -1.2891712276     1.0313280734
    4      H      -0.8629514931     0.4403113002     1.3352022743
    5      H       0.8039446285    -1.4203741629    -0.4455411571
    6      C       1.3820803213     0.6553081569    -0.2304857721
    7      O       2.5262421621     0.4707314191    -0.8213094693
    8      O       1.0659082161     1.8334220346     0.2094305940
    9      O      -1.9435365580    -0.0021169024    -0.3704699081
   10      H      -1.4817863153     0.1036725303    -1.2115570314
 ----------------------------------------------------------------
 Nuclear Repulsion Energy =   218.2924166119 hartrees
 There are       24 alpha and       24 beta electrons
 Discretize the solute cavity surface with Lebedev spheres
	Using 110 Lebedev grid points for each H atom
	Using 110 Lebedev grid points for other atoms
	Atomic van der Waals radii will be scaled by 1.20
 Remove points where switching function is < 1.0e-08
 Keep 652 surface tesserae and discard 448 interior tesserae
 Molecular Surface Area = 125.887 Angst**2

                       Distance Matrix (Angstroms)
             C (  1)   C (  2)   H (  3)   H (  4)   H (  5)   C (  6)
   C (  2)  1.469354
   H (  3)  1.098911  2.140747
   H (  4)  1.095561  2.139902  1.778665
   H (  5)  2.206415  1.090110  2.449737  3.067856
   C (  6)  2.557056  1.429558  3.430029  2.745500  2.165398
   O (  7)  3.724835  2.359577  4.473919  4.017226  2.585303  1.300864
   O (  8)  2.909907  2.369774  3.913986  2.632227  3.329385  1.296705
   O (  9)  1.495054  2.491545  2.063342  2.067057  3.092853  3.392865
   H ( 10)  1.947814  2.345353  2.661429  2.642398  2.852028  3.077098
             O (  7)   O (  8)   O (  9)
   O (  8)  2.247649
   O (  9)  4.517274  3.572429
   H ( 10)  4.043676  3.391458  0.965315
 
 Requested basis set is def2-TZVPD
 There are 101 shells and 267 basis functions
 A cutoff of  1.0D-14 yielded   4957 shell pairs
 There are     35143 function pairs (     45300 Cartesian)
 Smallest overlap matrix eigenvalue = 6.98E-06
 Guess MOs from SCF MO coefficient file
 Reading MOs from coefficient file
 Reading MOs from coefficient file
 Long-range K will be added via erf
 Coulomb attenuation parameter = 0.3 bohr**(-1)
 A restricted hybrid HF-DFT SCF calculation will be
 performed using Pulay DIIS extrapolation
 Polarizable Continuum solvation model will be applied
 Exchange:     0.1670 Hartree-Fock + 1.0000 wB97X-V + LR-HF
 Correlation:  1.0000 wB97X-V
 Using SG-2 standard quadrature grid
 Nonlocal Correlation:  VV10 with C = 0.0100 and b = 6.00
 Grid used for NLC:  SG-1 standard quadrature
 SCF converges when DIIS error is below 1.0E-08
Using Q-Chem read-in guess as SCF_GUESS READ specified.

 using 16 threads for integral computing
 -------------------------------------------------------
 OpenMP Integral computing Module                
 Release: version 1.0, May 2013, Q-Chem Inc. Pittsburgh 
 -------------------------------------------------------
 using 16 threads for integral computing
 -------------------------------------------------------
 OpenMP Integral computing Module                
 Release: version 1.0, May 2013, Q-Chem Inc. Pittsburgh 
 -------------------------------------------------------
 -------------------------------------------------------
 OpenMP BLAS3 based DFT computing Module                
 Release: version 1.0, May 2013, Q-Chem Inc. Pittsburgh 
 -------------------------------------------------------
 -------------------------------------------------------
 OpenMP BLAS3 based DFT computing Module                
 Release: version 1.0, May 2013, Q-Chem Inc. Pittsburgh 
 -------------------------------------------------------
 -------------------------------------------------------
 OpenMP BLAS3 based DFT computing Module                
 Release: version 1.0, May 2013, Q-Chem Inc. Pittsburgh 
 -------------------------------------------------------
 ---------------------------------------
  Cycle       Energy         DIIS Error
 ---------------------------------------
    1    -342.2899299371      5.93E-04
    2    -342.6387408465      6.93E-04
    3    -342.6459903057      3.00E-04
    4    -342.6471812359      2.14E-04
    5    -342.6478805895      1.60E-04
    6    -342.6483008892      1.18E-04
    7    -342.6485626118      8.23E-05
    8    -342.6486817667      6.03E-05
    9    -342.6487694479      3.65E-05
   10    -342.6488105979      1.57E-05
   11    -342.6488184821      5.89E-06
   12    -342.6488196071      1.91E-06
   13    -342.6488197226      6.00E-07
   14    -342.6488197348      1.12E-07
   15    -342.6488197352      2.22E-08
   16    -342.6488197353      5.59E-09 Convergence criterion met
 ---------------------------------------

************** Final PCM Free Energy Summary **************
 G_electrostatic  =      -0.35832376 hartree =    -224.85155574 kcal/mol
 G_cavitation     =       0.00000000 hartree =       0.00000000 kcal/mol
 G_dispersion     =       0.00000000 hartree =       0.00000000 kcal/mol
 G_repulsion      =       0.00000000 hartree =       0.00000000 kcal/mol
 --------------------------------------------------
 Non-electrostatic Free Energy =       0.00000000 hartree =       0.00000000 kcal/mol
 Total                         =      -0.35832376 hartree =    -224.85155574 kcal/mol
 --------------------------------------------------
 SCF Energy (H0 + V/2)                       =    -342.64881974 
 Solute Internal Energy (H0)                 =    -342.29049597 
 Total Free Energy (H0 + V/2 + non-elec)     =    -342.64881974 hartree
                                             = -215015.37961085 kcal/mol
***********************************************************

 SCF time:  CPU 768.95 s  wall 53.55 s
 SCF   energy in the final basis set = -342.64881974
 Total energy in the final basis set = -342.64881974
 
 --------------------------------------------------------------
 
                    Orbital Energies (a.u.)
 --------------------------------------------------------------
 
 Alpha MOs
 -- Occupied --
-19.175 -19.101 -19.099 -10.299 -10.274 -10.171  -1.101  -1.088
 -0.992  -0.822  -0.710  -0.583  -0.546  -0.521  -0.500  -0.470
 -0.458  -0.451  -0.410  -0.355  -0.314  -0.313  -0.290  -0.226
 -- Virtual --
  0.065   0.083   0.092   0.097   0.117   0.124   0.128   0.139
  0.150   0.164   0.167   0.176   0.194   0.204   0.215   0.224
  0.241   0.251   0.262   0.265   0.289   0.296   0.308   0.318
  0.327   0.335   0.351   0.358   0.360   0.368   0.381   0.388
  0.395   0.404   0.415   0.420   0.426   0.433   0.446   0.452
  0.459   0.469   0.479   0.492   0.506   0.517   0.522   0.529
  0.539   0.555   0.556   0.564   0.581   0.589   0.606   0.617
  0.626   0.629   0.652   0.665   0.671   0.688   0.696   0.705
  0.716   0.730   0.733   0.741   0.746   0.757   0.779   0.786
  0.802   0.820   0.837   0.847   0.850   0.861   0.864   0.882
  0.916   0.927   0.979   0.995   1.004   1.020   1.035   1.045
  1.059   1.083   1.098   1.122   1.149   1.174   1.220   1.243
  1.254   1.291   1.313   1.331   1.353   1.381   1.416   1.437
  1.495   1.537   1.557   1.601   1.674   1.744   1.801   1.818
  1.860   1.867   1.899   1.931   1.933   1.942   1.981   1.998
  2.024   2.033   2.082   2.088   2.110   2.150   2.171   2.217
  2.244   2.255   2.273   2.312   2.360   2.413   2.425   2.445
  2.460   2.468   2.510   2.556   2.640   2.656   2.712   2.739
  2.755   2.783   2.812   2.855   2.885   2.903   2.935   2.961
  2.994   3.047   3.058   3.083   3.116   3.183   3.189   3.243
  3.256   3.295   3.328   3.361   3.390   3.428   3.439   3.466
  3.487   3.502   3.537   3.557   3.559   3.586   3.600   3.610
  3.654   3.657   3.695   3.735   3.798   3.822   3.847   3.886
  3.985   3.989   4.166   4.216   4.285   4.346   4.372   4.461
  4.509   4.674   4.694   4.850   4.883   4.931   4.971   5.042
  5.177   5.355   5.386   5.404   5.426   5.433   5.485   5.541
  5.610   5.714   5.749   5.787   5.825   5.832   5.996   6.085
  6.154   6.266   6.402   6.429   6.537   6.657   6.711   6.744
  6.759   6.785   6.880   6.931   6.984   7.001   7.035   7.188
  7.310   7.358   7.374   7.396   7.444  22.642  22.919  23.568
 44.169  44.325  44.373
 --------------------------------------------------------------
 
          Ground-State Mulliken Net Atomic Charges

     Atom                 Charge (a.u.)
  ----------------------------------------
      1 C                    -0.319740
      2 C                    -0.540157
      3 H                     0.148444
      4 H                     0.111208
      5 H                     0.297388
      6 C                     0.225625
      7 O                    -0.823285
      8 O                    -0.796046
      9 O                    -0.671559
     10 H                     0.368122
  ----------------------------------------
  Sum of atomic charges =    -2.000000

 -----------------------------------------------------------------
                    Cartesian Multipole Moments
 -----------------------------------------------------------------
    Charge (ESU x 10^10)
                -9.6064
    Dipole Moment (Debye)
         X     -10.3262      Y      -7.3992      Z       2.1693
       Tot      12.8874
    Quadrupole Moments (Debye-Ang)
        XX     -82.6492     XY     -10.9382     YY     -58.1771
        XZ       6.9818     YZ      -0.6288     ZZ     -44.2173
    Octopole Moments (Debye-Ang^2)
       XXX    -108.0592    XXY     -34.2752    XYY     -38.1455
       YYY     -72.0271    XXZ      29.1455    XYZ       3.6883
       YYZ       2.3809    XZZ     -30.6078    YZZ     -13.6254
       ZZZ      14.3072
    Hexadecapole Moments (Debye-Ang^3)
      XXXX    -907.3103   XXXY    -129.5175   XXYY    -183.3742
      XYYY    -119.0204   YYYY    -316.7244   XXXZ      97.9551
      XXYZ      10.4080   XYYZ      11.8407   YYYZ       0.9405
      XXZZ    -147.0230   XYZZ     -32.6499   YYZZ     -66.6609
      XZZZ      56.3314   YZZZ       5.3952   ZZZZ    -125.0617
 -----------------------------------------------------------------
 Calculating analytic gradient of the SCF energy
 Gradient of SCF Energy
            1           2           3           4           5           6
    1  -0.0438261   0.0548980   0.0099792  -0.0023544   0.0322788  -0.0002098
    2  -0.0019753  -0.0832080   0.0636669  -0.0547073   0.0560413   0.0604701
    3   0.0736533  -0.0215299  -0.0507663  -0.0662492   0.1166591  -0.0451352
            7           8           9          10
    1  -0.0452661   0.0085906   0.0296451  -0.0437354
    2  -0.0018086  -0.0434449   0.0160364  -0.0110706
    3   0.0213494  -0.0151583  -0.0762539   0.0634310
 Max gradient component =       1.167E-01
 RMS gradient           =       4.935E-02
 Computing fast CPCM-ISWIG gradient
 Updating gradient with PCM contributions...
 -- total gradient after adding PCM contribution --
---------------------------------------------------
  Atom         X              Y              Z     
---------------------------------------------------
   1       0.000153       0.001076       0.000156
   2      -0.000062      -0.000182      -0.000105
   3      -0.000136      -0.000449       0.000151
   4       0.000021      -0.000353      -0.000272
   5       0.000038       0.000013      -0.000023
   6      -0.000000       0.000013       0.000050
   7      -0.000019       0.000021       0.000006
   8       0.000014      -0.000024       0.000006
   9       0.000002      -0.000141       0.000015
  10      -0.000011       0.000026       0.000017
---------------------------------------------------
 Number of fixed atoms: 0
 Gradient time:  CPU 166.49 s  wall 12.06 s
 ----------------------------------------------------------------
             Standard Nuclear Orientation (Angstroms)
    I     Atom           X                Y                Z
 ----------------------------------------------------------------
    1      C      -0.8320366220    -0.3447303380     0.5696024402
    2      C       0.4886764597    -0.4484553468    -0.0656461184
    3      H      -1.1461456709    -1.2891712276     1.0313280734
    4      H      -0.8629514931     0.4403113002     1.3352022743
    5      H       0.8039446285    -1.4203741629    -0.4455411571
    6      C       1.3820803213     0.6553081569    -0.2304857721
    7      O       2.5262421621     0.4707314191    -0.8213094693
    8      O       1.0659082161     1.8334220346     0.2094305940
    9      O      -1.9435365580    -0.0021169024    -0.3704699081
   10      H      -1.4817863153     0.1036725303    -1.2115570314
 ----------------------------------------------------------------
 Nuclear Repulsion Energy =   218.2819308362 hartrees
 There are       24 alpha and       24 beta electrons
 Discretize the solute cavity surface with Lebedev spheres
	Using 110 Lebedev grid points for each H atom
	Using 110 Lebedev grid points for other atoms
	Atomic van der Waals radii will be scaled by 1.20
 Remove points where switching function is < 1.0e-08
 Keep 652 surface tesserae and discard 448 interior tesserae
 Molecular Surface Area = 125.884 Angst**2

                       Distance Matrix (Angstroms)
             C (  1)   C (  2)   H (  3)   H (  4)   H (  5)   C (  6)
   C (  2)  1.469212
   H (  3)  1.097189  2.140747
   H (  4)  1.096991  2.139902  1.778665
   H (  5)  2.205439  1.090110  2.449737  3.067856
   C (  6)  2.557837  1.429558  3.430029  2.745500  2.165398
   O (  7)  3.725272  2.359577  4.473919  4.017226  2.585303  1.300864
   O (  8)  2.911403  2.369774  3.913986  2.632227  3.329385  1.296705
   O (  9)  1.495511  2.491545  2.063342  2.067057  3.092853  3.392865
   H ( 10)  1.948273  2.345353  2.661429  2.642398  2.852028  3.077098
             O (  7)   O (  8)   O (  9)
   O (  8)  2.247649
   O (  9)  4.517274  3.572429
   H ( 10)  4.043676  3.391458  0.965315
 
 Requested basis set is def2-TZVPD
 There are 101 shells and 267 basis functions
 A cutoff of  1.0D-14 yielded   4957 shell pairs
 There are     35143 function pairs (     45300 Cartesian)
 Smallest overlap matrix eigenvalue = 6.98E-06
 Guess MOs from SCF MO coefficient file
 Reading MOs from coefficient file
 Reading MOs from coefficient file
 Long-range K will be added via erf
 Coulomb attenuation parameter = 0.3 bohr**(-1)
 A restricted hybrid HF-DFT SCF calculation will be
 performed using Pulay DIIS extrapolation
 Polarizable Continuum solvation model will be applied
 Exchange:     0.1670 Hartree-Fock + 1.0000 wB97X-V + LR-HF
 Correlation:  1.0000 wB97X-V
 Using SG-2 standard quadrature grid
 Nonlocal Correlation:  VV10 with C = 0.0100 and b = 6.00
 Grid used for NLC:  SG-1 standard quadrature
 SCF converges when DIIS error is below 1.0E-08
Using Q-Chem read-in guess as SCF_GUESS READ specified.

 using 16 threads for integral computing
 -------------------------------------------------------
 OpenMP Integral computing Module                
 Release: version 1.0, May 2013, Q-Chem Inc. Pittsburgh 
 -------------------------------------------------------
 using 16 threads for integral computing
 -------------------------------------------------------
 OpenMP Integral computing Module                
 Release: version 1.0, May 2013, Q-Chem Inc. Pittsburgh 
 -------------------------------------------------------
 -------------------------------------------------------
 OpenMP BLAS3 based DFT computing Module                
 Release: version 1.0, May 2013, Q-Chem Inc. Pittsburgh 
 -------------------------------------------------------
 -------------------------------------------------------
 OpenMP BLAS3 based DFT computing Module                
 Release: version 1.0, May 2013, Q-Chem Inc. Pittsburgh 
 -------------------------------------------------------
 -------------------------------------------------------
 OpenMP BLAS3 based DFT computing Module                
 Release: version 1.0, May 2013, Q-Chem Inc. Pittsburgh 
 -------------------------------------------------------
 ---------------------------------------
  Cycle       Energy         DIIS Error
 ---------------------------------------
    1    -342.2904549383      5.91E-04
    2    -342.6387985567      6.90E-04
    3    -342.6459999118      2.99E-04
    4    -342.6471844285      2.13E-04
    5    -342.6478792303      1.60E-04
    6    -342.6483079790      1.17E-04
    7    -342.6485862512      7.81E-05
    8    -342.6487114005      5.32E-05
    9    -342.6487896862      2.81E-05
   10    -342.6488161763      9.71E-06
   11    -342.6488193156      3.14E-06
   12    -342.6488196382      9.34E-07
   13    -342.6488196658      2.28E-07
   14    -342.6488196675      3.36E-08
   15    -342.6488196675      1.14E-08
   16    -342.6488196675      4.61E-09 Convergence criterion met
 ---------------------------------------

************** Final PCM Free Energy Summary **************
 G_electrostatic  =      -0.35833381 hartree =    -224.85785776 kcal/mol
 G_cavitation     =       0.00000000 hartree =       0.00000000 kcal/mol
 G_dispersion     =       0.00000000 hartree =       0.00000000 kcal/mol
 G_repulsion      =       0.00000000 hartree =       0.00000000 kcal/mol
 --------------------------------------------------
 Non-electrostatic Free Energy =       0.00000000 hartree =       0.00000000 kcal/mol
 Total                         =      -0.35833381 hartree =    -224.85785776 kcal/mol
 --------------------------------------------------
 SCF Energy (H0 + V/2)                       =    -342.64881967 
 Solute Internal Energy (H0)                 =    -342.29048586 
 Total Free Energy (H0 + V/2 + non-elec)     =    -342.64881967 hartree
                                             = -215015.37956836 kcal/mol
***********************************************************

 SCF time:  CPU 768.84 s  wall 53.65 s
 SCF   energy in the final basis set = -342.64881967
 Total energy in the final basis set = -342.64881967
 
 --------------------------------------------------------------
 
                    Orbital Energies (a.u.)
 --------------------------------------------------------------
 
 Alpha MOs
 -- Occupied --
-19.175 -19.101 -19.099 -10.299 -10.274 -10.171  -1.101  -1.088
 -0.992  -0.822  -0.710  -0.583  -0.545  -0.521  -0.500  -0.470
 -0.458  -0.451  -0.410  -0.355  -0.314  -0.313  -0.290  -0.226
 -- Virtual --
  0.065   0.083   0.092   0.097   0.117   0.124   0.128   0.139
  0.150   0.164   0.167   0.176   0.194   0.204   0.215   0.224
  0.241   0.251   0.262   0.265   0.289   0.296   0.308   0.318
  0.327   0.335   0.351   0.358   0.360   0.368   0.381   0.388
  0.395   0.404   0.415   0.420   0.426   0.433   0.446   0.452
  0.459   0.469   0.479   0.492   0.506   0.517   0.522   0.529
  0.539   0.555   0.556   0.564   0.581   0.589   0.606   0.617
  0.626   0.629   0.652   0.665   0.671   0.688   0.696   0.705
  0.716   0.730   0.733   0.741   0.746   0.757   0.779   0.786
  0.802   0.820   0.837   0.847   0.850   0.861   0.864   0.882
  0.915   0.927   0.979   0.995   1.004   1.020   1.035   1.045
  1.059   1.083   1.098   1.122   1.149   1.174   1.220   1.243
  1.254   1.291   1.312   1.331   1.353   1.381   1.416   1.437
  1.495   1.537   1.557   1.601   1.674   1.744   1.801   1.817
  1.859   1.867   1.899   1.931   1.933   1.942   1.981   1.998
  2.024   2.033   2.082   2.088   2.110   2.150   2.170   2.217
  2.244   2.255   2.273   2.312   2.360   2.413   2.425   2.444
  2.460   2.468   2.510   2.555   2.640   2.656   2.712   2.739
  2.755   2.783   2.813   2.856   2.885   2.903   2.935   2.961
  2.994   3.047   3.058   3.083   3.116   3.182   3.190   3.243
  3.256   3.295   3.328   3.361   3.390   3.429   3.439   3.466
  3.487   3.502   3.536   3.556   3.559   3.587   3.600   3.610
  3.654   3.657   3.695   3.735   3.798   3.822   3.848   3.885
  3.985   3.989   4.165   4.216   4.285   4.346   4.373   4.462
  4.509   4.674   4.693   4.850   4.884   4.931   4.971   5.043
  5.177   5.355   5.386   5.404   5.426   5.433   5.485   5.541
  5.610   5.714   5.749   5.787   5.825   5.832   5.996   6.085
  6.153   6.266   6.402   6.429   6.537   6.657   6.711   6.744
  6.759   6.785   6.880   6.931   6.984   7.001   7.035   7.188
  7.310   7.358   7.374   7.396   7.444  22.642  22.920  23.568
 44.169  44.325  44.373
 --------------------------------------------------------------
 
          Ground-State Mulliken Net Atomic Charges

     Atom                 Charge (a.u.)
  ----------------------------------------
      1 C                    -0.319574
      2 C                    -0.540341
      3 H                     0.150123
      4 H                     0.109817
      5 H                     0.297262
      6 C                     0.225813
      7 O                    -0.823214
      8 O                    -0.795965
      9 O                    -0.671838
     10 H                     0.367916
  ----------------------------------------
  Sum of atomic charges =    -2.000000

 -----------------------------------------------------------------
                    Cartesian Multipole Moments
 -----------------------------------------------------------------
    Charge (ESU x 10^10)
                -9.6064
    Dipole Moment (Debye)
         X     -10.3233      Y      -7.4034      Z       2.1704
       Tot      12.8876
    Quadrupole Moments (Debye-Ang)
        XX     -82.6492     XY     -10.9281     YY     -58.1704
        XZ       6.9778     YZ      -0.6384     ZZ     -44.2186
    Octopole Moments (Debye-Ang^2)
       XXX    -108.0284    XXY     -34.2678    XYY     -38.1512
       YYY     -72.0051    XXZ      29.1518    XYZ       3.6979
       YYZ       2.3895    XZZ     -30.6028    YZZ     -13.6263
       ZZZ      14.3039
    Hexadecapole Moments (Debye-Ang^3)
      XXXX    -907.3070   XXXY    -129.5138   XXYY    -183.3626
      XYYY    -119.0105   YYYY    -316.7252   XXXZ      97.9203
      XXYZ      10.3880   XYYZ      11.8299   YYYZ       0.9295
      XXZZ    -147.0222   XYZZ     -32.6415   YYZZ     -66.6541
      XZZZ      56.3212   YZZZ       5.3788   ZZZZ    -125.0794
 -----------------------------------------------------------------
 Calculating analytic gradient of the SCF energy
 Gradient of SCF Energy
            1           2           3           4           5           6
    1  -0.0440084   0.0546458   0.0103186  -0.0023246   0.0322596  -0.0001046
    2  -0.0035431  -0.0830120   0.0644691  -0.0541462   0.0559760   0.0605047
    3   0.0735220  -0.0215102  -0.0512446  -0.0655048   0.1166215  -0.0451776
            7           8           9          10
    1  -0.0452659   0.0085847   0.0296231  -0.0437284
    2  -0.0018032  -0.0434588   0.0161248  -0.0111113
    3   0.0213429  -0.0151718  -0.0762940   0.0634167
 Max gradient component =       1.166E-01
 RMS gradient           =       4.933E-02
 Computing fast CPCM-ISWIG gradient
 Updating gradient with PCM contributions...
 -- total gradient after adding PCM contribution --
---------------------------------------------------
  Atom         X              Y              Z     
---------------------------------------------------
   1      -0.000062      -0.001113       0.000016
   2      -0.000060       0.000196      -0.000065
   3       0.000122       0.000454      -0.000143
   4       0.000001       0.000355       0.000194
   5      -0.000051       0.000013       0.000018
   6       0.000045      -0.000039       0.000006
   7       0.000019       0.000032      -0.000002
   8       0.000017      -0.000010       0.000007
   9      -0.000001       0.000073      -0.000030
  10      -0.000030       0.000039      -0.000001
---------------------------------------------------
 Number of fixed atoms: 0
 Gradient time:  CPU 166.79 s  wall 12.02 s
 ----------------------------------------------------------------
             Standard Nuclear Orientation (Angstroms)
    I     Atom           X                Y                Z
 ----------------------------------------------------------------
    1      C      -0.8320366220    -0.3437303380     0.5706024402
    2      C       0.4886764597    -0.4484553468    -0.0656461184
    3      H      -1.1461456709    -1.2891712276     1.0313280734
    4      H      -0.8629514931     0.4403113002     1.3352022743
    5      H       0.8039446285    -1.4203741629    -0.4455411571
    6      C       1.3820803213     0.6553081569    -0.2304857721
    7      O       2.5262421621     0.4707314191    -0.8213094693
    8      O       1.0659082161     1.8334220346     0.2094305940
    9      O      -1.9435365580    -0.0021169024    -0.3704699081
   10      H      -1.4817863153     0.1036725303    -1.2115570314
 ----------------------------------------------------------------
 Nuclear Repulsion Energy =   218.2761405320 hartrees
 There are       24 alpha and       24 beta electrons
 Discretize the solute cavity surface with Lebedev spheres
	Using 110 Lebedev grid points for each H atom
	Using 110 Lebedev grid points for other atoms
	Atomic van der Waals radii will be scaled by 1.20
 Remove points where switching function is < 1.0e-08
 Keep 652 surface tesserae and discard 448 interior tesserae
 Molecular Surface Area = 125.897 Angst**2

                       Distance Matrix (Angstroms)
             C (  1)   C (  2)   H (  3)   H (  4)   H (  5)   C (  6)
   C (  2)  1.469715
   H (  3)  1.097630  2.140747
   H (  4)  1.095577  2.139902  1.778665
   H (  5)  2.206387  1.090110  2.449737  3.067856
   C (  6)  2.557760  1.429558  3.430029  2.745500  2.165398
   O (  7)  3.725427  2.359577  4.473919  4.017226  2.585303  1.300864
   O (  8)  2.910779  2.369774  3.913986  2.632227  3.329385  1.296705
   O (  9)  1.495911  2.491545  2.063342  2.067057  3.092853  3.392865
   H ( 10)  1.948958  2.345353  2.661429  2.642398  2.852028  3.077098
             O (  7)   O (  8)   O (  9)
   O (  8)  2.247649
   O (  9)  4.517274  3.572429
   H ( 10)  4.043676  3.391458  0.965315
 
 Requested basis set is def2-TZVPD
 There are 101 shells and 267 basis functions
 A cutoff of  1.0D-14 yielded   4957 shell pairs
 There are     35143 function pairs (     45300 Cartesian)
 Smallest overlap matrix eigenvalue = 6.98E-06
 Guess MOs from SCF MO coefficient file
 Reading MOs from coefficient file
 Reading MOs from coefficient file
 Long-range K will be added via erf
 Coulomb attenuation parameter = 0.3 bohr**(-1)
 A restricted hybrid HF-DFT SCF calculation will be
 performed using Pulay DIIS extrapolation
 Polarizable Continuum solvation model will be applied
 Exchange:     0.1670 Hartree-Fock + 1.0000 wB97X-V + LR-HF
 Correlation:  1.0000 wB97X-V
 Using SG-2 standard quadrature grid
 Nonlocal Correlation:  VV10 with C = 0.0100 and b = 6.00
 Grid used for NLC:  SG-1 standard quadrature
 SCF converges when DIIS error is below 1.0E-08
Using Q-Chem read-in guess as SCF_GUESS READ specified.

 using 16 threads for integral computing
 -------------------------------------------------------
 OpenMP Integral computing Module                
 Release: version 1.0, May 2013, Q-Chem Inc. Pittsburgh 
 -------------------------------------------------------
 using 16 threads for integral computing
 -------------------------------------------------------
 OpenMP Integral computing Module                
 Release: version 1.0, May 2013, Q-Chem Inc. Pittsburgh 
 -------------------------------------------------------
 -------------------------------------------------------
 OpenMP BLAS3 based DFT computing Module                
 Release: version 1.0, May 2013, Q-Chem Inc. Pittsburgh 
 -------------------------------------------------------
 -------------------------------------------------------
 OpenMP BLAS3 based DFT computing Module                
 Release: version 1.0, May 2013, Q-Chem Inc. Pittsburgh 
 -------------------------------------------------------
 -------------------------------------------------------
 OpenMP BLAS3 based DFT computing Module                
 Release: version 1.0, May 2013, Q-Chem Inc. Pittsburgh 
 -------------------------------------------------------
 ---------------------------------------
  Cycle       Energy         DIIS Error
 ---------------------------------------
    1    -342.2905465348      5.92E-04
    2    -342.6387544542      6.92E-04
    3    -342.6459879211      3.00E-04
    4    -342.6471774396      2.14E-04
    5    -342.6478745552      1.60E-04
    6    -342.6482952057      1.18E-04
    7    -342.6485565456      8.32E-05
    8    -342.6486779477      6.11E-05
    9    -342.6487662416      3.76E-05
   10    -342.6488091987      1.68E-05
   11    -342.6488180175      6.78E-06
   12    -342.6488195049      2.28E-06
   13    -342.6488196712      7.00E-07
   14    -342.6488196880      1.26E-07
   15    -342.6488196885      2.10E-08
   16    -342.6488196885      7.38E-09 Convergence criterion met
 ---------------------------------------

************** Final PCM Free Energy Summary **************
 G_electrostatic  =      -0.35833402 hartree =    -224.85799176 kcal/mol
 G_cavitation     =       0.00000000 hartree =       0.00000000 kcal/mol
 G_dispersion     =       0.00000000 hartree =       0.00000000 kcal/mol
 G_repulsion      =       0.00000000 hartree =       0.00000000 kcal/mol
 --------------------------------------------------
 Non-electrostatic Free Energy =       0.00000000 hartree =       0.00000000 kcal/mol
 Total                         =      -0.35833402 hartree =    -224.85799176 kcal/mol
 --------------------------------------------------
 SCF Energy (H0 + V/2)                       =    -342.64881969 
 Solute Internal Energy (H0)                 =    -342.29048567 
 Total Free Energy (H0 + V/2 + non-elec)     =    -342.64881969 hartree
                                             = -215015.37958153 kcal/mol
***********************************************************

 SCF time:  CPU 772.43 s  wall 53.92 s
 SCF   energy in the final basis set = -342.64881969
 Total energy in the final basis set = -342.64881969
 
 --------------------------------------------------------------
 
                    Orbital Energies (a.u.)
 --------------------------------------------------------------
 
 Alpha MOs
 -- Occupied --
-19.175 -19.101 -19.099 -10.299 -10.274 -10.171  -1.100  -1.088
 -0.992  -0.822  -0.710  -0.583  -0.545  -0.521  -0.500  -0.470
 -0.458  -0.451  -0.410  -0.355  -0.314  -0.313  -0.290  -0.226
 -- Virtual --
  0.065   0.083   0.092   0.097   0.117   0.124   0.128   0.139
  0.150   0.164   0.167   0.176   0.194   0.204   0.215   0.224
  0.241   0.251   0.262   0.265   0.289   0.296   0.308   0.318
  0.327   0.335   0.351   0.358   0.360   0.368   0.381   0.388
  0.395   0.404   0.415   0.420   0.426   0.433   0.446   0.452
  0.459   0.469   0.479   0.492   0.506   0.517   0.522   0.529
  0.539   0.555   0.556   0.564   0.581   0.589   0.606   0.617
  0.626   0.629   0.652   0.665   0.671   0.688   0.696   0.705
  0.716   0.730   0.733   0.741   0.746   0.757   0.779   0.786
  0.802   0.820   0.837   0.847   0.850   0.861   0.864   0.882
  0.915   0.927   0.979   0.995   1.003   1.020   1.035   1.045
  1.059   1.083   1.098   1.122   1.149   1.174   1.220   1.243
  1.254   1.291   1.312   1.331   1.353   1.381   1.416   1.437
  1.495   1.537   1.557   1.601   1.674   1.744   1.801   1.817
  1.860   1.867   1.898   1.931   1.933   1.942   1.981   1.998
  2.024   2.033   2.082   2.088   2.110   2.150   2.170   2.217
  2.244   2.255   2.273   2.312   2.360   2.413   2.425   2.445
  2.460   2.468   2.510   2.556   2.640   2.656   2.712   2.739
  2.755   2.782   2.812   2.855   2.885   2.903   2.935   2.961
  2.994   3.047   3.058   3.083   3.116   3.182   3.190   3.243
  3.256   3.295   3.328   3.361   3.390   3.429   3.439   3.466
  3.487   3.502   3.536   3.557   3.559   3.587   3.600   3.610
  3.654   3.657   3.695   3.735   3.798   3.822   3.848   3.885
  3.985   3.989   4.166   4.215   4.285   4.346   4.372   4.461
  4.509   4.674   4.694   4.850   4.884   4.931   4.971   5.042
  5.177   5.355   5.386   5.404   5.426   5.432   5.485   5.541
  5.610   5.714   5.749   5.787   5.824   5.832   5.996   6.084
  6.153   6.266   6.402   6.429   6.537   6.657   6.711   6.744
  6.759   6.785   6.880   6.931   6.984   7.001   7.034   7.188
  7.310   7.358   7.374   7.396   7.444  22.642  22.919  23.568
 44.169  44.325  44.373
 --------------------------------------------------------------
 
          Ground-State Mulliken Net Atomic Charges

     Atom                 Charge (a.u.)
  ----------------------------------------
      1 C                    -0.319432
      2 C                    -0.540568
      3 H                     0.149382
      4 H                     0.110944
      5 H                     0.297349
      6 C                     0.225883
      7 O                    -0.823235
      8 O                    -0.796034
      9 O                    -0.672130
     10 H                     0.367842
  ----------------------------------------
  Sum of atomic charges =    -2.000000

 -----------------------------------------------------------------
                    Cartesian Multipole Moments
 -----------------------------------------------------------------
    Charge (ESU x 10^10)
                -9.6064
    Dipole Moment (Debye)
         X     -10.3228      Y      -7.4023      Z       2.1741
       Tot      12.8872
    Quadrupole Moments (Debye-Ang)
        XX     -82.6566     XY     -10.9319     YY     -58.1710
        XZ       6.9740     YZ      -0.6332     ZZ     -44.2142
    Octopole Moments (Debye-Ang^2)
       XXX    -108.0219    XXY     -34.2741    XYY     -38.1505
       YYY     -72.0225    XXZ      29.1537    XYZ       3.6948
       YYZ       2.3858    XZZ     -30.6080    YZZ     -13.6257
       ZZZ      14.3010
    Hexadecapole Moments (Debye-Ang^3)
      XXXX    -907.3839   XXXY    -129.5079   XXYY    -183.3702
      XYYY    -119.0077   YYYY    -316.7114   XXXZ      97.9268
      XXYZ      10.4002   XYYZ      11.8310   YYYZ       0.9388
      XXZZ    -147.0292   XYZZ     -32.6463   YYZZ     -66.6572
      XZZZ      56.3251   YZZZ       5.3965   ZZZZ    -125.0873
 -----------------------------------------------------------------
 Calculating analytic gradient of the SCF energy
 Gradient of SCF Energy
            1           2           3           4           5           6
    1  -0.0442446   0.0549513   0.0102849  -0.0022841   0.0322658  -0.0001176
    2  -0.0026377  -0.0831311   0.0642670  -0.0547283   0.0560156   0.0604326
    3   0.0742776  -0.0217615  -0.0510776  -0.0661528   0.1165424  -0.0449932
            7           8           9          10
    1  -0.0452662   0.0085822   0.0295921  -0.0437637
    2  -0.0018075  -0.0434527   0.0161133  -0.0110713
    3   0.0213518  -0.0151710  -0.0764182   0.0634025
 Max gradient component =       1.165E-01
 RMS gradient           =       4.942E-02
 Computing fast CPCM-ISWIG gradient
 Updating gradient with PCM contributions...
 -- total gradient after adding PCM contribution --
---------------------------------------------------
  Atom         X              Y              Z     
---------------------------------------------------
   1      -0.000186       0.000053       0.001024
[...]
    Atom      X          Y          Z
     1   -6.445280566760157e-02   5.780615805714712e-04   3.233026637121042e-03
     2   -6.520614882647287e-02  -4.089647005420327e-04  -1.375581560548704e-02
     3   -1.987346248523094e-03   5.175680165754272e-03  -6.911900317064723e-03
     4   -7.986491514367571e-03   2.349458501923236e-03  -1.333200041495631e-02
     5   -1.901113283675144e-03   1.467275472071940e-03  -7.996793460695884e-04
     6    1.631112548016889e-02   2.799730725165546e-02  -6.719206325811988e-03
     7   -1.243373914380598e-02  -3.430790010655459e-03   8.476925638970560e-03
     8    8.014327088904851e-04  -1.213205565529172e-02  -2.923494788208301e-03
     9    2.888651900353523e-01  -5.441342149628707e-03  -1.514107936130209e-01
    10   -1.520095825122519e-01  -1.615533765697526e-02   1.841305419526588e-01

Order 1, Length 30
    Atom      X          Y          Z
     1    6.305341207880382e-03  -5.660712818256200e-02   9.577628124163802e-03
     2    1.304048747325286e-02   8.763466446382717e-03   4.132810796626478e-05
     3    2.010866751839595e-02  -2.026124711731971e-03   2.316350260283449e-02
     4   -8.287862082591066e-03   9.573040587413588e-03  -9.674344369501056e-03
     5   -6.636748407684367e-05  -2.155335653001316e-04  -3.440573343491635e-04
     6   -3.907890404845566e-03  -6.953097134001452e-03   1.755603795062339e-03
     7    2.531179603455928e-03   8.183029696015846e-04  -1.614203179694928e-03
     8   -7.220130371374757e-05   4.015700035695104e-03   7.280818503600120e-04
     9   -5.441342149628707e-03   4.800692991201016e-02  -7.576585144054754e-02
    10   -2.421145859645046e-02  -5.377962823017440e-03   5.211492937350942e-02

Order 1, Length 30
    Atom      X          Y          Z
     1   -2.011394073562704e-02   1.167768638436865e-02  -9.999072047082938e-02
     2   -4.521169498533617e-03  -4.348414963465760e-03   2.235966847611935e-02
     3   -2.053482238041293e-02   1.042057934654840e-02  -2.038336504774169e-02
     4   -2.609409997144713e-02   8.661625196252493e-03  -2.669159220481815e-02
     5   -1.285055311497215e-03   1.131990021968927e-03  -1.321882241384757e-03
     6    3.474812845755037e-03   4.621942432553557e-03  -2.581872672613478e-04
     7   -3.077627923645271e-03  -6.507223767164025e-04   1.150420110345999e-03
     8   -4.998864845109764e-04  -2.391055287702971e-03  -8.243869672153480e-04
     9   -1.514107936130209e-01  -7.576585144054754e-02   5.093045935145561e-01
    10    2.240793301965653e-01   4.666672905940338e-02  -3.832352022184038e-01


    10 Order 1, Length 30
    Atom      X          Y          Z
     1    8.103679675238680e-03   4.853832410392256e-03  -3.159136613045951e-02
     2    7.596286902140445e-03   1.132127797716331e-03   5.979209364521650e-03
     3   -1.913819347397917e-03   1.146013871198778e-03  -2.526617837787679e-03
     4   -2.393345933964952e-03   5.275351189611407e-04  -2.907390113740688e-03
     5   -2.638718075474258e-04   1.910598246372608e-04  -1.145578629174824e-03
     6   -5.163656005421088e-03  -6.344060195965401e-03  -2.908892926061090e-05
     7    3.055035614427026e-03   5.920900078309321e-04  -1.175663677065135e-03
     8   -7.217822252766706e-05   2.705761713735828e-03   6.358978571819218e-04
     9   -1.520095825122519e-01  -2.421145859645046e-02   2.240793301965653e-01
    10    1.430682843510469e-01   1.941937064837849e-02  -1.912677096751393e-01

Order 1, Length 30
    Atom      X          Y          Z
     1   -2.813489537478226e-03  -3.490360648821569e-03   1.024094941379141e-02
     2   -2.282904241112843e-03  -3.536562972537900e-04  -2.038014395995337e-03
     3    2.611443885607342e-03  -1.239522159927171e-03   2.465224150124823e-03
     4   -1.494081253706960e-03  -7.270164601756339e-05  -1.230628039818186e-03
     5    2.166176135150573e-04  -2.667649945719703e-04   8.494304847139650e-04
     6    9.627936927675540e-04   1.907610085625955e-03  -1.023082599434212e-03
     7   -6.888513268543631e-04  -1.705349012381434e-04   5.198895191356079e-04
     8    2.268536174671130e-04  -1.237833156198897e-03  -6.492086926534503e-05
     9   -1.615533765697526e-02  -5.377962823017440e-03   4.666672905940338e-02
    10    1.941937064837849e-02   1.030383243671717e-02  -5.637263099778309e-02

Order 1, Length 30
    Atom      X          Y          Z
     1    6.856293158390410e-03   4.825141231120258e-03  -3.075779883440750e-02
     2    2.375637167486992e-03  -3.695988955652981e-04   4.396207046993364e-03
     3   -1.084288578078434e-03  -7.728544633297597e-04  -1.176249434830984e-03
     4   -1.372897839941968e-03   1.365914006936139e-03  -1.513724354499741e-03
     5    1.180391190754309e-04  -4.166686056536250e-04   3.504117148966058e-04
     6   -4.679500288294250e-04  -1.147424716190700e-03   1.327657447614847e-03
     7    6.055242047623534e-04   2.141163047281713e-04  -1.115502237359713e-03
     8    8.577030497960055e-05   5.353998333063422e-04   1.276941238192568e-04
     9    1.841305419526588e-01   5.211492937350942e-02  -3.832352022184038e-01
    10   -1.912677096751393e-01  -5.637263099778309e-02   4.114978990783026e-01




 # Finishing finite difference calculation for IDERIV #
 ######################################################
 ######################################################
 Requested basis set is def2-TZVPD
 There are 101 shells and 267 basis functions
 **********************************************************************
 **                                                                  **
 **                       VIBRATIONAL ANALYSIS                       **
 **                       --------------------                       **
 **                                                                  **
 **        VIBRATIONAL FREQUENCIES (CM**-1) AND NORMAL MODES         **
 **     FORCE CONSTANTS (mDYN/ANGSTROM) AND REDUCED MASSES (AMU)     **
 **                  INFRARED INTENSITIES (KM/MOL)                   **
 **                                                                  **
 **********************************************************************
 

 Mode:                 1                      2                      3
 Frequency:        80.03                 104.74                 182.29
 Force Cnst:      0.0313                 0.0435                 0.0210
 Red. Mass:       8.3066                 6.7334                 1.0738
 IR Active:          YES                    YES                    YES
 IR Intens:        8.673                  8.450                123.930
 Raman Active:       YES                    YES                    YES
               X      Y      Z        X      Y      Z        X      Y      Z
 C         -0.046 -0.008  0.085    0.069 -0.184 -0.005    0.006  0.003  0.002
 C          0.115 -0.111  0.448    0.074 -0.152 -0.009    0.009 -0.010  0.010
 H         -0.263  0.018 -0.015   -0.020 -0.323 -0.348   -0.031  0.020  0.005
 H         -0.203 -0.013  0.083    0.108 -0.453  0.276    0.044  0.007  0.002
 H         -0.085 -0.027  0.063    0.168 -0.156  0.087   -0.034  0.013 -0.085
 C         -0.061 -0.029  0.061   -0.047 -0.061 -0.032   -0.000 -0.006 -0.000
 O         -0.239  0.046 -0.310    0.053  0.054  0.132    0.009 -0.007  0.016
 O         -0.024 -0.037  0.112   -0.300 -0.062 -0.213   -0.016  0.003 -0.031
 O          0.259  0.092 -0.251    0.151  0.361  0.111   -0.009 -0.049 -0.001
 H          0.530  0.169 -0.092    0.112  0.060  0.052    0.111  0.966  0.194
 TransDip  -0.024  0.040 -0.082    0.041 -0.084 -0.001    0.002  0.356  0.025

 Mode:                 4                      5                      6
 Frequency:       279.87                 418.62                 497.09
 Force Cnst:      0.1291                 0.5966                 0.1607
 Red. Mass:       2.7967                 5.7785                 1.1041
 IR Active:          YES                    YES                    YES
 IR Intens:       12.359                 60.956                225.036
 Raman Active:       YES                    YES                    YES
               X      Y      Z        X      Y      Z        X      Y      Z
 C          0.086  0.221  0.022    0.051 -0.017  0.117   -0.029 -0.007 -0.002
 C          0.002 -0.085 -0.090   -0.190  0.120 -0.289   -0.026  0.015 -0.039
 H         -0.015  0.445  0.413    0.154 -0.038  0.155    0.033 -0.047 -0.047
 H          0.326  0.519 -0.287    0.141 -0.016  0.129   -0.114 -0.034  0.030
 H         -0.054 -0.154  0.045    0.058  0.061  0.094    0.394 -0.201  0.870
 C         -0.010 -0.081 -0.029   -0.160  0.060 -0.010    0.021 -0.007 -0.001
 O          0.026  0.077 -0.005   -0.166 -0.178  0.074    0.009  0.025 -0.038
 O         -0.148 -0.157  0.075   -0.003  0.103  0.042    0.012 -0.023  0.020
 O          0.045 -0.010 -0.007    0.327 -0.046 -0.015   -0.018  0.007 -0.007
 H          0.043 -0.037 -0.012    0.705 -0.033  0.186    0.038  0.130  0.037
 TransDip   0.076  0.068  0.048    0.098 -0.071  0.219    0.231 -0.044  0.419

 Mode:                 7                      8                      9
 Frequency:       566.94                 656.78                 801.28
 Force Cnst:      0.7230                 1.2936                 3.3097
 Red. Mass:       3.8177                 5.0898                 8.7492
 IR Active:          YES                    YES                    YES
 IR Intens:       32.840                  6.869                516.880
 Raman Active:       YES                    YES                    YES
               X      Y      Z        X      Y      Z        X      Y      Z
 C          0.217  0.009 -0.185   -0.028 -0.093 -0.002    0.352 -0.161  0.446
 C          0.187 -0.062  0.010   -0.060 -0.313 -0.061    0.015 -0.029 -0.021
 H          0.131  0.118 -0.030   -0.330  0.206  0.400    0.056 -0.108  0.263
 H          0.343  0.152 -0.333    0.375  0.220 -0.308    0.116  0.052  0.173
 H          0.492 -0.016  0.171    0.101 -0.288  0.024    0.085 -0.006 -0.007
 C         -0.056  0.069  0.093   -0.124 -0.067  0.059   -0.054  0.116 -0.228
 O         -0.175 -0.178  0.013   -0.125  0.221  0.105    0.023 -0.034  0.061
 O         -0.050  0.115  0.052    0.271  0.095 -0.110    0.012 -0.014  0.057
 O         -0.070  0.030  0.020    0.002  0.031  0.000   -0.315  0.110 -0.299
 H         -0.431  0.090 -0.166    0.042 -0.004  0.016    0.471 -0.052  0.098
 TransDip   0.159  0.029 -0.086    0.019 -0.073  0.037    0.676  0.010  0.269

 Mode:                10                     11                     12
 Frequency:       810.70                 883.81                1047.32
 Force Cnst:      3.6627                 1.4189                 1.4786
 Red. Mass:       9.4588                 3.0832                 2.2880
 IR Active:          YES                    YES                    YES
 IR Intens:      156.642                 29.789                 32.784
 Raman Active:       YES                    YES                    YES
               X      Y      Z        X      Y      Z        X      Y      Z
 C          0.058 -0.071  0.156    0.189  0.135 -0.012   -0.027 -0.143 -0.033
 C         -0.088  0.037 -0.218   -0.025  0.106  0.019   -0.001  0.207  0.054
 H         -0.157  0.025  0.187    0.465 -0.205 -0.530   -0.109  0.111  0.423
 H          0.202  0.042  0.024   -0.231 -0.213  0.322    0.219  0.214 -0.387
 H         -0.037  0.060 -0.237   -0.233  0.029  0.070    0.493  0.437 -0.116
 C          0.349 -0.110  0.640   -0.047 -0.114  0.066   -0.014  0.014  0.007
 O         -0.036  0.009 -0.191   -0.154  0.093  0.079   -0.047  0.024  0.029
 O         -0.118  0.064 -0.149    0.087 -0.140 -0.092    0.032 -0.163 -0.055
 O         -0.104  0.034 -0.097   -0.010 -0.026 -0.026    0.006  0.031  0.009
 H          0.290 -0.102  0.091   -0.163  0.029 -0.101    0.033  0.017  0.021
 TransDip   0.282 -0.032  0.283    0.165 -0.055 -0.012   -0.055  0.156  0.079

 Mode:                13                     14                     15
 Frequency:      1133.64                1198.21                1252.70
 Force Cnst:      1.5126                 1.0925                 1.4461
 Red. Mass:       1.9976                 1.2915                 1.5640
 IR Active:          YES                    YES                    YES
 IR Intens:        6.829                228.741                299.400
 Raman Active:       YES                    YES                    YES
               X      Y      Z        X      Y      Z        X      Y      Z
 C         -0.125  0.115  0.019    0.013 -0.021 -0.116    0.014  0.057 -0.012
 C          0.187 -0.048 -0.074   -0.038  0.005  0.062   -0.072  0.010  0.053
 H         -0.050  0.014 -0.122    0.385 -0.080  0.007   -0.154 -0.027 -0.330
 H         -0.158 -0.124  0.269    0.266  0.053 -0.190    0.723 -0.177  0.254
 H          0.508  0.123 -0.253   -0.355 -0.130  0.133    0.372  0.208 -0.051
 C          0.021  0.022 -0.009    0.034  0.017 -0.009   -0.131 -0.056  0.040
 O         -0.073 -0.004  0.035   -0.009  0.002  0.003    0.094  0.001 -0.044
 O          0.013 -0.041 -0.015   -0.004  0.004  0.003    0.005  0.020  0.004
 O         -0.058 -0.012  0.016   -0.052  0.012  0.022   -0.022 -0.024 -0.016
 H          0.563 -0.159  0.323    0.635 -0.138  0.358    0.102 -0.077  0.041
 TransDip   0.026  0.064  0.048    0.480  0.063  0.023   -0.468 -0.179  0.236

 Mode:                16                     17                     18
 Frequency:      1273.11                1359.23                1393.68
 Force Cnst:      1.4531                 3.0615                 2.2812
 Red. Mass:       1.5216                 2.8125                 1.9934
 IR Active:          YES                    YES                    YES
 IR Intens:      629.748                594.735                632.406
 Raman Active:       YES                    YES                    YES
               X      Y      Z        X      Y      Z        X      Y      Z
 C         -0.022  0.000  0.009    0.126  0.018 -0.052   -0.110  0.019  0.032
 C          0.011 -0.017 -0.004   -0.080 -0.082  0.008    0.034 -0.053 -0.020
 H          0.737 -0.125  0.275   -0.386  0.102 -0.228    0.580 -0.104  0.275
 H         -0.409  0.127 -0.152   -0.687  0.131 -0.197    0.454 -0.176  0.271
 H          0.260  0.135 -0.165    0.048  0.001 -0.063   -0.168 -0.154  0.048
 C         -0.129 -0.111  0.048   -0.148  0.234  0.128   -0.038  0.214  0.072
 O          0.074  0.003 -0.037    0.097 -0.025 -0.051    0.011 -0.020 -0.011
 O          0.001  0.049  0.010    0.030 -0.105 -0.041    0.023 -0.099 -0.035
 O         -0.009  0.032 -0.011   -0.002 -0.008  0.049    0.015  0.006 -0.042
 H          0.024  0.047  0.010    0.257 -0.061  0.178   -0.287  0.086 -0.194
 TransDip  -0.663 -0.435  0.132   -0.084  0.690  0.357   -0.350  0.699  0.194

 Mode:                19                     20                     21
 Frequency:      1438.93                1486.16                3014.99
 Force Cnst:      3.0211                 1.5920                 5.6765
 Red. Mass:       2.4765                 1.2234                 1.0599
 IR Active:          YES                    YES                    YES
 IR Intens:      824.004                 36.798                175.119
 Raman Active:       YES                    YES                    YES
               X      Y      Z        X      Y      Z        X      Y      Z
 C         -0.009 -0.047 -0.014    0.063  0.012 -0.096   -0.024 -0.032  0.056
 C          0.225  0.141 -0.072   -0.062 -0.014  0.026   -0.001  0.004  0.001
 H         -0.379  0.201  0.251   -0.033  0.354  0.592    0.246  0.753 -0.346
 H          0.028 -0.165  0.121   -0.164 -0.504  0.454    0.005 -0.368 -0.330
 H         -0.644 -0.261  0.282    0.100  0.062 -0.029    0.017 -0.058 -0.021
 C         -0.198 -0.078  0.070    0.029 -0.007 -0.015    0.001  0.002  0.000
 O          0.050 -0.003 -0.024   -0.002  0.002  0.002   -0.001 -0.000  0.000
 O          0.018  0.004 -0.006   -0.006  0.009  0.005    0.000 -0.001 -0.000
 O         -0.026  0.003 -0.003   -0.010  0.002 -0.007    0.003 -0.000  0.001
 H          0.104 -0.039  0.062    0.044 -0.010  0.017   -0.009 -0.002  0.008
 TransDip  -0.803 -0.382  0.236    0.189  0.006 -0.046   -0.188 -0.162  0.344

 Mode:                22                     23                     24
 Frequency:      3059.31                3131.82                3795.54
 Force Cnst:      6.0811                 6.2817                 9.0471
 Red. Mass:       1.1028                 1.0870                 1.0659
 IR Active:          YES                    YES                    YES
 IR Intens:       78.513                110.399                 62.917
 Raman Active:       YES                    YES                    YES
               X      Y      Z        X      Y      Z        X      Y      Z
 C         -0.008 -0.086 -0.033   -0.005 -0.010  0.001    0.000  0.000 -0.002
 C         -0.002  0.006  0.002    0.024 -0.075 -0.028   -0.001 -0.000  0.000
 H          0.142  0.407 -0.201    0.032  0.083 -0.039    0.000 -0.007  0.004
 H         -0.027  0.629  0.600   -0.001  0.031  0.029    0.002  0.004  0.006
 H          0.024 -0.076 -0.035   -0.291  0.883  0.342    0.001 -0.002  0.001
 C          0.000 -0.001  0.000    0.004  0.001 -0.002    0.000  0.000  0.000
 O          0.000  0.000 -0.000   -0.001  0.000  0.000   -0.000 -0.000 -0.000
 O         -0.001  0.000  0.000   -0.001 -0.000  0.000    0.000 -0.000 -0.000
 O         -0.001  0.000 -0.000    0.000 -0.000  0.000    0.029  0.007 -0.055
 H          0.002 -0.004 -0.002   -0.002 -0.000  0.001   -0.460 -0.114  0.878
 TransDip  -0.019 -0.243 -0.145    0.108 -0.298 -0.113   -0.185 -0.019  0.174

 STANDARD THERMODYNAMIC QUANTITIES AT   298.15 K  AND     1.00 ATM

   This Molecule has  0 Imaginary Frequencies
   Zero point vibrational energy:       42.697 kcal/mol

   Atom    1 Element C  Has Mass   12.00000
   Atom    2 Element C  Has Mass   12.00000
   Atom    3 Element H  Has Mass    1.00783
   Atom    4 Element H  Has Mass    1.00783
   Atom    5 Element H  Has Mass    1.00783
   Atom    6 Element C  Has Mass   12.00000
   Atom    7 Element O  Has Mass   15.99491
   Atom    8 Element O  Has Mass   15.99491
   Atom    9 Element O  Has Mass   15.99491
   Atom   10 Element H  Has Mass    1.00783
   Molecular Mass:    88.016050 amu
   Principal axes and moments of inertia in amu*Bohr^2:
                             1           2           3
    Eigenvalues --      221.50461   852.22951   954.42463
          X               0.95316    -0.24416     0.17851
          Y               0.28016     0.93513    -0.21689
          Z              -0.11397     0.25674     0.95974
   Rotational Symmetry Number is   1
   The Molecule is an Asymmetric Top
   Translational Enthalpy:        0.889 kcal/mol
   Rotational Enthalpy:           0.889 kcal/mol
   Vibrational Enthalpy:         45.016 kcal/mol
   gas constant (RT):             0.592 kcal/mol
   Translational Entropy:        39.337  cal/mol.K
   Rotational Entropy:           26.690  cal/mol.K
   Vibrational Entropy:          14.386  cal/mol.K

   Total Enthalpy:               47.386 kcal/mol
   Total Entropy:                80.414  cal/mol.K
Archival summary:
1\1\c5-80\FREQ\ProcedureUnspecified\BasisUnspecified\334(2-,1)\leeping\FriMar2022:51:002020FriMar2022:51:002020\0\\#,FREQ,ProcedureUnspecified,BasisUnspecified,\\-2,1\C\O,1,1.2967\O,1,1.30086,2,119.831\C,1,1.42956,2,120.663,3,179.598,0\H,4,1.09011,1,117.87,2,-179.507,0\C,4,1.46928,1,123.82,2,1.27078,0\H,6,1.09628,4,112.226,1,-30.2153,0\H,6,1.09805,4,112.183,1,-152.424,0\O,6,1.49528,4,114.371,1,88.9396,0\H,9,0.965315,6,102.548,4,-2.13142,0\\\@

 Total job time:  4123.85s(wall), 58600.19s(cpu) 
 Fri Mar 20 22:51:00 2020

        *************************************************************
        *                                                           *
        *  Thank you very much for using Q-Chem.  Have a nice day.  *
        *                                                           *
        *************************************************************


