10   
From 2-transition-freq.out: Frame 1 / 61, Energy=    -342.6379618056
C       -0.6587514450   -0.4016882102    0.6737605213
C        0.5554569393   -0.4596903988    0.0139637163
H       -1.1201641252   -1.3307553249    0.9944581582
H       -0.8496812786    0.4469749504    1.3225224491
H        0.8637449231   -1.3925209466   -0.4564456220
C        1.4225173642    0.7060961501   -0.2125197057
O        2.4988419847    0.5269440924   -0.8825740153
O        1.0987374548    1.8440835807    0.2662541400
O       -2.1503945278    0.0326997301   -0.4449853835
H       -1.6603072896    0.0278563767   -1.2744342584
