
Running Job 1 of 1 qchem.in
qchem qchem.in_9185.0 ./qchem.d/ 1
/home/leeping/opt/qchem/5.0.2-openmp/exe/qcprog.exe_s qchem.in_9185.0 ./qchem.d/
Check license passed

                  Welcome to Q-Chem
     A Quantum Leap Into The Future Of Chemistry


 Q-Chem 5.0, Q-Chem, Inc., Pleasanton, CA (2017)

 Yihan Shao,  Zhengting Gan,  E. Epifanovsky,  A. T. B. Gilbert,  M. Wormit,  
 J. Kussmann,  A. W. Lange,  A. Behn,  Jia Deng,  Xintian Feng,  D. Ghosh,  
 M. Goldey,  P. R. Horn,  L. D. Jacobson,  I. Kaliman,  T. Kus,  A. Landau,  
 Jie Liu,  E. I. Proynov,  R. M. Richard,  R. P. Steele,  E. J. Sundstrom,  
 H. L. Woodcock III,  P. M. Zimmerman,  D. Zuev,  B. Albrecht,  E. Alguire,  
 S. A. Baeppler,  D. Barton,  Z. Benda,  Y. A. Bernard,  E. J. Berquist,  
 K. B. Bravaya,  H. Burton,  D. Casanova,  Chun-Min Chang,  Yunqing Chen,  
 A. Chien,  K. D. Closser,  M. P. Coons,  S. Dasgupta,  A. L. Dempwolff,  
 M. Diedenhofen,  Hainam Do,  R. G. Edgar,  Po-Tung Fang,  S. Fatehi,  
 Qingguo Feng,  J. Fosso-Tande,  Qinghui Ge,  A. Ghysels,  G. Gidofalvi,  
 J. Gomes,  J. Gonthier,  A. Gunina,  M. W. D. Hanson-Heine,  
 P. H. P. Harbach,  A. W. Hauser,  J. E. Herr,  E. G. Hohenstein,  
 Z. C. Holden,  Kerwin Hui,  T.-C. Jagau,  Hyunjun Ji,  B. Kaduk,  
 K. Khistyaev,  Jaehoon Kim,  P. Klunzinger,  K. Koh,  D. Kosenkov,  
 L. Koulias,  T. Kowalczyk,  C. M. Krauter,  A. Kunitsa,  Ka Un Lao,  
 A. Laurent,  K. V. Lawler,  Joonho Lee,  D. Lefrancois,  S. Lehtola,  
 D. S. Levine,  Yi-Pei Li,  You-Sheng Lin,  Fenglai Liu,  E. Livshits,  
 A. Luenser,  P. Manohar,  E. Mansoor,  S. F. Manzer,  Shan-Ping Mao,  
 Yuezhi Mao,  N. Mardirossian,  A. V. Marenich,  T. Markovich,  
 L. A. Martinez-Martinez,  S. A. Maurer,  N. J. Mayhall,  S. C. McKenzie,  
 J.-M. Mewes,  A. F. Morrison,  J. W. Mullinax,  K. Nanda,  
 T. S. Nguyen-Beck,  R. Olivares-Amaya,  J. A. Parkhill,  T. M. Perrine,  
 F. Plasser,  S. Prager,  A. Prociuk,  E. Ramos,  D. R. Rehn,  F. Rob,  
 M. Schneider,  N. Sergueev,  S. M. Sharada,  S. Sharma,  D. W. Small,  
 T. Stauch,  T. Stein,  Yu-Chuan Su,  A. J. W. Thom,  A. Tkatchenko,  
 T. Tsuchimochi,  L. Vogt,  O. Vydrov,  M. A. Watson,  J. Wenzel,  
 M. de Wergifosse,  T. A. Wesolowski,  A. White,  J. Witte,  A. Yamada,  
 Jun Yang,  K. Yao,  S. Yeganeh,  S. R. Yost,  Zhi-Qiang You,  A. Zech,  
 Igor Ying Zhang,  Xing Zhang,  Yan Zhao,  Ying Zhu,  B. R. Brooks,  
 G. K. L. Chan,  C. J. Cramer,  M. S. Gordon,  W. J. Hehre,  A. Klamt,  
 M. W. Schmidt,  C. D. Sherrill,  D. G. Truhlar,  A. Aspuru-Guzik,  R. Baer,  
 A. T. Bell,  N. A. Besley,  Jeng-Da Chai,  R. A. DiStasio Jr.,  A. Dreuw,  
 B. D. Dunietz,  T. R. Furlani,  Chao-Ping Hsu,  Yousung Jung,  Jing Kong,  
 D. S. Lambrecht,  WanZhen Liang,  C. Ochsenfeld,  V. A. Rassolov,  
 L. V. Slipchenko,  J. E. Subotnik,  T. Van Voorhis,  J. M. Herbert,  
 A. I. Krylov,  P. M. W. Gill,  M. Head-Gordon

 Contributors to earlier versions of Q-Chem not listed above: 
 R. D. Adamson,  B. Austin,  J. Baker,  G. J. O. Beran,  K. Brandhorst,  
 S. T. Brown,  E. F. C. Byrd,  A. K. Chakraborty,  C.-L. Cheng,  
 Siu Hung Chien,  D. M. Chipman,  D. L. Crittenden,  H. Dachsel,  
 R. J. Doerksen,  A. D. Dutoi,  L. Fusti-Molnar,  W. A. Goddard III,  
 A. Golubeva-Zadorozhnaya,  S. R. Gwaltney,  G. Hawkins,  A. Heyden,  
 S. Hirata,  G. Kedziora,  F. J. Keil,  C. Kelley,  Jihan Kim,  R. A. King,  
 R. Z. Khaliullin,  P. P. Korambath,  W. Kurlancheek,  A. M. Lee,  M. S. Lee,  
 S. V. Levchenko,  Ching Yeh Lin,  D. Liotard,  R. C. Lochan,  I. Lotan,  
 P. E. Maslen,  N. Nair,  D. P. O'Neill,  D. Neuhauser,  E. Neuscamman,  
 C. M. Oana,  R. Olson,  B. Peters,  R. Peverati,  P. A. Pieniazek,  
 Y. M. Rhee,  J. Ritchie,  M. A. Rohrdanz,  E. Rosta,  N. J. Russ,  
 H. F. Schaefer III,  N. E. Schultz,  N. Shenvi,  A. C. Simmonett,  A. Sodt,  
 D. Stuck,  K. S. Thanthiriwatte,  V. Vanovschi,  Tao Wang,  A. Warshel,  
 C. F. Williams,  Q. Wu,  X. Xu,  W. Zhang

 Please cite Q-Chem as follows:
 Y. Shao et al., Mol. Phys. 113, 184-215 (2015)
 DOI: 10.1080/00268976.2014.952696

 Q-Chem 5.0.2 for Intel X86 EM64T Linux

 Parts of Q-Chem use Armadillo 5.200.1 (Boston Tea Smuggler).
 http://arma.sourceforge.net/

 Q-Chem begins on Fri Feb 21 17:40:10 2020  

Host: 
0

     Scratch files written to ./qchem.d//
 Dec517 15110_ 26548  26544 5633   
Processing $rem in /home/leeping/opt/qchem/5.0.2-openmp/config/preferences.
 MEM_STATIC 2000
 MEM_TOTAL  8000
 SYMMETRY   OFF
 SYM_IGNORE TRUE 
Symmetry turned off for PCM/SM12/SMD calculation

Checking the input file for inconsistencies... 	...done.

--------------------------------------------------------------
User input:
--------------------------------------------------------------
$molecule
-3 1
C        0.1415324700    0.7816846136   -1.6865120263
C        0.4898078303    0.9955592315   -3.1693852003
O        0.2726716143    2.1526937122   -3.6254330378
O        0.9473776637    0.0304573499   -3.8329443863
C        0.5448558620   -0.5693422914   -1.1053302314
H       -0.9409415034    0.9339613606   -1.6014222488
H        0.6039505764    1.5992773770   -1.1235525966
H        1.6230763654   -0.7202299353   -1.2257527093
H        0.0475978157   -1.3722009797   -1.6615896203
C        0.2301744986   -0.7988496839    0.3777139377
C       -1.2634181188   -0.6699236547    0.7012913302
H       -1.6740633433    0.2984587150    0.4003083751
H       -1.4053923735   -0.7903110144    1.7791425288
H       -1.8176742892   -1.4617046186    0.1858198184
O        0.7682984315   -1.9284370036    0.8656253454
O        0.9142892660    0.3741130715    1.0699556270
O        1.2476118799   -0.1157124467    2.3736098489
H        1.2236713191   -1.1052083421    2.1012789825
H       -0.1742334300    0.2862405062    3.6066697127
O       -0.8513002830    0.5245318498    4.2627800277
O       -1.1420788326    1.9243554631    3.9122038621
$end

$rem
jobtype               sp
method                wb97x-v
basis                 def2-tzvpd
symmetry              off
sym_ignore            true
incdft                false
incfock               0
!scf_algorithm         diis_gdm
scf_convergence       8
scf_print             1
thresh                14
unrestricted          true
!purecart             112
max_scf_cycles        1000
geom_opt_max_cycles   500
geom_opt_dmax         100
geom_opt_tol_gradient 10
solvent_method        pcm
!ideriv                1
rpath_tol_displacement 1000
rpath_max_cycles      100
rpath_direction       1
!scf_guess            read
cdftci                true
$end

$cdft
2
1 1 18
0
1 1 18 s
---
0
1 0 0
0
1 0 0 s
---
1
1 1 9
1
1 1 9 s
---
1
1 1 9
-1
1 1 9 s
---
3
1 1 18
1
1 1 18 s
---
3
1 1 18
-1
1 1 18 s
---
2
1 1 16
1
1 1 16 s
---
2
1 1 16
-1
1 1 16 s
$end

$pcm
theory              cosmo
method              iswig
Radii               bondi
vdwScale            1.20
hpoints             110
heavypoints         110
$end

$solvent
dielectric 78.400000
$end

--------------------------------------------------------------
 ----------------------------------------------------------------
             Standard Nuclear Orientation (Angstroms)
    I     Atom           X                Y                Z
 ----------------------------------------------------------------
    1      C       0.1415324700     0.7816846136    -1.6865120263
    2      C       0.4898078303     0.9955592315    -3.1693852003
    3      O       0.2726716143     2.1526937122    -3.6254330378
    4      O       0.9473776637     0.0304573499    -3.8329443863
    5      C       0.5448558620    -0.5693422914    -1.1053302314
    6      H      -0.9409415034     0.9339613606    -1.6014222488
    7      H       0.6039505764     1.5992773770    -1.1235525966
    8      H       1.6230763654    -0.7202299353    -1.2257527093
    9      H       0.0475978157    -1.3722009797    -1.6615896203
   10      C       0.2301744986    -0.7988496839     0.3777139377
   11      C      -1.2634181188    -0.6699236547     0.7012913302
   12      H      -1.6740633433     0.2984587150     0.4003083751
   13      H      -1.4053923735    -0.7903110144     1.7791425288
   14      H      -1.8176742892    -1.4617046186     0.1858198184
   15      O       0.7682984315    -1.9284370036     0.8656253454
   16      O       0.9142892660     0.3741130715     1.0699556270
   17      O       1.2476118799    -0.1157124467     2.3736098489
   18      H       1.2236713191    -1.1052083421     2.1012789825
   19      H      -0.1742334300     0.2862405062     3.6066697127
   20      O      -0.8513002830     0.5245318498     4.2627800277
   21      O      -1.1420788326     1.9243554631     3.9122038621
 ----------------------------------------------------------------
 Nuclear Repulsion Energy =   720.3896148731 hartrees
 There are       49 alpha and       49 beta electrons
 Requested basis set is def2-TZVPD
 There are 208 shells and 546 basis functions

 Total QAlloc Memory Limit   8000 MB
 Mega-Array Size      1956 MB
 MEM_STATIC part      2000 MB
 Discretize the solute cavity surface with Lebedev spheres
	Using 110 Lebedev grid points for each H atom
	Using 110 Lebedev grid points for other atoms
	Atomic van der Waals radii will be scaled by 1.20
 Remove points where switching function is < 1.0e-08
 Keep 1253 surface tesserae and discard 1057 interior tesserae
 Molecular Surface Area = 231.029 Angst**2
 A cutoff of  1.0D-14 yielded  18795 shell pairs
 There are    128111 function pairs (    162281 Cartesian)
 
 -------------------------------------------------------
 OpenMP Integral Computing Module                       
 Release: version 1.0, May 2013, Q-Chem Inc. Pittsburgh 
 -------------------------------------------------------
 Integral Job Info:
 Integral job number is                      11
 Integral operator is                         1
 short-range coefficients              16700000
 long-range coefficients              100000000
 Omega coefficients                         300
 if combine SR and LR in K                    1
 Integral screening is                        0
 Integral computing path is                   2
 max size of driver memory is            800000
 size of driver memory is                776718
 size of scratch memory is              4473992
 max col of scratch BK array              10000
 max len of scratch array in speh3          662
 max len of scratch index in speh4           32
 max int batch size is                      520
 min int batch size is                       52
 fixed nKL is                                52
 max L of basis functions is                  3
 order of int derivative is                   0
 number of shells is                        208
 number of basis is                         618
 number of cartesian basis is               618
 number of contracted shell pairs         18795
 number of primitive shell pairs          37158
 maxK2 (contraction) of shell pair           36
 max number of K2 of shell pair               1
 max number of CS2 of shell pair           3202
 max number of PS2 of shell pair           4176
 mem total for path MDJ                  851884
 -------------------------------------------------------
 Smallest overlap matrix eigenvalue = 2.42E-06

 Scale SEOQF with 1.000000e-01/1.000000e-01/1.000000e-01

 Standard Electronic Orientation quadrupole field applied
 Nucleus-field energy     =    -0.0000000598 hartrees
 Guess from superposition of atomic densities
 Warning:  Energy on first SCF cycle will be non-variational
 SAD guess density has 95.000000 electrons


Starting CDFT-CI Calculation



Starting CDFT-CI SCF calculation on state 1 ...

 Smallest overlap matrix eigenvalue = 2.42E-06
 Smallest overlap matrix eigenvalue = 2.42E-06
 Long-range K will be added via erf
 Coulomb attenuation parameter = 0.3 bohr**(-1)
 An unrestricted hybrid HF-DFT SCF calculation will be
 performed using Pulay DIIS extrapolation
 Polarizable Continuum solvation model will be applied
 Exchange:     0.1670 Hartree-Fock + 1.0000 Constrained DFT (Becke Weights) + 1.0000 wB97X-V + LR-HF
 Correlation:  1.0000 wB97X-V
 Using SG-2 standard quadrature grid
 Nonlocal Correlation:  VV10 with C = 0.0100 and b = 6.00
 Grid used for NLC:  SG-1 standard quadrature
 SCF converges when DIIS error is below 1.0E-08
 Maximum number of SCF iterations = 1000
CDFT-CI using the default guess for promolecules
 using 16 threads for integral computing
 -------------------------------------------------------
 OpenMP Integral computing Module                
 -------------------------------------------------------
 using 16 threads for integral computing
 -------------------------------------------------------
 OpenMP Integral computing Module                
 -------------------------------------------------------
 -------------------------------------------------------
 OpenMP BLAS3 based DFT computing Module                
 -------------------------------------------------------
 Inaccurate integrated density:
   Number of electrons =    98
   Numerical integral  =    94.995079318617
   Relative error      =    -3.0662455932 %
 -------------------------------------------------------
 OpenMP BLAS3 based DFT computing Module                
 -------------------------------------------------------
 Inaccurate integrated density:
   Number of electrons =    98
   Numerical integral  =    94.999631673598
   Relative error      =    -3.0616003331 %
 -------------------------------------------------------
 OpenMP BLAS3 based DFT computing Module                
 -------------------------------------------------------
 Number of grid points used for NLC = 59645
 Inaccurate integrated density:
   Number of electrons =    98
   Numerical integral  =    94.999631673598
   Relative error      =    -3.0616003331 %
 One-Electron    Energy = -2124.5847761040
 Total Coulomb   Energy =   912.9882134599
 Alpha Exchange  Energy =   -13.5377016717
 Beta  Exchange  Energy =   -13.5377016717
 DFT   Exchange  Energy =   -58.3059641744
 DFT Correlation Energy =    -3.6744830900
 Kinetic         Energy = -1566.6818050211
 Nuclear Repu.   Energy =   576.4131911095
 Nuclear Attr.   Energy =  -557.9029710829
 Ewald QM/MM     Energy =     0.0000000000
 Poisson Solv.   Energy =     0.0000000000
 ---------------------------------------
  Cycle       Energy         DIIS Error
 ---------------------------------------
    1    -724.2392221425      2.13E-01  Gap = 6.90 eV 
 Number of grid points used for NLC = 59523
 One-Electron    Energy = -2141.0835268141
 Total Coulomb   Energy =   972.5211688805
 Alpha Exchange  Energy =   -13.8795163613
 Beta  Exchange  Energy =   -13.8795163613
 DFT   Exchange  Energy =   -60.9594293432
 DFT Correlation Energy =    -3.8411687420
 Kinetic         Energy = -1565.2489928269
 Nuclear Repu.   Energy =   576.4131911095
 Nuclear Attr.   Energy =  -575.8345339872
 Ewald QM/MM     Energy =     0.0000000000
 Poisson Solv.   Energy =     0.0000000000
    2    -684.7087976319      2.08E-02  Gap = 2.90 eV 
 Inaccurate integrated density:
   Number of electrons =    98
   Numerical integral  =    97.957763452213
   Relative error      =    -0.0430985181 %
 Number of grid points used for NLC = 60571
 One-Electron    Energy = -2116.4045418614
 Total Coulomb   Energy =   944.5839275415
 Alpha Exchange  Energy =   -13.5229481440
 Beta  Exchange  Energy =   -13.5229481440
 DFT   Exchange  Energy =   -58.5563647567
 DFT Correlation Energy =    -3.7491351340
 Kinetic         Energy = -1554.0997183406
 Nuclear Repu.   Energy =   576.4131911095
 Nuclear Attr.   Energy =  -562.3048235208
 Ewald QM/MM     Energy =     0.0000000000
 Poisson Solv.   Energy =     0.0000000000
    3    -684.7588193892      2.01E-02  Gap = 8.95 eV 
 Inaccurate integrated density:
   Number of electrons =    98
   Numerical integral  =    97.985092443257
   Relative error      =    -0.0152117926 %
 Number of grid points used for NLC = 60212
 One-Electron    Energy = -2129.3431121750
 Total Coulomb   Energy =   958.6318688300
 Alpha Exchange  Energy =   -13.7190019867
 Beta  Exchange  Energy =   -13.7190019867
 DFT   Exchange  Energy =   -59.8620005217
 DFT Correlation Energy =    -3.7924756871
 Kinetic         Energy = -1558.5263603509
 Nuclear Repu.   Energy =   576.4131911095
 Nuclear Attr.   Energy =  -570.8167518241
 Ewald QM/MM     Energy =     0.0000000000
 Poisson Solv.   Energy =     0.0000000000
    4    -685.3905324178      3.23E-03  Gap = 7.60 eV 
 Inaccurate integrated density:
   Number of electrons =    98
   Numerical integral  =    97.981216095887
   Relative error      =    -0.0191672491 %
 Number of grid points used for NLC = 60246
 One-Electron    Energy = -2128.1045295120
 Total Coulomb   Energy =   957.2724296105
 Alpha Exchange  Energy =   -13.6919974242
 Beta  Exchange  Energy =   -13.6919974242
 DFT   Exchange  Energy =   -59.6846854817
 DFT Correlation Energy =    -3.7868211575
 Kinetic         Energy = -1558.8150421157
 Nuclear Repu.   Energy =   576.4131911095
 Nuclear Attr.   Energy =  -569.2894873963
 Ewald QM/MM     Energy =     0.0000000000
 Poisson Solv.   Energy =     0.0000000000
    5    -685.2744102797      2.74E-03  Gap = 8.19 eV 
 Inaccurate integrated density:
   Number of electrons =    98
   Numerical integral  =    97.982458406449
   Relative error      =    -0.0178995853 %
 Number of grid points used for NLC = 60223
 One-Electron    Energy = -2128.4763230506
 Total Coulomb   Energy =   957.6486357440
 Alpha Exchange  Energy =   -13.7002409566
 Beta  Exchange  Energy =   -13.7002409566
 DFT   Exchange  Energy =   -59.7389860728
 DFT Correlation Energy =    -3.7880330724
 Kinetic         Energy = -1558.8422094473
 Nuclear Repu.   Energy =   576.4131911095
 Nuclear Attr.   Energy =  -569.6341136032
 Ewald QM/MM     Energy =     0.0000000000
 Poisson Solv.   Energy =     0.0000000000
    6    -685.3419972555      6.72E-04  Gap = 8.40 eV 
 Inaccurate integrated density:
   Number of electrons =    98
   Numerical integral  =    97.982733932075
   Relative error      =    -0.0176184367 %
 Number of grid points used for NLC = 60219
 One-Electron    Energy = -2128.6513041399
 Total Coulomb   Energy =   957.8287743863
 Alpha Exchange  Energy =   -13.7041479163
 Beta  Exchange  Energy =   -13.7041479163
 DFT   Exchange  Energy =   -59.7655980832
 DFT Correlation Energy =    -3.7885104549
 Kinetic         Energy = -1558.7591508101
 Nuclear Repu.   Energy =   576.4131911095
 Nuclear Attr.   Energy =  -569.8921533299
 Ewald QM/MM     Energy =     0.0000000000
 Poisson Solv.   Energy =     0.0000000000
    7    -685.3717430149      1.97E-04  Gap = 8.38 eV 
 Inaccurate integrated density:
   Number of electrons =    98
   Numerical integral  =    97.982659436612
   Relative error      =    -0.0176944524 %
 Number of grid points used for NLC = 60222
 One-Electron    Energy = -2128.6252864506
 Total Coulomb   Energy =   957.8033984211
 Alpha Exchange  Energy =   -13.7034141201
 Beta  Exchange  Energy =   -13.7034141201
 DFT   Exchange  Energy =   -59.7604672941
 DFT Correlation Energy =    -3.7884001021
 Kinetic         Energy = -1558.7618325312
 Nuclear Repu.   Energy =   576.4131911095
 Nuclear Attr.   Energy =  -569.8634539194
 Ewald QM/MM     Energy =     0.0000000000
 Poisson Solv.   Energy =     0.0000000000
    8    -685.3643925564      9.97E-05  Gap = 8.36 eV 
 Inaccurate integrated density:
   Number of electrons =    98
   Numerical integral  =    97.982612097817
   Relative error      =    -0.0177427573 %
 Number of grid points used for NLC = 60221
 One-Electron    Energy = -2128.6288723634
 Total Coulomb   Energy =   957.8061657983
 Alpha Exchange  Energy =   -13.7034602293
 Beta  Exchange  Energy =   -13.7034602293
 DFT   Exchange  Energy =   -59.7607089552
 DFT Correlation Energy =    -3.7883791705
 Kinetic         Energy = -1558.7927869462
 Nuclear Repu.   Energy =   576.4131911095
 Nuclear Attr.   Energy =  -569.8360854172
 Ewald QM/MM     Energy =     0.0000000000
 Poisson Solv.   Energy =     0.0000000000
    9    -685.3655240400      3.21E-05  Gap = 8.37 eV 
 Inaccurate integrated density:
   Number of electrons =    98
   Numerical integral  =    97.982620697539
   Relative error      =    -0.0177339821 %
 Number of grid points used for NLC = 60221
 One-Electron    Energy = -2128.6131774566
 Total Coulomb   Energy =   957.7882004752
 Alpha Exchange  Energy =   -13.7032755849
 Beta  Exchange  Energy =   -13.7032755849
 DFT   Exchange  Energy =   -59.7593989749
 DFT Correlation Energy =    -3.7883378926
 Kinetic         Energy = -1558.7667148102
 Nuclear Repu.   Energy =   576.4131911095
 Nuclear Attr.   Energy =  -569.8464626464
 Ewald QM/MM     Energy =     0.0000000000
 Poisson Solv.   Energy =     0.0000000000
   10    -685.3660739092      1.24E-05  Gap = 8.36 eV 
 Inaccurate integrated density:
   Number of electrons =    98
   Numerical integral  =    97.982621640024
   Relative error      =    -0.0177330204 %
 Number of grid points used for NLC = 60221
 One-Electron    Energy = -2128.6147592731
 Total Coulomb   Energy =   957.7899767537
 Alpha Exchange  Energy =   -13.7033084341
 Beta  Exchange  Energy =   -13.7033084341
 DFT   Exchange  Energy =   -59.7596107003
 DFT Correlation Energy =    -3.7883413499
 Kinetic         Energy = -1558.7705252146
 Nuclear Repu.   Energy =   576.4131911095
 Nuclear Attr.   Energy =  -569.8442340585
 Ewald QM/MM     Energy =     0.0000000000
 Poisson Solv.   Energy =     0.0000000000
   11    -685.3661603283      5.83E-06  Gap = 8.36 eV 
 Inaccurate integrated density:
   Number of electrons =    98
   Numerical integral  =    97.982626230255
   Relative error      =    -0.0177283365 %
 Number of grid points used for NLC = 60221
 One-Electron    Energy = -2128.6176765152
 Total Coulomb   Energy =   957.7933716373
 Alpha Exchange  Energy =   -13.7033434858
 Beta  Exchange  Energy =   -13.7033434858
 DFT   Exchange  Energy =   -59.7598555653
 DFT Correlation Energy =    -3.7883511969
 Kinetic         Energy = -1558.7723189718
 Nuclear Repu.   Energy =   576.4131911095
 Nuclear Attr.   Energy =  -569.8453575435
 Ewald QM/MM     Energy =     0.0000000000
 Poisson Solv.   Energy =     0.0000000000
   12    -685.3660075022      2.80E-06  Gap = 8.36 eV 
 Inaccurate integrated density:
   Number of electrons =    98
   Numerical integral  =    97.982627593407
   Relative error      =    -0.0177269455 %
 Number of grid points used for NLC = 60221
 One-Electron    Energy = -2128.6168437794
 Total Coulomb   Energy =   957.7923849040
 Alpha Exchange  Energy =   -13.7033345181
 Beta  Exchange  Energy =   -13.7033345181
 DFT   Exchange  Energy =   -59.7597861336
 DFT Correlation Energy =    -3.7883492617
 Kinetic         Energy = -1558.7714063488
 Nuclear Repu.   Energy =   576.4131911095
 Nuclear Attr.   Energy =  -569.8454374307
 Ewald QM/MM     Energy =     0.0000000000
 Poisson Solv.   Energy =     0.0000000000
   13    -685.3660721975      9.35E-07  Gap = 8.36 eV 
 Inaccurate integrated density:
   Number of electrons =    98
   Numerical integral  =    97.982627799030
   Relative error      =    -0.0177267357 %
 Number of grid points used for NLC = 60221
 One-Electron    Energy = -2128.6169692491
 Total Coulomb   Energy =   957.7925422498
 Alpha Exchange  Energy =   -13.7033366878
 Beta  Exchange  Energy =   -13.7033366878
 DFT   Exchange  Energy =   -59.7598011596
 DFT Correlation Energy =    -3.7883494249
 Kinetic         Energy = -1558.7715954388
 Nuclear Repu.   Energy =   576.4131911095
 Nuclear Attr.   Energy =  -569.8453738103
 Ewald QM/MM     Energy =     0.0000000000
 Poisson Solv.   Energy =     0.0000000000
   14    -685.3660598500      4.61E-07  Gap = 8.36 eV 
 Inaccurate integrated density:
   Number of electrons =    98
   Numerical integral  =    97.982627991036
   Relative error      =    -0.0177265398 %
 Number of grid points used for NLC = 60221
 One-Electron    Energy = -2128.6170878592
 Total Coulomb   Energy =   957.7926730814
 Alpha Exchange  Energy =   -13.7033381003
 Beta  Exchange  Energy =   -13.7033381003
 DFT   Exchange  Energy =   -59.7598108026
 DFT Correlation Energy =    -3.7883498993
 Kinetic         Energy = -1558.7716617418
 Nuclear Repu.   Energy =   576.4131911095
 Nuclear Attr.   Energy =  -569.8454261174
 Ewald QM/MM     Energy =     0.0000000000
 Poisson Solv.   Energy =     0.0000000000
   15    -685.3660605709      1.48E-07  Gap = 8.36 eV 
 Inaccurate integrated density:
   Number of electrons =    98
   Numerical integral  =    97.982627922933
   Relative error      =    -0.0177266093 %
 Number of grid points used for NLC = 60221
 One-Electron    Energy = -2128.6170493696
 Total Coulomb   Energy =   957.7926301828
 Alpha Exchange  Energy =   -13.7033372683
 Beta  Exchange  Energy =   -13.7033372683
 DFT   Exchange  Energy =   -59.7598054189
 DFT Correlation Energy =    -3.7883497357
 Kinetic         Energy = -1558.7716017837
 Nuclear Repu.   Energy =   576.4131911095
 Nuclear Attr.   Energy =  -569.8454475859
 Ewald QM/MM     Energy =     0.0000000000
 Poisson Solv.   Energy =     0.0000000000
   16    -685.3660577685      8.41E-08  Gap = 8.36 eV 
 Inaccurate integrated density:
   Number of electrons =    98
   Numerical integral  =    97.982627891746
   Relative error      =    -0.0177266411 %
 Number of grid points used for NLC = 60221
 One-Electron    Energy = -2128.6170832622
 Total Coulomb   Energy =   957.7926639351
 Alpha Exchange  Energy =   -13.7033380952
 Beta  Exchange  Energy =   -13.7033380952
 DFT   Exchange  Energy =   -59.7598111438
 DFT Correlation Energy =    -3.7883498237
 Kinetic         Energy = -1558.7716505758
 Nuclear Repu.   Energy =   576.4131911095
 Nuclear Attr.   Energy =  -569.8454326864
 Ewald QM/MM     Energy =     0.0000000000
 Poisson Solv.   Energy =     0.0000000000
   17    -685.3660653754      4.09E-08  Gap = 8.36 eV 
 Inaccurate integrated density:
   Number of electrons =    98
   Numerical integral  =    97.982627840184
   Relative error      =    -0.0177266937 %
 Number of grid points used for NLC = 60221
 One-Electron    Energy = -2128.6170605077
 Total Coulomb   Energy =   957.7926392331
 Alpha Exchange  Energy =   -13.7033375914
 Beta  Exchange  Energy =   -13.7033375914
 DFT   Exchange  Energy =   -59.7598076823
 DFT Correlation Energy =    -3.7883497439
 Kinetic         Energy = -1558.7716295064
 Nuclear Repu.   Energy =   576.4131911095
 Nuclear Attr.   Energy =  -569.8454310012
 Ewald QM/MM     Energy =     0.0000000000
 Poisson Solv.   Energy =     0.0000000000
   18    -685.3660627740      1.28E-08  Gap = 8.36 eV 
 Inaccurate integrated density:
   Number of electrons =    98
   Numerical integral  =    97.982627842489
   Relative error      =    -0.0177266913 %
 Number of grid points used for NLC = 60221
 One-Electron    Energy = -2128.6170630379
 Total Coulomb   Energy =   957.7926418985
 Alpha Exchange  Energy =   -13.7033376804
 Beta  Exchange  Energy =   -13.7033376804
 DFT   Exchange  Energy =   -59.7598083245
 DFT Correlation Energy =    -3.7883497534
 Kinetic         Energy = -1558.7716323845
 Nuclear Repu.   Energy =   576.4131911095
 Nuclear Attr.   Energy =  -569.8454306534
 Ewald QM/MM     Energy =     0.0000000000
 Poisson Solv.   Energy =     0.0000000000
CDFTCI weight 0=    79.8789420298
CDFTCI weight 1=     0.0000000000
   19    -685.3660634688      5.55E-09 Convergence criterion met
 ---------------------------------------
 One-Electron    Energy = -2128.6170630379
 Total Coulomb   Energy =   957.7926418985
 Alpha Exchange  Energy =   -13.7033376804
 Beta  Exchange  Energy =   -13.7033376804
 DFT   Exchange  Energy =   -59.7598083245
 DFT Correlation Energy =    -3.7883497534
 Nuclear Repu.   Energy =   576.4131911095
 Nuclear Attr.   Energy =  -569.8454306534
 Kinetic         Energy = -1558.7716323845

************** Final PCM Free Energy Summary **************
 G_electrostatic  =      -0.58556719 hartree =    -367.44895468 kcal/mol
 G_cavitation     =       0.00000000 hartree =       0.00000000 kcal/mol
 G_dispersion     =       0.00000000 hartree =       0.00000000 kcal/mol
 G_repulsion      =       0.00000000 hartree =       0.00000000 kcal/mol
 --------------------------------------------------
 Non-electrostatic Free Energy =       0.00000000 hartree =       0.00000000 kcal/mol
 Total                         =      -0.58556719 hartree =    -367.44895468 kcal/mol
 --------------------------------------------------
 SCF Energy (H0 + V/2)                       =    -685.36606347 
 Solute Internal Energy (H0)                 =    -684.78049628 
 Total Free Energy (H0 + V/2 + non-elec)     =    -685.36606347 hartree
                                             = -430073.69592864 kcal/mol
***********************************************************

 <S^2> = 0.0000
 SCF time:  CPU 4454.65 s  wall 4346.82 s


CDFT-CI fragment calculation complete,
beginning diabatic state SCF calculation.

 Smallest overlap matrix eigenvalue = 2.42E-06
 Guess from superposition of atomic densities
 Warning:  Energy on first SCF cycle will be non-variational
 SAD guess density has 95.000000 electrons
 Long-range K will be added via erf
 Coulomb attenuation parameter = 0.3 bohr**(-1)
 An unrestricted hybrid HF-DFT SCF calculation will be
 performed using Pulay DIIS extrapolation
 Polarizable Continuum solvation model will be applied
 Exchange:     0.1670 Hartree-Fock + 1.0000 Constrained DFT (Becke Weights) + 1.0000 wB97X-V + LR-HF
 Correlation:  1.0000 wB97X-V
 Using SG-2 standard quadrature grid
 Nonlocal Correlation:  VV10 with C = 0.0100 and b = 6.00
 Grid used for NLC:  SG-1 standard quadrature
 SCF converges when DIIS error is below 1.0E-08
 Maximum number of SCF iterations = 1000
CDFT-CI using the default guess
 using 16 threads for integral computing
 -------------------------------------------------------
 OpenMP Integral computing Module                
 Release: version 1.0, May 2013, Q-Chem Inc. Pittsburgh 
 -------------------------------------------------------
 using 16 threads for integral computing
 -------------------------------------------------------
 OpenMP Integral computing Module                
 Release: version 1.0, May 2013, Q-Chem Inc. Pittsburgh 
 -------------------------------------------------------
 -------------------------------------------------------
 OpenMP BLAS3 based DFT computing Module                
 Release: version 1.0, May 2013, Q-Chem Inc. Pittsburgh 
 -------------------------------------------------------
 -------------------------------------------------------
 OpenMP BLAS3 based DFT computing Module                
 Release: version 1.0, May 2013, Q-Chem Inc. Pittsburgh 
 -------------------------------------------------------
 -------------------------------------------------------
 OpenMP BLAS3 based DFT computing Module                
 Release: version 1.0, May 2013, Q-Chem Inc. Pittsburgh 
 -------------------------------------------------------
 One-Electron    Energy = -2412.5250614736
 Total Coulomb   Energy =  1056.9362270209
 Alpha Exchange  Energy =   -13.5540786299
 Beta  Exchange  Energy =   -13.5540786299
 DFT   Exchange  Energy =   -58.3155239579
 DFT Correlation Energy =    -3.6821184496
 Kinetic         Energy =   709.5832289158
 Nuclear Repu.   Energy =   720.3896148134
 Nuclear Attr.   Energy = -3122.1082903893
 Ewald QM/MM     Energy =     0.0000000000
 Poisson Solv.   Energy =     0.0000000000
 -------------------------------------------------------
 OpenMP BLAS3 based DFT computing Module                
 Release: version 1.0, May 2013, Q-Chem Inc. Pittsburgh 
 -------------------------------------------------------
 -------------------------------------------------------
 OpenMP BLAS3 based DFT computing Module                
 Release: version 1.0, May 2013, Q-Chem Inc. Pittsburgh 
 -------------------------------------------------------
Constraint 0 : 79.8789420298
Constraint 1 : 0.0000000000
 ---------------------------------------
  Cycle       Energy         DIIS Error
 ---------------------------------------
    1    -724.3050193067      1.94E-02  Gap = 3.28 eV 
 One-Electron    Energy = -2477.1967612410
 Total Coulomb   Energy =  1127.0019936142
 Alpha Exchange  Energy =   -13.8784433521
 Beta  Exchange  Energy =   -13.8784433521
 DFT   Exchange  Energy =   -60.9575009467
 DFT Correlation Energy =    -3.8447086173
 Kinetic         Energy =   729.4640033503
 Nuclear Repu.   Energy =   720.3896148134
 Nuclear Attr.   Energy = -3206.6607645913
 Ewald QM/MM     Energy =     0.0000000000
 Poisson Solv.   Energy =     0.0000000000
    2    -722.3642490817      3.83E-03  Gap = 4.48 eV 
 One-Electron    Energy = -2456.2413865657
 Total Coulomb   Energy =  1103.1604359327
 Alpha Exchange  Energy =   -13.5707068592
 Beta  Exchange  Energy =   -13.5707068592
 DFT   Exchange  Energy =   -58.7880039348
 DFT Correlation Energy =    -3.7701416931
 Kinetic         Energy =   709.5968139870
 Nuclear Repu.   Energy =   720.3896148134
 Nuclear Attr.   Energy = -3165.8382005527
 Ewald QM/MM     Energy =     0.0000000000
 Poisson Solv.   Energy =     0.0000000000
    3    -722.3908951659      4.13E-03  Gap = 7.21 eV 
 One-Electron    Energy = -2465.1517459157
 Total Coulomb   Energy =  1112.9394968291
 Alpha Exchange  Energy =   -13.7106187441
 Beta  Exchange  Energy =   -13.7106187441
 DFT   Exchange  Energy =   -59.7591412507
 DFT Correlation Energy =    -3.7981085466
 Kinetic         Energy =   718.8379529673
 Nuclear Repu.   Energy =   720.3896148134
 Nuclear Attr.   Energy = -3183.9896988830
 Ewald QM/MM     Energy =     0.0000000000
 Poisson Solv.   Energy =     0.0000000000
    4    -722.8011215587      4.28E-04  Gap = 7.53 eV 
 One-Electron    Energy = -2465.8842124060
 Total Coulomb   Energy =  1113.7279616843
 Alpha Exchange  Energy =   -13.7162915527
 Beta  Exchange  Energy =   -13.7162915527
 DFT   Exchange  Energy =   -59.8067074532
 DFT Correlation Energy =    -3.7994002009
 Kinetic         Energy =   719.3893609253
 Nuclear Repu.   Energy =   720.3896148134
 Nuclear Attr.   Energy = -3185.2735733313
 Ewald QM/MM     Energy =     0.0000000000
 Poisson Solv.   Energy =     0.0000000000
    5    -722.8053266677      2.08E-04  Gap = 7.71 eV 
 One-Electron    Energy = -2465.6968290915
 Total Coulomb   Energy =  1113.5280023583
 Alpha Exchange  Energy =   -13.7152434376
 Beta  Exchange  Energy =   -13.7152434376
 DFT   Exchange  Energy =   -59.7980041076
 DFT Correlation Energy =    -3.7986983759
 Kinetic         Energy =   719.3050843078
 Nuclear Repu.   Energy =   720.3896148134
 Nuclear Attr.   Energy = -3185.0019133993
 Ewald QM/MM     Energy =     0.0000000000
 Poisson Solv.   Energy =     0.0000000000
    6    -722.8064012786      7.40E-05  Gap = 7.68 eV 
 One-Electron    Energy = -2465.6616941896
 Total Coulomb   Energy =  1113.4962153066
 Alpha Exchange  Energy =   -13.7156757331
 Beta  Exchange  Energy =   -13.7156757331
 DFT   Exchange  Energy =   -59.8008536095
 DFT Correlation Energy =    -3.7984824910
 Kinetic         Energy =   719.3343214145
 Nuclear Repu.   Energy =   720.3896148134
 Nuclear Attr.   Energy = -3184.9960156041
 Ewald QM/MM     Energy =     0.0000000000
 Poisson Solv.   Energy =     0.0000000000
    7    -722.8065516363      2.33E-05  Gap = 7.71 eV 
 One-Electron    Energy = -2465.6898872062
 Total Coulomb   Energy =  1113.5271789972
 Alpha Exchange  Energy =   -13.7159718021
 Beta  Exchange  Energy =   -13.7159718021
 DFT   Exchange  Energy =   -59.8029891727
 DFT Correlation Energy =    -3.7985447317
 Kinetic         Energy =   719.3542030003
 Nuclear Repu.   Energy =   720.3896148134
 Nuclear Attr.   Energy = -3185.0440902065
 Ewald QM/MM     Energy =     0.0000000000
 Poisson Solv.   Energy =     0.0000000000
    8    -722.8065709042      7.46E-06  Gap = 7.70 eV 
 One-Electron    Energy = -2465.6874417412
 Total Coulomb   Energy =  1113.5243639812
 Alpha Exchange  Energy =   -13.7159374106
 Beta  Exchange  Energy =   -13.7159374106
 DFT   Exchange  Energy =   -59.8027155422
 DFT Correlation Energy =    -3.7985193572
 Kinetic         Energy =   719.3513781073
 Nuclear Repu.   Energy =   720.3896148134
 Nuclear Attr.   Energy = -3185.0388198485
 Ewald QM/MM     Energy =     0.0000000000
 Poisson Solv.   Energy =     0.0000000000
    9    -722.8065726672      2.80E-06  Gap = 7.70 eV 
 One-Electron    Energy = -2465.6839990148
 Total Coulomb   Energy =  1113.5208341769
 Alpha Exchange  Energy =   -13.7159284097
 Beta  Exchange  Energy =   -13.7159284097
 DFT   Exchange  Energy =   -59.8026601913
 DFT Correlation Energy =    -3.7985065331
 Kinetic         Energy =   719.3509901055
 Nuclear Repu.   Energy =   720.3896148134
 Nuclear Attr.   Energy = -3185.0349891203
 Ewald QM/MM     Energy =     0.0000000000
 Poisson Solv.   Energy =     0.0000000000
   10    -722.8065735684      8.73E-07  Gap = 7.70 eV 
 One-Electron    Energy = -2465.6837523923
 Total Coulomb   Energy =  1113.5205896375
 Alpha Exchange  Energy =   -13.7159280330
 Beta  Exchange  Energy =   -13.7159280330
 DFT   Exchange  Energy =   -59.8026642341
 DFT Correlation Energy =    -3.7985049035
 Kinetic         Energy =   719.3510550339
 Nuclear Repu.   Energy =   720.3896148134
 Nuclear Attr.   Energy = -3185.0348074262
 Ewald QM/MM     Energy =     0.0000000000
 Poisson Solv.   Energy =     0.0000000000
   11    -722.8065731451      4.25E-07  Gap = 7.70 eV 
 One-Electron    Energy = -2465.6839478915
 Total Coulomb   Energy =  1113.5207801546
 Alpha Exchange  Energy =   -13.7159270643
 Beta  Exchange  Energy =   -13.7159270643
 DFT   Exchange  Energy =   -59.8026609479
 DFT Correlation Energy =    -3.7985047680
 Kinetic         Energy =   719.3510222079
 Nuclear Repu.   Energy =   720.3896148134
 Nuclear Attr.   Energy = -3185.0349700994
 Ewald QM/MM     Energy =     0.0000000000
 Poisson Solv.   Energy =     0.0000000000
   12    -722.8065727679      1.40E-07  Gap = 7.70 eV 
 One-Electron    Energy = -2465.6839643875
 Total Coulomb   Energy =  1113.5208045289
 Alpha Exchange  Energy =   -13.7159278078
 Beta  Exchange  Energy =   -13.7159278078
 DFT   Exchange  Energy =   -59.8026674562
 DFT Correlation Energy =    -3.7985050436
 Kinetic         Energy =   719.3510940580
 Nuclear Repu.   Energy =   720.3896148134
 Nuclear Attr.   Energy = -3185.0350584454
 Ewald QM/MM     Energy =     0.0000000000
 Poisson Solv.   Energy =     0.0000000000
   13    -722.8065731604      7.36E-08  Gap = 7.70 eV 
 One-Electron    Energy = -2465.6839866257
 Total Coulomb   Energy =  1113.5208263504
 Alpha Exchange  Energy =   -13.7159277885
 Beta  Exchange  Energy =   -13.7159277885
 DFT   Exchange  Energy =   -59.8026671249
 DFT Correlation Energy =    -3.7985050369
 Kinetic         Energy =   719.3510890861
 Nuclear Repu.   Energy =   720.3896148134
 Nuclear Attr.   Energy = -3185.0350757118
 Ewald QM/MM     Energy =     0.0000000000
 Poisson Solv.   Energy =     0.0000000000
   14    -722.8065732008      3.13E-08  Gap = 7.70 eV 
 One-Electron    Energy = -2465.6839682352
 Total Coulomb   Energy =  1113.5208049736
 Alpha Exchange  Energy =   -13.7159275119
 Beta  Exchange  Energy =   -13.7159275119
 DFT   Exchange  Energy =   -59.8026647405
 DFT Correlation Energy =    -3.7985050264
 Kinetic         Energy =   719.3510632873
 Nuclear Repu.   Energy =   720.3896148134
 Nuclear Attr.   Energy = -3185.0350315225
 Ewald QM/MM     Energy =     0.0000000000
 Poisson Solv.   Energy =     0.0000000000
   15    -722.8065732389      1.15E-08  Gap = 7.70 eV 
 One-Electron    Energy = -2465.6839848939
 Total Coulomb   Energy =  1113.5208223344
 Alpha Exchange  Energy =   -13.7159275957
 Beta  Exchange  Energy =   -13.7159275957
 DFT   Exchange  Energy =   -59.8026652538
 DFT Correlation Energy =    -3.7985050733
 Kinetic         Energy =   719.3510682387
 Nuclear Repu.   Energy =   720.3896148134
 Nuclear Attr.   Energy = -3185.0350531326
 Ewald QM/MM     Energy =     0.0000000000
 Poisson Solv.   Energy =     0.0000000000
Lam  -0.0554670278838363
Lam  -0.0000000000003289
Final Multiplier 1:      79.8789      -0.0554670 
Final Multiplier 2:       0.0000      -0.0000000 
   16    -722.8065732646      3.74E-09 Convergence criterion met
 ---------------------------------------
 One-Electron    Energy = -2465.6839848939
 Total Coulomb   Energy =  1113.5208223344
 Alpha Exchange  Energy =   -13.7159275957
 Beta  Exchange  Energy =   -13.7159275957
 DFT   Exchange  Energy =   -59.8026652538
 DFT Correlation Energy =    -3.7985050733
 Nuclear Repu.   Energy =   720.3896148134
 Nuclear Attr.   Energy = -3185.0350531326
 Kinetic         Energy =   719.3510682387

************** Final PCM Free Energy Summary **************
 G_electrostatic  =      -0.59655207 hartree =    -374.34207323 kcal/mol
 G_cavitation     =       0.00000000 hartree =       0.00000000 kcal/mol
 G_dispersion     =       0.00000000 hartree =       0.00000000 kcal/mol
 G_repulsion      =       0.00000000 hartree =       0.00000000 kcal/mol
 --------------------------------------------------
 Non-electrostatic Free Energy =       0.00000000 hartree =       0.00000000 kcal/mol
 Total                         =      -0.59655207 hartree =    -374.34207323 kcal/mol
 --------------------------------------------------
 SCF Energy (H0 + V/2)                       =    -722.80657326 
 Solute Internal Energy (H0)                 =    -722.21002120 
 Total Free Energy (H0 + V/2 + non-elec)     =    -722.80657326 hartree
                                             = -453567.97042458 kcal/mol
***********************************************************

 <S^2> = 0.0000

                  CDFT Becke Populations
----------------------------------------
            Atom  Net Number    Net Spin
       1       C   -0.898398    0.000000
       2       C   -0.307516   -0.000000
       3       O    0.591524   -0.000000
       4       O    0.559549    0.000000
       5       C   -0.908864    0.000000
       6       H    0.495412   -0.000000
       7       H    0.520360   -0.000000
       8       H    0.535160   -0.000000
       9       H    0.520297    0.000000
      10       C   -0.341359   -0.000000
      11       C   -1.284135   -0.000000
      12       H    0.477739    0.000000
      13       H    0.496574    0.000000
      14       H    0.460908    0.000000
      15       O    0.385960   -0.000000
      16       O    0.216592    0.000000
      17       O   -0.343373    0.000000
      18       H    0.702509   -0.000000
      19       H    0.653685   -0.000000
      20       O   -0.204361   -0.000000
      21       O    0.662172   -0.000000
----------------------------------------

 SCF time:  CPU 6812.82 s  wall 492.77 s


Starting CDFT-CI SCF calculation on state 2 ...

 Smallest overlap matrix eigenvalue = 2.42E-06
 Long-range K will be added via erf
 Coulomb attenuation parameter = 0.3 bohr**(-1)
 An unrestricted hybrid HF-DFT SCF calculation will be
 performed using Pulay DIIS extrapolation
 Polarizable Continuum solvation model will be applied
 Exchange:     0.1670 Hartree-Fock + 1.0000 Constrained DFT (Becke Weights) + 1.0000 wB97X-V + LR-HF
 Correlation:  1.0000 wB97X-V
 Using SG-2 standard quadrature grid
 Nonlocal Correlation:  VV10 with C = 0.0100 and b = 6.00
 Grid used for NLC:  SG-1 standard quadrature
 SCF converges when DIIS error is below 1.0E-08
 Maximum number of SCF iterations = 1000
CDFT-CI using the default guess for promolecules
 using 16 threads for integral computing
 -------------------------------------------------------
 OpenMP Integral computing Module                
 -------------------------------------------------------
 using 16 threads for integral computing
 -------------------------------------------------------
 OpenMP Integral computing Module                
 -------------------------------------------------------
 -------------------------------------------------------
 OpenMP BLAS3 based DFT computing Module                
 -------------------------------------------------------
 -------------------------------------------------------
 OpenMP BLAS3 based DFT computing Module                
 -------------------------------------------------------
 -------------------------------------------------------
 OpenMP BLAS3 based DFT computing Module                
 -------------------------------------------------------
 Number of grid points used for NLC = 60425
 One-Electron    Energy = -2465.0874282348
 Total Coulomb   Energy =  1113.5208173489
 Alpha Exchange  Energy =   -13.7159275617
 Beta  Exchange  Energy =   -13.7159275617
 DFT   Exchange  Energy =   -59.8026649416
 DFT Correlation Energy =    -3.7985050568
 Kinetic         Energy =   719.9476169738
 Nuclear Repu.   Energy =   720.3896148134
 Nuclear Attr.   Energy = -3185.0350452086
 Ewald QM/MM     Energy =     0.0000000000
 Poisson Solv.   Energy =     0.0000000000
 ---------------------------------------
  Cycle       Energy         DIIS Error
 ---------------------------------------
    1    -722.2100211944      3.11E-04  Gap = 4.75 eV 
 Inaccurate integrated density:
   Number of electrons =    98
   Numerical integral  =    97.983184298871
   Relative error      =    -0.0171588787 %
 Number of grid points used for NLC = 60688
 One-Electron    Energy = -2426.8728900996
 Total Coulomb   Energy =  1111.6650817454
 Alpha Exchange  Energy =   -13.6992517082
 Beta  Exchange  Energy =   -13.6992517082
 DFT   Exchange  Energy =   -59.7222617589
 DFT Correlation Energy =    -3.7918491010
 Kinetic         Energy =   755.8949505912
 Nuclear Repu.   Energy =   720.3896148134
 Nuclear Attr.   Energy = -3182.7678406908
 Ewald QM/MM     Energy =     0.0000000000
 Poisson Solv.   Energy =     0.0000000000
    2    -685.7308078172      2.09E-04  Gap = 5.24 eV 
 Inaccurate integrated density:
   Number of electrons =    98
   Numerical integral  =    97.982083592361
   Relative error      =    -0.0182820486 %
 Number of grid points used for NLC = 60721
 One-Electron    Energy = -2427.4714357661
 Total Coulomb   Energy =  1112.3436781195
 Alpha Exchange  Energy =   -13.7056202775
 Beta  Exchange  Energy =   -13.7056202775
 DFT   Exchange  Energy =   -59.7740986354
 DFT Correlation Energy =    -3.7932456366
 Kinetic         Energy =   756.4191458011
 Nuclear Repu.   Energy =   720.3896148134
 Nuclear Attr.   Energy = -3183.8905815672
 Ewald QM/MM     Energy =     0.0000000000
 Poisson Solv.   Energy =     0.0000000000
    3    -685.7167276602      9.18E-05  Gap = 5.22 eV 
 Inaccurate integrated density:
   Number of electrons =    98
   Numerical integral  =    97.980164981548
   Relative error      =    -0.0202398147 %
 Number of grid points used for NLC = 60759
 One-Electron    Energy = -2427.3285468974
 Total Coulomb   Energy =  1112.1272903258
 Alpha Exchange  Energy =   -13.7028841323
 Beta  Exchange  Energy =   -13.7028841323
 DFT   Exchange  Energy =   -59.7602587332
 DFT Correlation Energy =    -3.7923872702
 Kinetic         Energy =   756.2469414198
 Nuclear Repu.   Energy =   720.3896148134
 Nuclear Attr.   Energy = -3183.5754883173
 Ewald QM/MM     Energy =     0.0000000000
 Poisson Solv.   Energy =     0.0000000000
    4    -685.7700560263      4.63E-05  Gap = 5.27 eV 
 Inaccurate integrated density:
   Number of electrons =    98
   Numerical integral  =    97.979343650180
   Relative error      =    -0.0210779080 %
 Number of grid points used for NLC = 60776
 One-Electron    Energy = -2427.2805932968
 Total Coulomb   Energy =  1112.0440058474
 Alpha Exchange  Energy =   -13.7021443378
 Beta  Exchange  Energy =   -13.7021443378
 DFT   Exchange  Energy =   -59.7574018028
 DFT Correlation Energy =    -3.7920945586
 Kinetic         Energy =   756.1930965642
 Nuclear Repu.   Energy =   720.3896148134
 Nuclear Attr.   Energy = -3183.4736898609
 Ewald QM/MM     Energy =     0.0000000000
 Poisson Solv.   Energy =     0.0000000000
    5    -685.8007576730      1.56E-05  Gap = 5.29 eV 
 Inaccurate integrated density:
   Number of electrons =    98
   Numerical integral  =    97.978874967410
   Relative error      =    -0.0215561557 %
 Number of grid points used for NLC = 60785
 One-Electron    Energy = -2427.3052706932
 Total Coulomb   Energy =  1112.0598536359
 Alpha Exchange  Energy =   -13.7023469232
 Beta  Exchange  Energy =   -13.7023469232
 DFT   Exchange  Energy =   -59.7602034949
 DFT Correlation Energy =    -3.7920815648
 Kinetic         Energy =   756.2131381330
 Nuclear Repu.   Energy =   720.3896148134
 Nuclear Attr.   Energy = -3183.5184088262
 Ewald QM/MM     Energy =     0.0000000000
 Poisson Solv.   Energy =     0.0000000000
    6    -685.8127811501      5.84E-06  Gap = 5.29 eV 
 Inaccurate integrated density:
   Number of electrons =    98
   Numerical integral  =    97.978652767483
   Relative error      =    -0.0217828903 %
 Number of grid points used for NLC = 60791
 One-Electron    Energy = -2427.3005840706
 Total Coulomb   Energy =  1112.0498395985
 Alpha Exchange  Energy =   -13.7021750854
 Beta  Exchange  Energy =   -13.7021750854
 DFT   Exchange  Energy =   -59.7593995969
 DFT Correlation Energy =    -3.7920423706
 Kinetic         Energy =   756.2020024917
 Nuclear Repu.   Energy =   720.3896148134
 Nuclear Attr.   Energy = -3183.5025865623
 Ewald QM/MM     Energy =     0.0000000000
 Poisson Solv.   Energy =     0.0000000000
    7    -685.8169217969      2.80E-06  Gap = 5.29 eV 
 Inaccurate integrated density:
   Number of electrons =    98
   Numerical integral  =    97.978560627326
   Relative error      =    -0.0218769109 %
 Number of grid points used for NLC = 60791
 One-Electron    Energy = -2427.2987074781
 Total Coulomb   Energy =  1112.0455422077
 Alpha Exchange  Energy =   -13.7021621304
 Beta  Exchange  Energy =   -13.7021621304
 DFT   Exchange  Energy =   -59.7594322571
 DFT Correlation Energy =    -3.7920297407
 Kinetic         Energy =   756.2002034134
 Nuclear Repu.   Energy =   720.3896148134
 Nuclear Attr.   Energy = -3183.4989108914
 Ewald QM/MM     Energy =     0.0000000000
 Poisson Solv.   Energy =     0.0000000000
    8    -685.8193367155      1.53E-06  Gap = 5.29 eV 
 Inaccurate integrated density:
   Number of electrons =    98
   Numerical integral  =    97.978503569160
   Relative error      =    -0.0219351335 %
 Number of grid points used for NLC = 60793
 One-Electron    Energy = -2427.2990676907
 Total Coulomb   Energy =  1112.0446353086
 Alpha Exchange  Energy =   -13.7021583530
 Beta  Exchange  Energy =   -13.7021583530
 DFT   Exchange  Energy =   -59.7594750649
 DFT Correlation Energy =    -3.7920276815
 Kinetic         Energy =   756.1995372671
 Nuclear Repu.   Energy =   720.3896148134
 Nuclear Attr.   Energy = -3183.4986049578
 Ewald QM/MM     Energy =     0.0000000000
 Poisson Solv.   Energy =     0.0000000000
    9    -685.8206370211      7.29E-07  Gap = 5.29 eV 
 Inaccurate integrated density:
   Number of electrons =    98
   Numerical integral  =    97.978485023105
   Relative error      =    -0.0219540581 %
 Number of grid points used for NLC = 60794
 One-Electron    Energy = -2427.2997793286
 Total Coulomb   Energy =  1112.0451496716
 Alpha Exchange  Energy =   -13.7021568742
 Beta  Exchange  Energy =   -13.7021568742
 DFT   Exchange  Energy =   -59.7594743237
 DFT Correlation Energy =    -3.7920284252
 Kinetic         Energy =   756.1993682406
 Nuclear Repu.   Energy =   720.3896148134
 Nuclear Attr.   Energy = -3183.4991475691
 Ewald QM/MM     Energy =     0.0000000000
 Poisson Solv.   Energy =     0.0000000000
   10    -685.8208313410      3.45E-07  Gap = 5.29 eV 
 Inaccurate integrated density:
   Number of electrons =    98
   Numerical integral  =    97.978481253195
   Relative error      =    -0.0219579049 %
 Number of grid points used for NLC = 60792
 One-Electron    Energy = -2427.2995362006
 Total Coulomb   Energy =  1112.0447552765
 Alpha Exchange  Energy =   -13.7021588894
 Beta  Exchange  Energy =   -13.7021588894
 DFT   Exchange  Energy =   -59.7594808850
 DFT Correlation Energy =    -3.7920284242
 Kinetic         Energy =   756.1992451720
 Nuclear Repu.   Energy =   720.3896148134
 Nuclear Attr.   Energy = -3183.4987813727
 Ewald QM/MM     Energy =     0.0000000000
 Poisson Solv.   Energy =     0.0000000000
   11    -685.8209931986      1.40E-07  Gap = 5.29 eV 
 Inaccurate integrated density:
   Number of electrons =    98
   Numerical integral  =    97.978481794201
   Relative error      =    -0.0219573529 %
 Number of grid points used for NLC = 60792
 One-Electron    Energy = -2427.2994241474
 Total Coulomb   Energy =  1112.0446543772
 Alpha Exchange  Energy =   -13.7021577110
 Beta  Exchange  Energy =   -13.7021577110
 DFT   Exchange  Energy =   -59.7594670754
 DFT Correlation Energy =    -3.7920282366
 Kinetic         Energy =   756.1991296200
 Nuclear Repu.   Energy =   720.3896148134
 Nuclear Attr.   Energy = -3183.4985537674
 Ewald QM/MM     Energy =     0.0000000000
 Poisson Solv.   Energy =     0.0000000000
   12    -685.8209656909      6.13E-08  Gap = 5.29 eV 
 Inaccurate integrated density:
   Number of electrons =    98
   Numerical integral  =    97.978482038651
   Relative error      =    -0.0219571034 %
 Number of grid points used for NLC = 60792
 One-Electron    Energy = -2427.2994878952
 Total Coulomb   Energy =  1112.0447280089
 Alpha Exchange  Energy =   -13.7021584846
 Beta  Exchange  Energy =   -13.7021584846
 DFT   Exchange  Energy =   -59.7594712350
 DFT Correlation Energy =    -3.7920284502
 Kinetic         Energy =   756.1991682276
 Nuclear Repu.   Energy =   720.3896148134
 Nuclear Attr.   Energy = -3183.4986561228
 Ewald QM/MM     Energy =     0.0000000000
 Poisson Solv.   Energy =     0.0000000000
   13    -685.8209617273      2.60E-08  Gap = 5.29 eV 
 Inaccurate integrated density:
   Number of electrons =    98
   Numerical integral  =    97.978482047706
   Relative error      =    -0.0219570942 %
 Number of grid points used for NLC = 60792
 One-Electron    Energy = -2427.2994888380
 Total Coulomb   Energy =  1112.0447302382
 Alpha Exchange  Energy =   -13.7021585253
 Beta  Exchange  Energy =   -13.7021585253
 DFT   Exchange  Energy =   -59.7594715520
 DFT Correlation Energy =    -3.7920284601
 Kinetic         Energy =   756.1991717966
 Nuclear Repu.   Energy =   720.3896148134
 Nuclear Attr.   Energy = -3183.4986606347
 Ewald QM/MM     Energy =     0.0000000000
 Poisson Solv.   Energy =     0.0000000000
   14    -685.8209608491      1.06E-08  Gap = 5.29 eV 
 Inaccurate integrated density:
   Number of electrons =    98
   Numerical integral  =    97.978482007458
   Relative error      =    -0.0219571352 %
 Number of grid points used for NLC = 60792
 One-Electron    Energy = -2427.2994760637
 Total Coulomb   Energy =  1112.0447153852
 Alpha Exchange  Energy =   -13.7021583937
 Beta  Exchange  Energy =   -13.7021583937
 DFT   Exchange  Energy =   -59.7594706975
 DFT Correlation Energy =    -3.7920284067
 Kinetic         Energy =   756.1991627347
 Nuclear Repu.   Energy =   720.3896148134
 Nuclear Attr.   Energy = -3183.4986387984
 Ewald QM/MM     Energy =     0.0000000000
 Poisson Solv.   Energy =     0.0000000000
CDFTCI weight 0=     0.0000000000
CDFTCI weight 1=     0.0000000000
   15    -685.8209617568      5.13E-09 Convergence criterion met
 ---------------------------------------
 One-Electron    Energy = -2427.2994760637
 Total Coulomb   Energy =  1112.0447153852
 Alpha Exchange  Energy =   -13.7021583937
 Beta  Exchange  Energy =   -13.7021583937
 DFT   Exchange  Energy =   -59.7594706975
 DFT Correlation Energy =    -3.7920284067
 Nuclear Repu.   Energy =   720.3896148134
 Nuclear Attr.   Energy = -3183.4986387984
 Kinetic         Energy =   756.1991627347

************** Final PCM Free Energy Summary **************
 G_electrostatic  =      -0.57647225 hartree =    -361.74179910 kcal/mol
 G_cavitation     =       0.00000000 hartree =       0.00000000 kcal/mol
 G_dispersion     =       0.00000000 hartree =       0.00000000 kcal/mol
 G_repulsion      =       0.00000000 hartree =       0.00000000 kcal/mol
 --------------------------------------------------
 Non-electrostatic Free Energy =       0.00000000 hartree =       0.00000000 kcal/mol
 Total                         =      -0.57647225 hartree =    -361.74179910 kcal/mol
 --------------------------------------------------
 SCF Energy (H0 + V/2)                       =    -685.82096176 
 Solute Internal Energy (H0)                 =    -685.24448950 
 Total Free Energy (H0 + V/2 + non-elec)     =    -685.82096176 hartree
                                             = -430359.14891270 kcal/mol
***********************************************************

 <S^2> = 0.0000
 SCF time:  CPU 5484.28 s  wall 5398.76 s


CDFT-CI fragment calculation complete,
beginning diabatic state SCF calculation.

 Smallest overlap matrix eigenvalue = 2.42E-06
 Guess from superposition of atomic densities
 Warning:  Energy on first SCF cycle will be non-variational
 SAD guess density has 95.000000 electrons
 Long-range K will be added via erf
 Coulomb attenuation parameter = 0.3 bohr**(-1)
 An unrestricted hybrid HF-DFT SCF calculation will be
 performed using Pulay DIIS extrapolation
 Polarizable Continuum solvation model will be applied
 Exchange:     0.1670 Hartree-Fock + 1.0000 Constrained DFT (Becke Weights) + 1.0000 wB97X-V + LR-HF
 Correlation:  1.0000 wB97X-V
 Using SG-2 standard quadrature grid
 Nonlocal Correlation:  VV10 with C = 0.0100 and b = 6.00
 Grid used for NLC:  SG-1 standard quadrature
 SCF converges when DIIS error is below 1.0E-08
 Maximum number of SCF iterations = 1000
CDFT-CI using the default guess
 using 16 threads for integral computing
 -------------------------------------------------------
 OpenMP Integral computing Module                
 Release: version 1.0, May 2013, Q-Chem Inc. Pittsburgh 
 -------------------------------------------------------
 using 16 threads for integral computing
 -------------------------------------------------------
 OpenMP Integral computing Module                
 Release: version 1.0, May 2013, Q-Chem Inc. Pittsburgh 
 -------------------------------------------------------
 -------------------------------------------------------
 OpenMP BLAS3 based DFT computing Module                
 Release: version 1.0, May 2013, Q-Chem Inc. Pittsburgh 
 -------------------------------------------------------
 -------------------------------------------------------
 OpenMP BLAS3 based DFT computing Module                
 Release: version 1.0, May 2013, Q-Chem Inc. Pittsburgh 
 -------------------------------------------------------
 -------------------------------------------------------
 OpenMP BLAS3 based DFT computing Module                
 Release: version 1.0, May 2013, Q-Chem Inc. Pittsburgh 
 -------------------------------------------------------
 One-Electron    Energy = -2412.5250614736
 Total Coulomb   Energy =  1056.9362270209
 Alpha Exchange  Energy =   -13.5540786299
 Beta  Exchange  Energy =   -13.5540786299
 DFT   Exchange  Energy =   -58.3155239579
 DFT Correlation Energy =    -3.6821184496
 Kinetic         Energy =   709.5832289158
 Nuclear Repu.   Energy =   720.3896148134
 Nuclear Attr.   Energy = -3122.1082903893
 Ewald QM/MM     Energy =     0.0000000000
 Poisson Solv.   Energy =     0.0000000000
 -------------------------------------------------------
 OpenMP BLAS3 based DFT computing Module                
 Release: version 1.0, May 2013, Q-Chem Inc. Pittsburgh 
 -------------------------------------------------------
 -------------------------------------------------------
 OpenMP BLAS3 based DFT computing Module                
 Release: version 1.0, May 2013, Q-Chem Inc. Pittsburgh 
 -------------------------------------------------------
Constraint 0 : 0.0000000000
Constraint 1 : 0.0000000000
 ---------------------------------------
  Cycle       Energy         DIIS Error
 ---------------------------------------
    1    -724.3050193067      1.94E-02  Gap = 6.58 eV 
 One-Electron    Energy = -2477.0263955794
 Total Coulomb   Energy =  1126.8186944780
 Alpha Exchange  Energy =   -13.8771468472
 Beta  Exchange  Energy =   -13.8771468472
 DFT   Exchange  Energy =   -60.9481934986
 DFT Correlation Energy =    -3.8445779058
 Kinetic         Energy =   729.3841919778
 Nuclear Repu.   Energy =   720.3896148134
 Nuclear Attr.   Energy = -3206.4105875572
 Ewald QM/MM     Energy =     0.0000000000
 Poisson Solv.   Energy =     0.0000000000
    2    -722.3651513868      3.83E-03  Gap = 4.60 eV 
 One-Electron    Energy = -2456.2372943608
 Total Coulomb   Energy =  1103.1606090408
 Alpha Exchange  Energy =   -13.5709015555
 Beta  Exchange  Energy =   -13.5709015555
 DFT   Exchange  Energy =   -58.7903491253
 DFT Correlation Energy =    -3.7701392853
 Kinetic         Energy =   709.6305891266
 Nuclear Repu.   Energy =   720.3896148134
 Nuclear Attr.   Energy = -3165.8678834874
 Ewald QM/MM     Energy =     0.0000000000
 Poisson Solv.   Energy =     0.0000000000
    3    -722.3893620282      4.14E-03  Gap = 8.64 eV 
 One-Electron    Energy = -2465.0922307771
 Total Coulomb   Energy =  1112.8775027410
 Alpha Exchange  Energy =   -13.7105514654
 Beta  Exchange  Energy =   -13.7105514654
 DFT   Exchange  Energy =   -59.7574953306
 DFT Correlation Energy =    -3.7982043529
 Kinetic         Energy =   718.8198876835
 Nuclear Repu.   Energy =   720.3896148134
 Nuclear Attr.   Energy = -3183.9121184607
 Ewald QM/MM     Energy =     0.0000000000
 Poisson Solv.   Energy =     0.0000000000
    4    -722.8019158370      4.23E-04  Gap = 8.74 eV 
 One-Electron    Energy = -2465.8132778601
 Total Coulomb   Energy =  1113.6541625394
 Alpha Exchange  Energy =   -13.7161705113
 Beta  Exchange  Energy =   -13.7161705113
 DFT   Exchange  Energy =   -59.8048034411
 DFT Correlation Energy =    -3.7994284590
 Kinetic         Energy =   719.3710401828
 Nuclear Repu.   Energy =   720.3896148134
 Nuclear Attr.   Energy = -3185.1843180429
 Ewald QM/MM     Energy =     0.0000000000
 Poisson Solv.   Energy =     0.0000000000
    5    -722.8060734301      2.02E-04  Gap = 8.86 eV 
 One-Electron    Energy = -2465.6350516777
 Total Coulomb   Energy =  1113.4638532138
 Alpha Exchange  Energy =   -13.7151841634
 Beta  Exchange  Energy =   -13.7151841634
 DFT   Exchange  Energy =   -59.7964109294
 DFT Correlation Energy =    -3.7987340769
 Kinetic         Energy =   719.2885264894
 Nuclear Repu.   Energy =   720.3896148134
 Nuclear Attr.   Energy = -3184.9235781671
 Ewald QM/MM     Energy =     0.0000000000
 Poisson Solv.   Energy =     0.0000000000
    6    -722.8070969835      7.34E-05  Gap = 8.89 eV 
 One-Electron    Energy = -2465.5957690162
 Total Coulomb   Energy =  1113.4276286802
 Alpha Exchange  Energy =   -13.7155914385
 Beta  Exchange  Energy =   -13.7155914385
 DFT   Exchange  Energy =   -59.7990098746
 DFT Correlation Energy =    -3.7985252527
 Kinetic         Energy =   719.3151807434
 Nuclear Repu.   Energy =   720.3896148134
 Nuclear Attr.   Energy = -3184.9109497596
 Ewald QM/MM     Energy =     0.0000000000
 Poisson Solv.   Energy =     0.0000000000
    7    -722.8072435269      2.31E-05  Gap = 8.91 eV 
 One-Electron    Energy = -2465.6243523163
 Total Coulomb   Energy =  1113.4590567238
 Alpha Exchange  Energy =   -13.7158962887
 Beta  Exchange  Energy =   -13.7158962887
 DFT   Exchange  Energy =   -59.8012061790
 DFT Correlation Energy =    -3.7985820157
 Kinetic         Energy =   719.3357957004
 Nuclear Repu.   Energy =   720.3896148134
 Nuclear Attr.   Energy = -3184.9601480167
 Ewald QM/MM     Energy =     0.0000000000
 Poisson Solv.   Energy =     0.0000000000
    8    -722.8072615513      7.35E-06  Gap = 8.90 eV 
 One-Electron    Energy = -2465.6228591510
 Total Coulomb   Energy =  1113.4572407824
 Alpha Exchange  Energy =   -13.7158686034
 Beta  Exchange  Energy =   -13.7158686034
 DFT   Exchange  Energy =   -59.8009629514
 DFT Correlation Energy =    -3.7985599148
 Kinetic         Energy =   719.3331523072
 Nuclear Repu.   Energy =   720.3896148134
 Nuclear Attr.   Energy = -3184.9560114583
 Ewald QM/MM     Energy =     0.0000000000
 Poisson Solv.   Energy =     0.0000000000
    9    -722.8072636284      2.80E-06  Gap = 8.90 eV 
 One-Electron    Energy = -2465.6188797573
 Total Coulomb   Energy =  1113.4531550033
 Alpha Exchange  Energy =   -13.7158583563
 Beta  Exchange  Energy =   -13.7158583563
 DFT   Exchange  Energy =   -59.8008910623
 DFT Correlation Energy =    -3.7985463091
 Kinetic         Energy =   719.3325831746
 Nuclear Repu.   Energy =   720.3896148134
 Nuclear Attr.   Energy = -3184.9514629319
 Ewald QM/MM     Energy =     0.0000000000
 Poisson Solv.   Energy =     0.0000000000
   10    -722.8072640246      8.13E-07  Gap = 8.90 eV 
 One-Electron    Energy = -2465.6187609508
 Total Coulomb   Energy =  1113.4530544538
 Alpha Exchange  Energy =   -13.7158601683
 Beta  Exchange  Energy =   -13.7158601683
 DFT   Exchange  Energy =   -59.8009075062
 DFT Correlation Energy =    -3.7985445444
 Kinetic         Energy =   719.3327764826
 Nuclear Repu.   Energy =   720.3896148134
 Nuclear Attr.   Energy = -3184.9515374334
 Ewald QM/MM     Energy =     0.0000000000
 Poisson Solv.   Energy =     0.0000000000
   11    -722.8072640710      3.90E-07  Gap = 8.90 eV 
 One-Electron    Energy = -2465.6188241912
 Total Coulomb   Energy =  1113.4531091233
 Alpha Exchange  Energy =   -13.7158591581
 Beta  Exchange  Energy =   -13.7158591581
 DFT   Exchange  Energy =   -59.8009011739
 DFT Correlation Energy =    -3.7985443358
 Kinetic         Energy =   719.3327064482
 Nuclear Repu.   Energy =   720.3896148134
 Nuclear Attr.   Energy = -3184.9515306395
 Ewald QM/MM     Energy =     0.0000000000
 Poisson Solv.   Energy =     0.0000000000
   12    -722.8072640805      1.11E-07  Gap = 8.90 eV 
 One-Electron    Energy = -2465.6188958307
 Total Coulomb   Energy =  1113.4531927474
 Alpha Exchange  Energy =   -13.7158603520
 Beta  Exchange  Energy =   -13.7158603520
 DFT   Exchange  Energy =   -59.8009105274
 DFT Correlation Energy =    -3.7985445809
 Kinetic         Energy =   719.3328035811
 Nuclear Repu.   Energy =   720.3896148134
 Nuclear Attr.   Energy = -3184.9516994118
 Ewald QM/MM     Energy =     0.0000000000
 Poisson Solv.   Energy =     0.0000000000
   13    -722.8072640822      4.18E-08  Gap = 8.90 eV 
 One-Electron    Energy = -2465.6188430558
 Total Coulomb   Energy =  1113.4531353082
 Alpha Exchange  Energy =   -13.7158599438
 Beta  Exchange  Energy =   -13.7158599438
 DFT   Exchange  Energy =   -59.8009068298
 DFT Correlation Energy =    -3.7985444309
 Kinetic         Energy =   719.3327634952
 Nuclear Repu.   Energy =   720.3896148134
 Nuclear Attr.   Energy = -3184.9516065510
 Ewald QM/MM     Energy =     0.0000000000
 Poisson Solv.   Energy =     0.0000000000
   14    -722.8072640824      1.70E-08  Gap = 8.90 eV 
 One-Electron    Energy = -2465.6188629218
 Total Coulomb   Energy =  1113.4531558306
 Alpha Exchange  Energy =   -13.7158600319
 Beta  Exchange  Energy =   -13.7158600319
 DFT   Exchange  Energy =   -59.8009072455
 DFT Correlation Energy =    -3.7985444953
 Kinetic         Energy =   719.3327667893
 Nuclear Repu.   Energy =   720.3896148134
 Nuclear Attr.   Energy = -3184.9516297111
 Ewald QM/MM     Energy =     0.0000000000
 Poisson Solv.   Energy =     0.0000000000
Lam   0.0000000000000000
Lam   0.0000000000000000
Final Multiplier 1:       0.0000       0.0000000 
Final Multiplier 2:       0.0000       0.0000000 
   15    -722.8072640824      8.50E-09 Convergence criterion met
 ---------------------------------------
 One-Electron    Energy = -2465.6188629218
 Total Coulomb   Energy =  1113.4531558306
 Alpha Exchange  Energy =   -13.7158600319
 Beta  Exchange  Energy =   -13.7158600319
 DFT   Exchange  Energy =   -59.8009072455
 DFT Correlation Energy =    -3.7985444953
 Nuclear Repu.   Energy =   720.3896148134
 Nuclear Attr.   Energy = -3184.9516297111
 Kinetic         Energy =   719.3327667893

************** Final PCM Free Energy Summary **************
 G_electrostatic  =      -0.59732959 hartree =    -374.82997480 kcal/mol
 G_cavitation     =       0.00000000 hartree =       0.00000000 kcal/mol
 G_dispersion     =       0.00000000 hartree =       0.00000000 kcal/mol
 G_repulsion      =       0.00000000 hartree =       0.00000000 kcal/mol
 --------------------------------------------------
 Non-electrostatic Free Energy =       0.00000000 hartree =       0.00000000 kcal/mol
 Total                         =      -0.59732959 hartree =    -374.82997480 kcal/mol
 --------------------------------------------------
 SCF Energy (H0 + V/2)                       =    -722.80726408 
 Solute Internal Energy (H0)                 =    -722.20993449 
 Total Free Energy (H0 + V/2 + non-elec)     =    -722.80726408 hartree
                                             = -453568.40391932 kcal/mol
***********************************************************

 <S^2> = 0.0000

                  CDFT Becke Populations
----------------------------------------
            Atom  Net Number    Net Spin
       1       C   -0.898430    0.000000
       2       C   -0.307654   -0.000000
       3       O    0.591422   -0.000000
       4       O    0.559405   -0.000000
       5       C   -0.908885   -0.000000
       6       H    0.495119   -0.000000
       7       H    0.519758    0.000000
       8       H    0.534510    0.000000
       9       H    0.519542    0.000000
      10       C   -0.341658    0.000000
      11       C   -1.284609    0.000000
      12       H    0.474775   -0.000000
      13       H    0.493842   -0.000000
      14       H    0.459650    0.000000
      15       O    0.384199   -0.000000
      16       O    0.211989    0.000000
      17       O   -0.348387    0.000000
      18       H    0.699491    0.000000
      19       H    0.662612    0.000000
      20       O   -0.196851   -0.000000
      21       O    0.670370    0.000000
----------------------------------------

 SCF time:  CPU 6380.06 s  wall 458.30 s


Starting CDFT-CI SCF calculation on state 3 ...

 Smallest overlap matrix eigenvalue = 2.42E-06
 Smallest overlap matrix eigenvalue = 2.42E-06
 Long-range K will be added via erf
 Coulomb attenuation parameter = 0.3 bohr**(-1)
 An unrestricted hybrid HF-DFT SCF calculation will be
 performed using Pulay DIIS extrapolation
 Polarizable Continuum solvation model will be applied
 Exchange:     0.1670 Hartree-Fock + 1.0000 Constrained DFT (Becke Weights) + 1.0000 wB97X-V + LR-HF
 Correlation:  1.0000 wB97X-V
 Using SG-2 standard quadrature grid
 Nonlocal Correlation:  VV10 with C = 0.0100 and b = 6.00
 Grid used for NLC:  SG-1 standard quadrature
 SCF converges when DIIS error is below 1.0E-08
 Maximum number of SCF iterations = 1000
CDFT-CI using the default guess for promolecules
 using 16 threads for integral computing
 -------------------------------------------------------
 OpenMP Integral computing Module                
 -------------------------------------------------------
 using 16 threads for integral computing
 -------------------------------------------------------
 OpenMP Integral computing Module                
 -------------------------------------------------------
 -------------------------------------------------------
 OpenMP BLAS3 based DFT computing Module                
 -------------------------------------------------------
 Inaccurate integrated density:
   Number of electrons =    98
   Numerical integral  =    99.789100976265
   Relative error      =     1.8256132411 %
 -------------------------------------------------------
 OpenMP BLAS3 based DFT computing Module                
 -------------------------------------------------------
 Inaccurate integrated density:
   Number of electrons =    98
   Numerical integral  =    99.801198058971
   Relative error      =     1.8379572030 %
 -------------------------------------------------------
 OpenMP BLAS3 based DFT computing Module                
 -------------------------------------------------------
 Number of grid points used for NLC = 59805
 Inaccurate integrated density:
   Number of electrons =    98
   Numerical integral  =    99.801198058971
   Relative error      =     1.8379572030 %
 One-Electron    Energy = -1956.9341085885
 Total Coulomb   Energy =   862.4071721107
 Alpha Exchange  Energy =   -14.0056813166
 Beta  Exchange  Energy =   -14.0056813176
 DFT   Exchange  Energy =   -59.9391504665
 DFT Correlation Energy =    -3.8371503962
 Kinetic         Energy =     7.6059126566
 Nuclear Repu.   Energy =   462.9475723691
 Nuclear Attr.   Energy = -1964.5400212451
 Ewald QM/MM     Energy =     0.0000000000
 Poisson Solv.   Energy =     0.0000000000
 ---------------------------------------
  Cycle       Energy         DIIS Error
 ---------------------------------------
    1    -723.3670276057      4.46E+01  Gap = 2.78 eV 
 Inaccurate integrated density:
   Number of electrons =    98
   Numerical integral  =    97.864309923837
   Relative error      =    -0.1384592614 %
 Number of grid points used for NLC = 60701
 One-Electron    Energy = -1890.8972034540
 Total Coulomb   Energy =   830.4722740708
 Alpha Exchange  Energy =   -13.5916250628
 Beta  Exchange  Energy =   -13.5515322979
 DFT   Exchange  Energy =   -59.1272900681
 DFT Correlation Energy =    -3.7106595967
 Kinetic         Energy =    62.6673447104
 Nuclear Repu.   Energy =   462.9475723691
 Nuclear Attr.   Energy = -1953.5645481644
 Ewald QM/MM     Energy =     0.0000000000
 Poisson Solv.   Energy =     0.0000000000
    2    -687.4584640396      1.01E+01  Gap = 2.25 eV 
 Inaccurate integrated density:
   Number of electrons =    98
   Numerical integral  =    97.978987845064
   Relative error      =    -0.0214409744 %
 Number of grid points used for NLC = 60197
 One-Electron    Energy = -1902.5832862568
 Total Coulomb   Energy =   851.4836484163
 Alpha Exchange  Energy =   -13.7141232567
 Beta  Exchange  Energy =   -13.6927213928
 DFT   Exchange  Energy =   -59.9777957163
 DFT Correlation Energy =    -3.7840036052
 Kinetic         Energy =    74.8216831689
 Nuclear Repu.   Energy =   462.9475723691
 Nuclear Attr.   Energy = -1977.4049694257
 Ewald QM/MM     Energy =     0.0000000000
 Poisson Solv.   Energy =     0.0000000000
    3    -679.3207094425      1.06E+01  Gap = 4.15 eV 
 Inaccurate integrated density:
   Number of electrons =    98
   Numerical integral  =    97.925806486086
   Relative error      =    -0.0757076673 %
 Number of grid points used for NLC = 60442
 One-Electron    Energy = -1899.4784910632
 Total Coulomb   Energy =   841.4774054170
 Alpha Exchange  Energy =   -13.7121508955
 Beta  Exchange  Energy =   -13.6601448192
 DFT   Exchange  Energy =   -59.8230367775
 DFT Correlation Energy =    -3.7484903691
 Kinetic         Energy =    64.3957132467
 Nuclear Repu.   Energy =   462.9475723691
 Nuclear Attr.   Energy = -1963.8742043099
 Ewald QM/MM     Energy =     0.0000000000
 Poisson Solv.   Energy =     0.0000000000
    4    -685.9973361385      5.63E+00  Gap = 0.44 eV 
 Inaccurate integrated density:
   Number of electrons =    98
   Numerical integral  =    97.952939872177
   Relative error      =    -0.0480205386 %
 Number of grid points used for NLC = 60348
 One-Electron    Energy = -1896.4182555930
 Total Coulomb   Energy =   838.3084249493
 Alpha Exchange  Energy =   -13.6508478154
 Beta  Exchange  Energy =   -13.6328244219
 DFT   Exchange  Energy =   -59.4515080708
 DFT Correlation Energy =    -3.7395769953
 Kinetic         Energy =    63.7605961923
 Nuclear Repu.   Energy =   462.9475723691
 Nuclear Attr.   Energy = -1960.1788517853
 Ewald QM/MM     Energy =     0.0000000000
 Poisson Solv.   Energy =     0.0000000000
    5    -685.6370155781      3.12E+00  Gap = 3.34 eV 
 Inaccurate integrated density:
   Number of electrons =    98
   Numerical integral  =    97.973755828224
   Relative error      =    -0.0267797671 %
 Number of grid points used for NLC = 60100
 One-Electron    Energy = -1899.6009322523
 Total Coulomb   Energy =   842.2295145888
 Alpha Exchange  Energy =   -13.6865877911
 Beta  Exchange  Energy =   -13.6862167028
 DFT   Exchange  Energy =   -59.7273272024
 DFT Correlation Energy =    -3.7520390796
 Kinetic         Energy =    65.3986621810
 Nuclear Repu.   Energy =   462.9475723691
 Nuclear Attr.   Energy = -1964.9995944333
 Ewald QM/MM     Energy =     0.0000000000
 Poisson Solv.   Energy =     0.0000000000
    6    -685.2760160704      1.27E+00  Gap = 0.80 eV 
 Inaccurate integrated density:
   Number of electrons =    98
   Numerical integral  =    97.970032669268
   Relative error      =    -0.0305789089 %
 Number of grid points used for NLC = 60043
 One-Electron    Energy = -1897.7815207582
 Total Coulomb   Energy =   840.3252912387
 Alpha Exchange  Energy =   -13.6489653083
 Beta  Exchange  Energy =   -13.6618660280
 DFT   Exchange  Energy =   -59.5090978664
 DFT Correlation Energy =    -3.7439949367
 Kinetic         Energy =    64.2639663993
 Nuclear Repu.   Energy =   462.9475723691
 Nuclear Attr.   Energy = -1962.0454871575
 Ewald QM/MM     Energy =     0.0000000000
 Poisson Solv.   Energy =     0.0000000000
    7    -685.0725812898      2.91E-01  Gap = 3.49 eV 
 Inaccurate integrated density:
   Number of electrons =    98
   Numerical integral  =    97.979293003715
   Relative error      =    -0.0211295880 %
 Number of grid points used for NLC = 59972
 One-Electron    Energy = -1899.6029392384
 Total Coulomb   Energy =   842.3082195999
 Alpha Exchange  Energy =   -13.6773214889
 Beta  Exchange  Energy =   -13.6927124466
 DFT   Exchange  Energy =   -59.6912243187
 DFT Correlation Energy =    -3.7512863400
 Kinetic         Energy =    65.0998708580
 Nuclear Repu.   Energy =   462.9475723691
 Nuclear Attr.   Energy = -1964.7028100964
 Ewald QM/MM     Energy =     0.0000000000
 Poisson Solv.   Energy =     0.0000000000
    8    -685.1596918636      3.51E-01  Gap = 2.62 eV 
 Inaccurate integrated density:
   Number of electrons =    98
   Numerical integral  =    97.977836832554
   Relative error      =    -0.0226154770 %
 Number of grid points used for NLC = 59951
 One-Electron    Energy = -1899.3405662932
 Total Coulomb   Energy =   842.0162061792
 Alpha Exchange  Energy =   -13.6704580154
 Beta  Exchange  Energy =   -13.6906947834
 DFT   Exchange  Energy =   -59.6561222048
 DFT Correlation Energy =    -3.7491197385
 Kinetic         Energy =    65.1118527695
 Nuclear Repu.   Energy =   462.9475723691
 Nuclear Attr.   Energy = -1964.4524190627
 Ewald QM/MM     Energy =     0.0000000000
 Poisson Solv.   Energy =     0.0000000000
    9    -685.1431824870      5.76E-02  Gap = 3.26 eV 
 Inaccurate integrated density:
   Number of electrons =    98
   Numerical integral  =    97.980341055742
   Relative error      =    -0.0200601472 %
 Number of grid points used for NLC = 59938
 One-Electron    Energy = -1899.4788628802
 Total Coulomb   Energy =   842.1829877871
 Alpha Exchange  Energy =   -13.6723197067
 Beta  Exchange  Energy =   -13.6938529833
 DFT   Exchange  Energy =   -59.6645718217
 DFT Correlation Energy =    -3.7501237832
 Kinetic         Energy =    64.9046004496
 Nuclear Repu.   Energy =   462.9475723691
 Nuclear Attr.   Energy = -1964.3834633298
 Ewald QM/MM     Energy =     0.0000000000
 Poisson Solv.   Energy =     0.0000000000
   10    -685.1291710189      3.40E-02  Gap = 2.85 eV 
 Inaccurate integrated density:
   Number of electrons =    98
   Numerical integral  =    97.978685121755
   Relative error      =    -0.0217498758 %
 Number of grid points used for NLC = 59949
 One-Electron    Energy = -1899.4339255942
 Total Coulomb   Energy =   842.1158442677
 Alpha Exchange  Energy =   -13.6714152432
 Beta  Exchange  Energy =   -13.6922259521
 DFT   Exchange  Energy =   -59.6605151068
 DFT Correlation Energy =    -3.7494122402
 Kinetic         Energy =    64.9614290606
 Nuclear Repu.   Energy =   462.9475723691
 Nuclear Attr.   Energy = -1964.3953546548
 Ewald QM/MM     Energy =     0.0000000000
 Poisson Solv.   Energy =     0.0000000000
[...]
 G_dispersion     =       0.00000000 hartree =       0.00000000 kcal/mol
 G_repulsion      =       0.00000000 hartree =       0.00000000 kcal/mol
 --------------------------------------------------
 Non-electrostatic Free Energy =       0.00000000 hartree =       0.00000000 kcal/mol
 Total                         =      -0.57056341 hartree =    -358.03394542 kcal/mol
 --------------------------------------------------
 SCF Energy (H0 + V/2)                       =    -722.68545582 
 Solute Internal Energy (H0)                 =    -722.11489240 
 Total Free Energy (H0 + V/2 + non-elec)     =    -722.68545582 hartree
                                             = -453491.96807846 kcal/mol
***********************************************************

 <S^2> = 0.6480

                  CDFT Becke Populations
----------------------------------------
            Atom  Net Number    Net Spin
       1       C   -0.898633   -0.005669
       2       C   -0.307203   -0.001172
       3       O    0.592353   -0.001509
       4       O    0.560585   -0.002287
       5       C   -0.909686   -0.017667
       6       H    0.510305   -0.015473
       7       H    0.523631   -0.009147
       8       H    0.536136   -0.001021
       9       H    0.527697   -0.016971
      10       C   -0.338300   -0.028969
      11       C   -1.281651   -0.025046
      12       H    0.508108   -0.038847
      13       H    0.593536   -0.099316
      14       H    0.536570   -0.079565
      15       O    0.357771   -0.185080
      16       O    0.223905   -0.440316
      17       O   -0.364235    0.501703
      18       H    0.733031    0.169199
      19       H    0.637415    0.000282
      20       O   -0.272726    0.124948
      21       O    0.521439    0.172316
----------------------------------------

 SCF time:  CPU 11440.75 s  wall 842.56 s
CDFT-CI using one-electron coupling
 CDFT-CI overlap matrix
               1               2               3               4
    1    1.0000000000    0.9992050368   -0.9239638493   -0.9239638490
    2    0.9992050368    1.0000000000   -0.9244881136   -0.9244881133
    3   -0.9239638493   -0.9244881136    1.0000000000    0.7561708293
    4   -0.9239638490   -0.9244881133    0.7561708293    1.0000000000
    5   -0.4663526705   -0.4670971052    0.4328350962    0.4320316520
    6   -0.4663509406   -0.4670953822    0.4320300591    0.4328334963
    7   -0.7768602461   -0.7764128762    0.7308522199    0.7055358564
    8    0.7720256747    0.7716585745   -0.7010131146   -0.7264333878
               5               6               7               8
    1   -0.4663526705   -0.4663509406   -0.7768602461    0.7720256747
    2   -0.4670971052   -0.4670953822   -0.7764128762    0.7716585745
    3    0.4328350962    0.4320300591    0.7308522199   -0.7010131146
    4    0.4320316520    0.4328334963    0.7055358564   -0.7264333878
    5    1.0000000000    0.2221849757    0.4341673047   -0.3621658021
    6    0.2221849757    1.0000000000    0.3643360103   -0.4326808582
    7    0.4341673047    0.3643360103    1.0000000000   -0.4850271200
    8   -0.3621658021   -0.4326808582   -0.4850271200    1.0000000000
 CDFT-CI Hamiltonian matrix in non-orthogonal basis
               1               2               3               4
    1 -722.8065732646 -722.2326588306  667.8477552785  667.8477550805
    2 -722.2326588306 -722.8072640824  668.2267423389  668.2267421407
    3  667.8477552785  668.2267423389 -722.7424994477 -546.6076311704
    4  667.8477550805  668.2267421407 -546.6076311704 -722.7424994475
    5  337.0739911938  337.6123757587 -312.8479956348 -312.2673952876
    6  337.0727408414  337.6111303723 -312.2662439369 -312.8468392128
    7  561.5186731251  561.1956714903 -528.2606364307 -509.9685229204
    8 -558.0241977150 -557.7591865714  506.6994526282  525.0666313839
               5               6               7               8
    1  337.0739911938  337.0727408414  561.5186731251 -558.0241977150
    2  337.6123757587  337.6111303723  561.1956714903 -557.7591865714
    3 -312.8479956348 -312.2662439369 -528.2606364307  506.6994526282
    4 -312.2673952876 -312.8468392128 -509.9685229204  525.0666313839
    5 -722.6561952943 -160.5885978607 -313.7969824013  261.7690142523
    6 -160.5885978607 -722.6561950745 -263.3376232283  312.7224919862
    7 -313.7969824013 -263.3376232283 -722.6881623296  350.6125202899
    8  261.7690142523  312.7224919862  350.6125202899 -722.6854558160
 CDFT-CI Hamiltonian matrix in orthogonalized basis
            1           2           3           4           5           6
    1-722.4754739  -0.1108928   0.1061379   0.1061867  -0.0020017  -0.0020463
    2  -0.1108928-722.4911465   0.1076461   0.1076480   0.0113286   0.0113111
    3   0.1061379   0.1076461-722.4249626  -0.0558121  -0.0092251  -0.0093634
    4   0.1061867   0.1076480  -0.0558121-722.4250018  -0.0093717  -0.0092143
    5  -0.0020017   0.0113286  -0.0092251  -0.0093717-722.6254206  -0.0015772
    6  -0.0020463   0.0113111  -0.0093634  -0.0092143  -0.0015772-722.6254010
    7   0.0389531   0.0380876  -0.0417769  -0.0354743  -0.0089142  -0.0071960
    8  -0.0389938  -0.0379275   0.0352117   0.0414620   0.0071921   0.0090801
            7           8
    1   0.0389531  -0.0389938
    2   0.0380876  -0.0379275
    3  -0.0417769   0.0352117
    4  -0.0354743   0.0414620
    5  -0.0089142   0.0071921
    6  -0.0071960   0.0090801
    7-722.5333498   0.0210631
    8   0.0210631-722.5317920
 dipole x component in nonorthogonal basis
            1           2           3           4           5           6
    1  -1.7622190  -1.7176068   1.7252688   1.7252688   0.9460904   0.9460873
    2  -1.7176068  -1.6724946   1.6831255   1.6831255   0.9141299   0.9141269
    3   1.7252688   1.6831255  -2.2459340  -1.4112455  -0.9206908  -0.9080964
    4   1.7252688   1.6831255  -1.4112455  -2.2459340  -0.9080994  -0.9206878
    5   0.9460904   0.9141299  -0.9206908  -0.9080994 -10.3133705  -0.4354481
    6   0.9460873   0.9141269  -0.9080964  -0.9206878  -0.4354481 -10.3133908
    7   1.3074712   1.2689671  -1.2926301  -1.2709055  -0.6761939  -0.6562658
    8  -1.3114859  -1.2731819   1.2738152   1.2954762   0.6575873   0.6780467
            7           8
    1   1.3074712  -1.3114859
    2   1.2689671  -1.2731819
    3  -1.2926301   1.2738152
    4  -1.2709055   1.2954762
    5  -0.6761939   0.6575873
    6  -0.6562658   0.6780467
    7   0.2149079   0.7400338
    8   0.7400338   0.2145807
 dipole y component in nonorthogonal basis
            1           2           3           4           5           6
    1  -9.9084480  -9.9760001   9.2100278   9.2100278   4.5889506   4.5889339
    2  -9.9760001 -10.0584548   9.2836254   9.2836254   4.6319796   4.6319628
    3   9.2100278   9.2836254 -10.0773728  -7.5575887  -4.2805174  -4.2786508
    4   9.2100278   9.2836254  -7.5575887 -10.0773728  -4.2786663  -4.2805018
    5   4.5889506   4.6319796  -4.2805174  -4.2786663  -5.0359861  -2.1932548
    6   4.5889339   4.6319628  -4.2786508  -4.2805018  -2.1932548  -5.0359787
    7   7.6335224   7.7029655  -7.2378756  -6.9865356  -4.2801958  -3.5761380
    8  -7.5874047  -7.6573183   6.9431626   7.1952667   3.5553987   4.2664325
            7           8
    1   7.6335224  -7.5874047
    2   7.7029655  -7.6573183
    3  -7.2378756   6.9431626
    4  -6.9865356   7.1952667
    5  -4.2801958   3.5553987
    6  -3.5761380   4.2664325
    7  -6.8401496   4.7694804
    8   4.7694804  -6.7987393
 dipole z component in nonorthogonal basis
            1           2           3           4           5           6
    1  -7.4521112  -7.6412551   6.9409022   6.9409022   3.4524715   3.4524593
    2  -7.6412551  -7.8396482   7.1242496   7.1242496   3.5314679   3.5314554
    3   6.9409022   7.1242496  -7.1389077  -5.8596525  -3.1983165  -3.2095944
    4   6.9409022   7.1242496  -5.8596525  -7.1389077  -3.2096058  -3.1983052
    5   3.4524715   3.5314679  -3.1983165  -3.2096058   3.2708455  -1.6039740
    6   3.4524593   3.5314554  -3.2095944  -3.1983052  -1.6039740   3.2708685
    7   5.8263518   5.9763195  -5.5122870  -5.3348875  -1.3147127  -2.7015083
    8  -5.8239382  -5.9732798   5.3311927   5.5117512   2.7007404   1.3058098
            7           8
    1   5.8263518  -5.8239382
    2   5.9763195  -5.9732798
    3  -5.5122870   5.3311927
    4  -5.3348875   5.5117512
    5  -1.3147127   2.7007404
    6  -2.7015083   1.3058098
    7  -4.0231543   3.6122974
    8   3.6122974  -4.0527728
 dipole x component in diabatic basis
            1           2           3           4           5           6
    1  -1.1057305  -1.0975243  -0.6467153  -0.6469444  -0.1562901  -0.1608220
    2  -1.0975243  -0.6003585  -1.6106599  -1.6105721  -1.2006971  -1.2000387
    3  -0.6467153  -1.6106599  -4.2935934  -0.8638045   0.4071523   0.4700070
    4  -0.6469444  -1.6105721  -0.8638045  -4.2932910   0.4691209   0.4084626
    5  -0.1562901  -1.2006971   0.4071523   0.4691209 -12.5366962   0.2649727
    6  -0.1608220  -1.2000387   0.4700070   0.4084626   0.2649727 -12.5370553
    7   1.5059427   0.8205939  -0.6045206  -0.5667456   1.0066277   0.3440807
    8  -1.4962770  -0.8234612   0.5675968   0.6035464  -0.3378017  -0.9994061
            7           8
    1   1.5059427  -1.4962770
    2   0.8205939  -0.8234612
    3  -0.6045206   0.5675968
    4  -0.5667456   0.6035464
    5   1.0066277  -0.3378017
    6   0.3440807  -0.9994061
    7   2.8225414  -0.9660055
    8  -0.9660055   2.7794788
 dipole y component in diabatic basis
            1           2           3           4           5           6
    1  -7.9946737   0.2963659  -0.8431888  -0.8421449  -0.0606194  -0.0577575
    2   0.2963659 -10.2909147  -0.1062194  -0.1058520   0.4979459   0.4967313
    3  -0.8431888  -0.1062194 -10.2220461   0.1025488  -0.1551922  -0.2003155
    4  -0.8421449  -0.1058520   0.1025488 -10.2227951  -0.2000225  -0.1557877
    5  -0.0606194   0.4979459  -0.1551922  -0.2000225  -3.6911594  -0.1072222
    6  -0.0577575   0.4967313  -0.2003155  -0.1557877  -0.1072222  -3.6905081
    7   0.9066004   2.2746557  -0.9398536  -0.6926806  -1.2387251  -0.5320579
    8  -0.8881942  -2.2703737   0.6876495   0.9325427   0.5283497   1.2365836
            7           8
    1   0.9066004  -0.8881942
    2   2.2746557  -2.2703737
    3  -0.9398536   0.6876495
    4  -0.6926806   0.9325427
    5  -1.2387251   0.5283497
    6  -0.5320579   1.2365836
    7  -2.2941742  -1.5692251
    8  -1.5692251  -2.3183649
 dipole z component in diabatic basis
            1           2           3           4           5           6
    1  -1.3832530   1.2114743  -0.6893649  -0.6900376   1.0570181   1.0496566
    2   1.2114743  -7.7770774   2.5072827   2.5059217   1.7068301   1.7054758
    3  -0.6893649   2.5072827  -3.9362497   1.2922500  -0.8543042  -0.8159340
    4  -0.6900376   2.5059217   1.2922500  -3.9346158  -0.8180398  -0.8509949
    5   1.0570181   1.7068301  -0.8543042  -0.8180398   5.6908249  -0.4070552
    6   1.0496566   1.7054758  -0.8159340  -0.8509949  -0.4070552   5.6910550
    7   1.0986309   2.9851657  -1.3610162  -1.0517831   1.3386077  -0.5411663
    8  -1.0940870  -2.9780187   1.0551039   1.3665110   0.5421751  -1.3377099
            7           8
    1   1.0986309  -1.0940870
    2   2.9851657  -2.9780187
    3  -1.3610162   1.0551039
    4  -1.0517831   1.3665110
    5   1.3386077   0.5421751
    6  -0.5411663  -1.3377099
    7   0.7728925  -1.7734606
    8  -1.7734606   0.6518441
 dipole x component in adiabatic basis
            1           2           3           4           5           6
    1  -1.7089183  -0.6722165  -0.0013602  -0.0048198  -0.0590753   1.1809309
    2  -0.6722165 -12.3472262   0.0019591   0.2633216  -1.6885987  -1.5752296
    3  -0.0013602   0.0019591 -12.7768255  -0.8797223  -0.1521211  -0.0021623
    4  -0.0048198   0.2633216  -0.8797223   1.8757913  -0.4788972  -0.0598308
    5  -0.0590753  -1.6885987  -0.1521211  -0.4788972   4.6904610   0.3581329
    6   1.1809309  -1.5752296  -0.0021623  -0.0598308   0.3581329   0.0046212
    7   0.0092279  -0.0110128   0.1034260  -0.2633463  -0.0366963   0.0237173
    8   0.6987586   0.2056414   0.0007987   0.0091322  -0.0789496  -0.9736889
            7           8
    1   0.0092279   0.6987586
    2  -0.0110128   0.2056414
    3   0.1034260   0.0007987
    4  -0.2633463   0.0091322
    5  -0.0366963  -0.0789496
    6   0.0237173  -0.9736889
    7  -3.4162207  -0.0062759
    8  -0.0062759  -6.0863874
 dipole y component in adiabatic basis
            1           2           3           4           5           6
    1 -10.0309735   0.4867259   0.0005115  -0.0478709   0.2946399  -1.7983443
    2   0.4867259  -3.8008662  -0.0011884  -0.1802448   1.1346550   0.6520830
    3   0.0005115  -0.0011884  -3.6063849   0.7006351   0.1098605   0.0007521
    4  -0.0478709  -0.1802448   0.7006351  -3.7675643  -0.7433977   0.0411837
    5   0.2946399   1.1346550   0.1098605  -0.7433977   0.7409309  -0.2766123
    6  -1.7983443   0.6520830   0.0007521   0.0411837  -0.2766123  -9.3915993
    7  -0.0121962   0.0048461  -0.0732387  -0.5239649  -0.0820246   0.0066903
    8   0.2156748  -0.1062135  -0.0005272  -0.0030287  -0.0015528  -0.2834111
            7           8
    1  -0.0121962   0.2156748
    2   0.0048461  -0.1062135
    3  -0.0732387  -0.0005272
    4  -0.5239649  -0.0030287
    5  -0.0820246  -0.0015528
    6   0.0066903  -0.2834111
    7 -10.2906857  -0.0016649
    8  -0.0016649 -10.5774934
 dipole z component in adiabatic basis
            1           2           3           4           5           6
    1  -7.7663045   1.1555120   0.0010560  -0.0265279  -0.0165455  -4.8406559
    2   1.1555120   6.0049943   0.0017923   0.3260891  -1.9904512   0.4887156
    3   0.0010560   0.0017923   6.1564385  -1.7393415  -0.2734539   0.0022389
    4  -0.0265279   0.3260891  -1.7393415  -0.9984724  -0.9312589  -0.0431519
    5  -0.0165455  -1.9904512  -0.2734539  -0.9312589   4.3723872   0.2710782
    6  -4.8406559   0.4887156   0.0022389  -0.0431519   0.2710782  -5.4941388
    7  -0.0306599   0.0024195   0.1161021  -0.4833177  -0.0726207  -0.0018941
    8   0.0362904  -0.0049555   0.0006682   0.0267148  -0.1547800   0.8058678
            7           8
    1  -0.0306599   0.0362904
    2   0.0024195  -0.0049555
    3   0.1161021   0.0006682
    4  -0.4833177   0.0267148
    5  -0.0726207  -0.1547800
    6  -0.0018941   0.8058678
    7  -5.1925690   0.0051514
    8   0.0051514  -1.3069146


CDFT-CI Adiabatic States

CDFT-CI Energy state 1:  -722.8083472395
 coefficients of diabatic states
            1           2           3           4           5           6
    1   0.4911275   0.5163953  -0.3996496  -0.3996738  -0.0925986  -0.0926129
            7           8
    1  -0.2800517   0.2776509
 weights of diabatic states
            1           2           3           4           5           6
    1   0.2412063   0.2666641   0.1597198   0.1597392   0.0085745   0.0085772
            7           8
    1   0.0784290   0.0770900
CDFT-CI Energy state 2:  -722.6252336634
 coefficients of diabatic states
            1           2           3           4           5           6
    1   0.1282406   0.0609819  -0.0471412  -0.0471507   0.6994384   0.6972261
            7           8
    1   0.0044722  -0.0056419
 weights of diabatic states
            1           2           3           4           5           6
    1   0.0164457   0.0037188   0.0022223   0.0022232   0.4892140   0.4861242
            7           8
    1   0.0000200   0.0000318
CDFT-CI Energy state 3:  -722.6238625798
 coefficients of diabatic states
            1           2           3           4           5           6
    1   0.0003894   0.0002357  -0.0000209  -0.0002832  -0.7059641   0.7080656
            7           8
    1  -0.0108766  -0.0117981
 weights of diabatic states
            1           2           3           4           5           6
    1   0.0000002   0.0000001   0.0000000   0.0000001   0.4983853   0.5013569
            7           8
    1   0.0001183   0.0001392
CDFT-CI Energy state 4:  -722.5118559757
 coefficients of diabatic states
            1           2           3           4           5           6
    1   0.0362185   0.0427585   0.0100067  -0.0514534  -0.0178226   0.0043885
            7           8
    1   0.7981299   0.5972973
 weights of diabatic states
            1           2           3           4           5           6
    1   0.0013118   0.0018283   0.0001001   0.0026475   0.0003176   0.0000193
            7           8
    1   0.6370114   0.3567640
CDFT-CI Energy state 5:  -722.5076730907
 coefficients of diabatic states
            1           2           3           4           5           6
    1  -0.2178604  -0.2670067   0.1342585   0.1246425   0.0428870   0.0473776
            7           8
    1  -0.5300900   0.7500692
 weights of diabatic states
            1           2           3           4           5           6
    1   0.0474632   0.0712926   0.0180253   0.0155358   0.0018393   0.0022446
            7           8
    1   0.2809954   0.5626038
CDFT-CI Energy state 6:  -722.3717866102
 coefficients of diabatic states
            1           2           3           4           5           6
    1  -0.6894350   0.7189457   0.0421551   0.0518825   0.0351818   0.0352906
            7           8
    1  -0.0197647   0.0213025
 weights of diabatic states
            1           2           3           4           5           6
    1   0.4753206   0.5168829   0.0017771   0.0026918   0.0012378   0.0012454
            7           8
    1   0.0003906   0.0004538
CDFT-CI Energy state 7:  -722.3688935600
 coefficients of diabatic states
            1           2           3           4           5           6
    1  -0.0048979   0.0048589   0.7066979  -0.7061133   0.0008557  -0.0004028
            7           8
    1  -0.0312368  -0.0309493
 weights of diabatic states
            1           2           3           4           5           6
    1   0.0000240   0.0000236   0.4994219   0.4985960   0.0000007   0.0000002
            7           8
    1   0.0009757   0.0009579
CDFT-CI Energy state 8:  -722.3148953986
 coefficients of diabatic states
            1           2           3           4           5           6
    1   0.4671492   0.3736170   0.5645649   0.5644170  -0.0207538  -0.0207906
            7           8
    1  -0.0453824   0.0442651
 weights of diabatic states
            1           2           3           4           5           6
    1   0.2182284   0.1395896   0.3187335   0.3185665   0.0004307   0.0004322
            7           8
    1   0.0020596   0.0019594
CDFT-CI Calculation complete
Archival summary:
1\1\c5-86\SP\ProcedureUnspecified\BasisUnspecified\759(3-,1)\leeping\SatFeb2215:59:272020SatFeb2215:59:272020\0\\#,ProcedureUnspecified,BasisUnspecified,\\-3,1\O\O,1,1.43197\H,2,1.02657,1,94.7479\C,1,1.52416,2,104.757,3,21.9519,0\O,4,1.34298,1,107.604,2,-31.1578,0\C,4,1.53334,1,103.414,2,-151.274,0\H,6,1.09537,4,106.722,1,67.7578,0\H,6,1.09603,4,106.746,1,-178.258,0\C,6,1.52503,4,116.546,1,-55.4371,0\H,9,1.09509,6,110.722,4,56.899,0\H,9,1.09644,6,110.767,4,-60.2276,0\C,4,1.53367,1,106.057,2,89.5631,0\H,12,1.09381,4,108.969,1,-64.2723,0\H,12,1.09407,4,112.451,1,56.2531,0\H,12,1.09537,4,109.434,1,177.146,0\C,9,1.53816,6,115.512,4,178.999,0\O,16,1.25742,9,118.974,6,6.95999,0\O,16,1.26257,9,115.894,6,-173.689,0\H,2,1.92449,1,109.87,3,-114.066,0\O,19,0.972462,2,176.253,1,-118.352,0\O,20,1.47206,19,102.114,2,74.1491,0\\\@

 Total job time:  80357.36s(wall), 155832.72s(cpu) 
 Sat Feb 22 15:59:27 2020

        *************************************************************
        *                                                           *
        *  Thank you very much for using Q-Chem.  Have a nice day.  *
        *                                                           *
        *************************************************************


