
Running Job 1 of 1 qc-3-tshess.in
qchem qc-3-tshess.in_24779.0 /scratch/alotsuki/1165983/qc-3-tshess.d/ 1
/home/leeping/opt/qchem/5.0.2-openmp/exe/qcprog.exe_s qc-3-tshess.in_24779.0 /scratch/alotsuki/1165983/qc-3-tshess.d/
Check license passed

                  Welcome to Q-Chem
     A Quantum Leap Into The Future Of Chemistry


 Q-Chem 5.0, Q-Chem, Inc., Pleasanton, CA (2017)

 Yihan Shao,  Zhengting Gan,  E. Epifanovsky,  A. T. B. Gilbert,  M. Wormit,  
 J. Kussmann,  A. W. Lange,  A. Behn,  Jia Deng,  Xintian Feng,  D. Ghosh,  
 M. Goldey,  P. R. Horn,  L. D. Jacobson,  I. Kaliman,  T. Kus,  A. Landau,  
 Jie Liu,  E. I. Proynov,  R. M. Richard,  R. P. Steele,  E. J. Sundstrom,  
 H. L. Woodcock III,  P. M. Zimmerman,  D. Zuev,  B. Albrecht,  E. Alguire,  
 S. A. Baeppler,  D. Barton,  Z. Benda,  Y. A. Bernard,  E. J. Berquist,  
 K. B. Bravaya,  H. Burton,  D. Casanova,  Chun-Min Chang,  Yunqing Chen,  
 A. Chien,  K. D. Closser,  M. P. Coons,  S. Dasgupta,  A. L. Dempwolff,  
 M. Diedenhofen,  Hainam Do,  R. G. Edgar,  Po-Tung Fang,  S. Fatehi,  
 Qingguo Feng,  J. Fosso-Tande,  Qinghui Ge,  A. Ghysels,  G. Gidofalvi,  
 J. Gomes,  J. Gonthier,  A. Gunina,  M. W. D. Hanson-Heine,  
 P. H. P. Harbach,  A. W. Hauser,  J. E. Herr,  E. G. Hohenstein,  
 Z. C. Holden,  Kerwin Hui,  T.-C. Jagau,  Hyunjun Ji,  B. Kaduk,  
 K. Khistyaev,  Jaehoon Kim,  P. Klunzinger,  K. Koh,  D. Kosenkov,  
 L. Koulias,  T. Kowalczyk,  C. M. Krauter,  A. Kunitsa,  Ka Un Lao,  
 A. Laurent,  K. V. Lawler,  Joonho Lee,  D. Lefrancois,  S. Lehtola,  
 D. S. Levine,  Yi-Pei Li,  You-Sheng Lin,  Fenglai Liu,  E. Livshits,  
 A. Luenser,  P. Manohar,  E. Mansoor,  S. F. Manzer,  Shan-Ping Mao,  
 Yuezhi Mao,  N. Mardirossian,  A. V. Marenich,  T. Markovich,  
 L. A. Martinez-Martinez,  S. A. Maurer,  N. J. Mayhall,  S. C. McKenzie,  
 J.-M. Mewes,  A. F. Morrison,  J. W. Mullinax,  K. Nanda,  
 T. S. Nguyen-Beck,  R. Olivares-Amaya,  J. A. Parkhill,  T. M. Perrine,  
 F. Plasser,  S. Prager,  A. Prociuk,  E. Ramos,  D. R. Rehn,  F. Rob,  
 M. Schneider,  N. Sergueev,  S. M. Sharada,  S. Sharma,  D. W. Small,  
 T. Stauch,  T. Stein,  Yu-Chuan Su,  A. J. W. Thom,  A. Tkatchenko,  
 T. Tsuchimochi,  L. Vogt,  O. Vydrov,  M. A. Watson,  J. Wenzel,  
 M. de Wergifosse,  T. A. Wesolowski,  A. White,  J. Witte,  A. Yamada,  
 Jun Yang,  K. Yao,  S. Yeganeh,  S. R. Yost,  Zhi-Qiang You,  A. Zech,  
 Igor Ying Zhang,  Xing Zhang,  Yan Zhao,  Ying Zhu,  B. R. Brooks,  
 G. K. L. Chan,  C. J. Cramer,  M. S. Gordon,  W. J. Hehre,  A. Klamt,  
 M. W. Schmidt,  C. D. Sherrill,  D. G. Truhlar,  A. Aspuru-Guzik,  R. Baer,  
 A. T. Bell,  N. A. Besley,  Jeng-Da Chai,  R. A. DiStasio Jr.,  A. Dreuw,  
 B. D. Dunietz,  T. R. Furlani,  Chao-Ping Hsu,  Yousung Jung,  Jing Kong,  
 D. S. Lambrecht,  WanZhen Liang,  C. Ochsenfeld,  V. A. Rassolov,  
 L. V. Slipchenko,  J. E. Subotnik,  T. Van Voorhis,  J. M. Herbert,  
 A. I. Krylov,  P. M. W. Gill,  M. Head-Gordon

 Contributors to earlier versions of Q-Chem not listed above: 
 R. D. Adamson,  B. Austin,  J. Baker,  G. J. O. Beran,  K. Brandhorst,  
 S. T. Brown,  E. F. C. Byrd,  A. K. Chakraborty,  C.-L. Cheng,  
 Siu Hung Chien,  D. M. Chipman,  D. L. Crittenden,  H. Dachsel,  
 R. J. Doerksen,  A. D. Dutoi,  L. Fusti-Molnar,  W. A. Goddard III,  
 A. Golubeva-Zadorozhnaya,  S. R. Gwaltney,  G. Hawkins,  A. Heyden,  
 S. Hirata,  G. Kedziora,  F. J. Keil,  C. Kelley,  Jihan Kim,  R. A. King,  
 R. Z. Khaliullin,  P. P. Korambath,  W. Kurlancheek,  A. M. Lee,  M. S. Lee,  
 S. V. Levchenko,  Ching Yeh Lin,  D. Liotard,  R. C. Lochan,  I. Lotan,  
 P. E. Maslen,  N. Nair,  D. P. O'Neill,  D. Neuhauser,  E. Neuscamman,  
 C. M. Oana,  R. Olson,  B. Peters,  R. Peverati,  P. A. Pieniazek,  
 Y. M. Rhee,  J. Ritchie,  M. A. Rohrdanz,  E. Rosta,  N. J. Russ,  
 H. F. Schaefer III,  N. E. Schultz,  N. Shenvi,  A. C. Simmonett,  A. Sodt,  
 D. Stuck,  K. S. Thanthiriwatte,  V. Vanovschi,  Tao Wang,  A. Warshel,  
 C. F. Williams,  Q. Wu,  X. Xu,  W. Zhang

 Please cite Q-Chem as follows:
 Y. Shao et al., Mol. Phys. 113, 184-215 (2015)
 DOI: 10.1080/00268976.2014.952696

 Q-Chem 5.0.2 for Intel X86 EM64T Linux

 Parts of Q-Chem use Armadillo 5.200.1 (Boston Tea Smuggler).
 http://arma.sourceforge.net/

 Q-Chem begins on Thu Apr 19 11:06:29 2018  

Host: 
0

     Scratch files written to /scratch/alotsuki/1165983/qc-3-tshess.d//
 Dec517 15110_ 26548  26544 5633   
Processing $rem in /home/leeping/opt/qchem/5.0.2-openmp/config/preferences.
 MEM_STATIC 2000
 MEM_TOTAL  8000
 SYMMETRY   OFF
 SYM_IGNORE TRUE 
Symmetry turned off for PCM/SM12/SMD calculation

Checking the input file for inconsistencies... 	...done.

--------------------------------------------------------------
User input:
--------------------------------------------------------------
$molecule
-2 1
C       -3.1244013448    0.6124285276   -0.9962948017
H       -3.1170544490    1.6723215314   -0.7206074227
H       -4.1026070729    0.1994644110   -0.7448774582
H       -2.9454919576    0.5399559589   -2.0702469954
C       -2.0329122380   -0.0893735846   -0.2060097718
C        0.5441521289   -0.8616260289    0.1732379755
H        1.0024602452   -1.0675566045   -0.7788438283
H       -0.0836235480   -1.6095846044    0.6289321592
C        0.9269419032    0.3544119641    0.9744877073
H        1.4625041102    0.0210000954    1.8677150888
C        1.8482644319    1.3429676159    0.2465834100
O       -2.2881482602   -0.5837961764    0.9016239772
O       -0.8734860631   -0.0869834017   -0.7635650453
O        2.7439332800    0.8654857721   -0.5077510885
O        1.6763122983    2.5635361316    0.4786797369
H        0.0297734683    0.8758993995    1.3104299533
O        2.1245803647   -2.0149663400    0.8132622229
O        3.1183282474   -1.8537742626   -0.2357274970
H        3.0904744556   -0.8798104041   -0.3710283226
$end

$rem
jobtype               freq
method                wb97x-v
basis                 def2-tzvpd
symmetry              off
sym_ignore            true
incdft                false
incfock               0
!scf_algorithm        diis_gdm
scf_convergence       8
thresh                14
!purecart             112
max_scf_cycles        1000
geom_opt_max_cycles   500
geom_opt_dmax         100
geom_opt_tol_gradient 10
solvent_method        pcm
ideriv                1
rpath_tol_displacement 1000
rpath_max_cycles      100
rpath_direction       1
!scf_guess            read
scf_guess             read
$end

$pcm
theory              cosmo
method              iswig
Radii               bondi
vdwScale            1.20
hpoints             110
heavypoints         110
$end

$solvent
dielectric 78.400000
$end

--------------------------------------------------------------
 ----------------------------------------------------------------
             Standard Nuclear Orientation (Angstroms)
    I     Atom           X                Y                Z
 ----------------------------------------------------------------
    1      C      -3.1244013448     0.6124285276    -0.9962948017
    2      H      -3.1170544490     1.6723215314    -0.7206074227
    3      H      -4.1026070729     0.1994644110    -0.7448774582
    4      H      -2.9454919576     0.5399559589    -2.0702469954
    5      C      -2.0329122380    -0.0893735846    -0.2060097718
    6      C       0.5441521289    -0.8616260289     0.1732379755
    7      H       1.0024602452    -1.0675566045    -0.7788438283
    8      H      -0.0836235480    -1.6095846044     0.6289321592
    9      C       0.9269419032     0.3544119641     0.9744877073
   10      H       1.4625041102     0.0210000954     1.8677150888
   11      C       1.8482644319     1.3429676159     0.2465834100
   12      O      -2.2881482602    -0.5837961764     0.9016239772
   13      O      -0.8734860631    -0.0869834017    -0.7635650453
   14      O       2.7439332800     0.8654857721    -0.5077510885
   15      O       1.6763122983     2.5635361316     0.4786797369
   16      H       0.0297734683     0.8758993995     1.3104299533
   17      O       2.1245803647    -2.0149663400     0.8132622229
   18      O       3.1183282474    -1.8537742626    -0.2357274970
   19      H       3.0904744556    -0.8798104041    -0.3710283226
 ----------------------------------------------------------------
 Nuclear Repulsion Energy =   630.9259925786 hartrees
 There are       44 alpha and       44 beta electrons
 Requested basis set is def2-TZVPD
 There are 189 shells and 497 basis functions

 Total QAlloc Memory Limit   8000 MB
 Mega-Array Size      1956 MB
 MEM_STATIC part      2000 MB
 Discretize the solute cavity surface with Lebedev spheres
	Using 110 Lebedev grid points for each H atom
	Using 110 Lebedev grid points for other atoms
	Atomic van der Waals radii will be scaled by 1.20
 Remove points where switching function is < 1.0e-08
 Keep 1100 surface tesserae and discard 990 interior tesserae
 Molecular Surface Area = 201.677 Angst**2
 A cutoff of  1.0D-14 yielded  15992 shell pairs
 There are    110930 function pairs (    141258 Cartesian)
 
 -------------------------------------------------------
 OpenMP Integral Computing Module                       
 Release: version 1.0, May 2013, Q-Chem Inc. Pittsburgh 
 -------------------------------------------------------
 Integral Job Info:
 Integral job number is                      11
 Integral operator is                         1
 short-range coefficients              16700000
 long-range coefficients              100000000
 Omega coefficients                         300
 if combine SR and LR in K                    1
 Integral screening is                        0
 Integral computing path is                   2
 max size of driver memory is            800000
 size of driver memory is                776718
 size of scratch memory is              4473992
 max col of scratch BK array              10000
 max len of scratch array in speh3          662
 max len of scratch index in speh4           32
 max int batch size is                      520
 min int batch size is                       52
 fixed nKL is                                52
 max L of basis functions is                  3
 order of int derivative is                   0
 number of shells is                        189
 number of basis is                         563
 number of cartesian basis is               563
 number of contracted shell pairs         15992
 number of primitive shell pairs          32044
 maxK2 (contraction) of shell pair           36
 max number of K2 of shell pair               1
 max number of CS2 of shell pair           2621
 max number of PS2 of shell pair           3648
 mem total for path MDJ                  824812
 -------------------------------------------------------
 Smallest overlap matrix eigenvalue = 3.24E-06
 Guess MOs from SCF MO coefficient file
 Reading MOs from coefficient file
 Reading MOs from coefficient file
 Long-range K will be added via erf
 Coulomb attenuation parameter = 0.3 bohr**(-1)
 A restricted hybrid HF-DFT SCF calculation will be
 performed using Pulay DIIS extrapolation
 Polarizable Continuum solvation model will be applied
 Exchange:     0.1670 Hartree-Fock + 1.0000 wB97X-V + LR-HF
 Correlation:  1.0000 wB97X-V
 Using SG-2 standard quadrature grid
 Nonlocal Correlation:  VV10 with C = 0.0100 and b = 6.00
 Grid used for NLC:  SG-1 standard quadrature
 SCF converges when DIIS error is below 1.0E-08
Using Q-Chem read-in guess as SCF_GUESS READ specified.

 using 4 threads for integral computing
 -------------------------------------------------------
 OpenMP Integral computing Module                
 Release: version 1.0, May 2013, Q-Chem Inc. Pittsburgh 
 -------------------------------------------------------
 using 4 threads for integral computing
 -------------------------------------------------------
 OpenMP Integral computing Module                
 Release: version 1.0, May 2013, Q-Chem Inc. Pittsburgh 
 -------------------------------------------------------
 -------------------------------------------------------
 OpenMP BLAS3 based DFT computing Module                
 Release: version 1.0, May 2013, Q-Chem Inc. Pittsburgh 
 -------------------------------------------------------
 -------------------------------------------------------
 OpenMP BLAS3 based DFT computing Module                
 Release: version 1.0, May 2013, Q-Chem Inc. Pittsburgh 
 -------------------------------------------------------
 -------------------------------------------------------
 OpenMP BLAS3 based DFT computing Module                
 Release: version 1.0, May 2013, Q-Chem Inc. Pittsburgh 
 -------------------------------------------------------
 ---------------------------------------
  Cycle       Energy         DIIS Error
 ---------------------------------------
    1    -646.6155730698      2.98E-04
    2    -646.9151910932      3.05E-04
    3    -646.9194756065      1.45E-04
    4    -646.9202203606      1.06E-04
    5    -646.9206729089      8.23E-05
    6    -646.9209292711      6.57E-05
    7    -646.9211076940      5.16E-05
    8    -646.9212127089      4.12E-05
    9    -646.9212885737      3.17E-05
   10    -646.9213303475      2.49E-05
   11    -646.9213652040      1.74E-05
   12    -646.9213787573      1.33E-05
   13    -646.9213869157      1.01E-05
   14    -646.9213904808      8.32E-06
   15    -646.9213933090      6.58E-06
   16    -646.9213951813      5.10E-06
   17    -646.9213980148      4.90E-09 Convergence criterion met
 ---------------------------------------

************** Final PCM Free Energy Summary **************
 G_electrostatic  =      -0.30582494 hartree =    -191.90804805 kcal/mol
 G_cavitation     =       0.00000000 hartree =       0.00000000 kcal/mol
 G_dispersion     =       0.00000000 hartree =       0.00000000 kcal/mol
 G_repulsion      =       0.00000000 hartree =       0.00000000 kcal/mol
 --------------------------------------------------
 Non-electrostatic Free Energy =       0.00000000 hartree =       0.00000000 kcal/mol
 Total                         =      -0.30582494 hartree =    -191.90804805 kcal/mol
 --------------------------------------------------
 SCF Energy (H0 + V/2)                       =    -646.92139801 
 Solute Internal Energy (H0)                 =    -646.61557307 
 Total Free Energy (H0 + V/2 + non-elec)     =    -646.92139801 hartree
                                             = -405949.30424686 kcal/mol
***********************************************************

 SCF time:  CPU 4918.71 s  wall 1271.02 s
 SCF   energy in the final basis set = -646.92139801
 Total energy in the final basis set = -646.92139801
 
 --------------------------------------------------------------
 
                    Orbital Energies (a.u.)
 --------------------------------------------------------------
 
 Alpha MOs
 -- Occupied --
-19.196 -19.184 -19.162 -19.153 -19.148 -19.145 -10.366 -10.348
-10.322 -10.252 -10.251  -1.177  -1.153  -1.142  -1.083  -1.057
 -0.909  -0.872  -0.845  -0.749  -0.636  -0.614  -0.585  -0.575
 -0.554  -0.552  -0.538  -0.534  -0.522  -0.501  -0.489  -0.476
 -0.473  -0.465  -0.450  -0.434  -0.383  -0.375  -0.356  -0.354
 -0.345  -0.340  -0.303  -0.278
 -- Virtual --
  0.060   0.073   0.078   0.081   0.099   0.101   0.106   0.111
  0.114   0.128   0.132   0.133   0.139   0.144   0.150   0.155
  0.157   0.160   0.167   0.179   0.185   0.188   0.196   0.201
  0.205   0.212   0.219   0.227   0.228   0.235   0.250   0.252
  0.254   0.260   0.267   0.277   0.281   0.286   0.291   0.299
  0.303   0.312   0.315   0.324   0.328   0.342   0.346   0.349
  0.355   0.358   0.363   0.366   0.370   0.379   0.381   0.386
  0.391   0.395   0.403   0.409   0.413   0.420   0.422   0.430
  0.436   0.440   0.442   0.448   0.454   0.459   0.472   0.478
  0.479   0.482   0.488   0.496   0.502   0.505   0.511   0.511
  0.522   0.529   0.530   0.538   0.543   0.549   0.550   0.557
  0.562   0.565   0.573   0.577   0.585   0.597   0.604   0.605
  0.615   0.618   0.629   0.636   0.641   0.643   0.656   0.670
  0.674   0.677   0.678   0.691   0.692   0.700   0.703   0.714
  0.723   0.727   0.729   0.736   0.745   0.747   0.754   0.762
  0.770   0.774   0.777   0.786   0.795   0.797   0.804   0.811
  0.817   0.820   0.824   0.829   0.837   0.849   0.851   0.859
  0.865   0.867   0.873   0.885   0.890   0.894   0.915   0.919
  0.925   0.929   0.938   0.952   0.966   0.968   0.980   0.987
  1.010   1.015   1.023   1.043   1.051   1.063   1.079   1.087
  1.099   1.111   1.116   1.128   1.136   1.154   1.158   1.175
  1.181   1.189   1.205   1.219   1.230   1.255   1.259   1.280
  1.284   1.301   1.306   1.322   1.332   1.350   1.361   1.380
  1.382   1.399   1.400   1.415   1.428   1.440   1.448   1.458
  1.470   1.482   1.494   1.510   1.528   1.544   1.565   1.597
  1.606   1.660   1.683   1.693   1.741   1.757   1.774   1.823
  1.865   1.874   1.897   1.901   1.906   1.913   1.930   1.930
  1.946   1.954   1.961   1.970   1.983   1.999   2.021   2.032
  2.047   2.054   2.074   2.083   2.090   2.112   2.137   2.149
  2.166   2.174   2.187   2.189   2.216   2.224   2.260   2.276
  2.289   2.294   2.314   2.319   2.342   2.347   2.359   2.385
  2.394   2.437   2.457   2.470   2.478   2.486   2.503   2.516
  2.532   2.554   2.582   2.592   2.601   2.605   2.625   2.639
  2.664   2.675   2.681   2.698   2.737   2.781   2.812   2.822
  2.852   2.864   2.882   2.899   2.918   2.927   2.952   2.992
  2.996   3.005   3.026   3.044   3.060   3.093   3.115   3.122
  3.133   3.145   3.152   3.179   3.199   3.216   3.231   3.249
  3.274   3.280   3.292   3.299   3.310   3.315   3.342   3.361
  3.373   3.389   3.403   3.411   3.420   3.447   3.459   3.469
  3.496   3.505   3.520   3.538   3.550   3.562   3.579   3.597
  3.606   3.619   3.632   3.635   3.652   3.671   3.688   3.707
  3.720   3.732   3.744   3.753   3.773   3.778   3.792   3.812
  3.842   3.864   3.907   3.929   4.012   4.045   4.081   4.087
  4.106   4.122   4.147   4.194   4.243   4.273   4.314   4.331
  4.352   4.406   4.453   4.488   4.593   4.612   4.656   4.701
  4.716   4.755   4.821   4.868   4.893   4.943   4.970   5.037
  5.043   5.072   5.083   5.145   5.185   5.213   5.253   5.321
  5.328   5.361   5.366   5.371   5.392   5.424   5.476   5.498
  5.508   5.538   5.563   5.576   5.648   5.666   5.706   5.711
  5.719   5.760   5.779   5.839   5.999   6.015   6.056   6.081
  6.239   6.249   6.298   6.301   6.313   6.361   6.369   6.599
  6.617   6.637   6.647   6.661   6.673   6.680   6.707   6.733
  6.739   6.754   6.773   6.804   6.861   6.872   6.926   6.956
  6.982   7.008   7.034   7.060   7.077   7.085   7.148   7.240
  7.250   7.279   7.368   7.388   7.392   7.434   7.492   7.518
  7.525   8.244  22.616  22.816  22.909  23.694  23.774  44.031
 44.366  44.377  44.463  44.491  44.554
 --------------------------------------------------------------
 
          Ground-State Mulliken Net Atomic Charges

     Atom                 Charge (a.u.)
  ----------------------------------------
      1 C                    -0.849040
      2 H                     0.210403
      3 H                     0.241212
      4 H                     0.234219
      5 C                     0.581835
      6 C                    -0.077691
      7 H                     0.246171
      8 H                     0.153868
      9 C                     0.092076
     10 H                     0.201464
     11 C                     0.133064
     12 O                    -0.630390
     13 O                    -0.560379
     14 O                    -0.744516
     15 O                    -0.710538
     16 H                     0.202065
     17 O                    -0.668051
     18 O                    -0.424784
     19 H                     0.369011
  ----------------------------------------
  Sum of atomic charges =    -2.000000

 -----------------------------------------------------------------
                    Cartesian Multipole Moments
 -----------------------------------------------------------------
    Charge (ESU x 10^10)
                -9.6064
    Dipole Moment (Debye)
         X     -15.2861      Y       1.1133      Z      -2.7636
       Tot      15.5738
    Quadrupole Moments (Debye-Ang)
        XX    -127.8050     XY       1.0026     YY    -112.8975
        XZ       5.4095     YZ       4.3135     ZZ     -77.3953
    Octopole Moments (Debye-Ang^2)
       XXX    -218.6769    XXY      36.3694    XYY    -125.3960
       YYY     -15.8414    XXZ     -23.7643    XYZ       5.3161
       YYZ     -24.7372    XZZ     -31.8814    YZZ       4.2745
       ZZZ     -19.5989
    Hexadecapole Moments (Debye-Ang^3)
      XXXX   -2463.7421   XXXY     120.1832   XXYY    -701.5928
      XYYY      56.2908   YYYY   -1071.9825   XXXZ     -23.7588
      XXYZ      43.1049   XYYZ     -58.3858   YYYZ      18.2918
      XXZZ    -426.0462   XYZZ      23.6072   YYZZ    -207.9003
      XZZZ     -82.2107   YZZZ      28.7517   ZZZZ    -297.5639
 -----------------------------------------------------------------
 Calculating analytic gradient of the SCF energy
 Gradient of SCF Energy
            1           2           3           4           5           6
    1  -0.0544797  -0.0028462   0.0549942  -0.0118827   0.0534198   0.0373653
    2   0.0198633  -0.0587087   0.0223112   0.0006846  -0.0083977  -0.0556847
    3  -0.0381315  -0.0141882  -0.0146217   0.0572089   0.0526081  -0.0924602
            7           8           9          10          11          12
    1  -0.0574876   0.0743347  -0.0895859  -0.0260161   0.0107222  -0.0014926
    2   0.0116369   0.0651918   0.0190089   0.0149529   0.0071817   0.0239760
    3   0.0430503  -0.0097924   0.1430206  -0.0614705  -0.0537033  -0.0458667
           13          14          15          16          17          18
    1  -0.0428977  -0.0367963   0.0061276   0.0730602  -0.0286472   0.0461535
    2   0.0098918   0.0283878  -0.0628264  -0.0167247  -0.0235960   0.0656253
    3  -0.0067167   0.0370658  -0.0061374  -0.0078265   0.0551925  -0.0558073
           19
    1  -0.0040456
    2  -0.0627740
    3   0.0185761
 Max gradient component =       1.430E-01
 RMS gradient           =       4.632E-02
 Computing fast CPCM-ISWIG gradient
 Updating gradient with PCM contributions...
 -- total gradient after adding PCM contribution --
---------------------------------------------------
  Atom         X              Y              Z     
---------------------------------------------------
   1      -0.000003       0.000014       0.000017
   2      -0.000005       0.000008       0.000040
   3      -0.000001       0.000006       0.000009
   4      -0.000004       0.000038       0.000015
   5       0.000000      -0.000002       0.000000
   6       0.000007      -0.000001      -0.000021
   7       0.000001       0.000021      -0.000026
   8       0.000005      -0.000015      -0.000035
   9       0.000000      -0.000019       0.000007
  10       0.000001      -0.000037      -0.000000
  11      -0.000004      -0.000000       0.000026
  12       0.000002      -0.000025      -0.000010
  13      -0.000002       0.000014      -0.000001
  14      -0.000002       0.000019       0.000018
  15      -0.000006      -0.000007       0.000056
  16      -0.000001      -0.000029       0.000019
  17       0.000006      -0.000015      -0.000045
  18       0.000003       0.000013      -0.000044
  19       0.000002       0.000017      -0.000023
---------------------------------------------------
 Number of fixed atoms: 0
 Gradient time:  CPU 950.72 s  wall 245.11 s
 ######################################################
 ######################################################
 # Starting finite difference calculation for IDERIV  #
 Finite diff step size:  1.88973e-03 a.u.
 ----------------------------------------------------------------
             Standard Nuclear Orientation (Angstroms)
    I     Atom           X                Y                Z
 ----------------------------------------------------------------
    1      C      -3.1234013448     0.6124285276    -0.9962948017
    2      H      -3.1170544490     1.6723215314    -0.7206074227
    3      H      -4.1026070729     0.1994644110    -0.7448774582
    4      H      -2.9454919576     0.5399559589    -2.0702469954
    5      C      -2.0329122380    -0.0893735846    -0.2060097718
    6      C       0.5441521289    -0.8616260289     0.1732379755
    7      H       1.0024602452    -1.0675566045    -0.7788438283
    8      H      -0.0836235480    -1.6095846044     0.6289321592
    9      C       0.9269419032     0.3544119641     0.9744877073
   10      H       1.4625041102     0.0210000954     1.8677150888
   11      C       1.8482644319     1.3429676159     0.2465834100
   12      O      -2.2881482602    -0.5837961764     0.9016239772
   13      O      -0.8734860631    -0.0869834017    -0.7635650453
   14      O       2.7439332800     0.8654857721    -0.5077510885
   15      O       1.6763122983     2.5635361316     0.4786797369
   16      H       0.0297734683     0.8758993995     1.3104299533
   17      O       2.1245803647    -2.0149663400     0.8132622229
   18      O       3.1183282474    -1.8537742626    -0.2357274970
   19      H       3.0904744556    -0.8798104041    -0.3710283226
 ----------------------------------------------------------------
 Nuclear Repulsion Energy =   630.9415749966 hartrees
 There are       44 alpha and       44 beta electrons
 Discretize the solute cavity surface with Lebedev spheres
	Using 110 Lebedev grid points for each H atom
	Using 110 Lebedev grid points for other atoms
	Atomic van der Waals radii will be scaled by 1.20
 Remove points where switching function is < 1.0e-08
 Keep 1100 surface tesserae and discard 990 interior tesserae
 Molecular Surface Area = 201.673 Angst**2
 Requested basis set is def2-TZVPD
 There are 189 shells and 497 basis functions
 A cutoff of  1.0D-14 yielded  15994 shell pairs
 There are    111000 function pairs (    141378 Cartesian)
 Smallest overlap matrix eigenvalue = 3.24E-06
 Guess MOs from SCF MO coefficient file
 Reading MOs from coefficient file
 Reading MOs from coefficient file
 Long-range K will be added via erf
 Coulomb attenuation parameter = 0.3 bohr**(-1)
 A restricted hybrid HF-DFT SCF calculation will be
 performed using Pulay DIIS extrapolation
 Polarizable Continuum solvation model will be applied
 Exchange:     0.1670 Hartree-Fock + 1.0000 wB97X-V + LR-HF
 Correlation:  1.0000 wB97X-V
 Using SG-2 standard quadrature grid
 Nonlocal Correlation:  VV10 with C = 0.0100 and b = 6.00
 Grid used for NLC:  SG-1 standard quadrature
 SCF converges when DIIS error is below 1.0E-08
Using Q-Chem read-in guess as SCF_GUESS READ specified.

 using 4 threads for integral computing
 -------------------------------------------------------
 OpenMP Integral computing Module                
 Release: version 1.0, May 2013, Q-Chem Inc. Pittsburgh 
 -------------------------------------------------------
 using 4 threads for integral computing
 -------------------------------------------------------
 OpenMP Integral computing Module                
 Release: version 1.0, May 2013, Q-Chem Inc. Pittsburgh 
 -------------------------------------------------------
 -------------------------------------------------------
 OpenMP BLAS3 based DFT computing Module                
 Release: version 1.0, May 2013, Q-Chem Inc. Pittsburgh 
 -------------------------------------------------------
 -------------------------------------------------------
 OpenMP BLAS3 based DFT computing Module                
 Release: version 1.0, May 2013, Q-Chem Inc. Pittsburgh 
 -------------------------------------------------------
 -------------------------------------------------------
 OpenMP BLAS3 based DFT computing Module                
 Release: version 1.0, May 2013, Q-Chem Inc. Pittsburgh 
 -------------------------------------------------------
 ---------------------------------------
  Cycle       Energy         DIIS Error
 ---------------------------------------
    1    -646.6151814231      2.98E-04
    2    -646.9151826476      3.05E-04
    3    -646.9194738153      1.45E-04
    4    -646.9202198619      1.06E-04
    5    -646.9206775771      8.20E-05
    6    -646.9209397655      6.49E-05
    7    -646.9211315905      4.93E-05
    8    -646.9212568260      3.58E-05
    9    -646.9213531980      2.00E-05
   10    -646.9213870884      9.55E-06
   11    -646.9213964591      2.34E-06
   12    -646.9213970049      6.43E-07
   13    -646.9213970470      1.23E-07
   14    -646.9213970486      1.08E-08
   15    -646.9213970486      2.71E-09 Convergence criterion met
 ---------------------------------------

************** Final PCM Free Energy Summary **************
 G_electrostatic  =      -0.30583462 hartree =    -191.91411822 kcal/mol
 G_cavitation     =       0.00000000 hartree =       0.00000000 kcal/mol
 G_dispersion     =       0.00000000 hartree =       0.00000000 kcal/mol
 G_repulsion      =       0.00000000 hartree =       0.00000000 kcal/mol
 --------------------------------------------------
 Non-electrostatic Free Energy =       0.00000000 hartree =       0.00000000 kcal/mol
 Total                         =      -0.30583462 hartree =    -191.91411822 kcal/mol
 --------------------------------------------------
 SCF Energy (H0 + V/2)                       =    -646.92139705 
 Solute Internal Energy (H0)                 =    -646.61556243 
 Total Free Energy (H0 + V/2 + non-elec)     =    -646.92139705 hartree
                                             = -405949.30364057 kcal/mol
***********************************************************

 SCF time:  CPU 4348.06 s  wall 1123.72 s
 SCF   energy in the final basis set = -646.92139705
 Total energy in the final basis set = -646.92139705
 
 --------------------------------------------------------------
 
                    Orbital Energies (a.u.)
 --------------------------------------------------------------
 
 Alpha MOs
 -- Occupied --
-19.196 -19.184 -19.162 -19.153 -19.148 -19.145 -10.366 -10.348
-10.322 -10.252 -10.251  -1.177  -1.153  -1.142  -1.083  -1.057
 -0.909  -0.872  -0.846  -0.749  -0.636  -0.614  -0.585  -0.575
 -0.554  -0.552  -0.538  -0.534  -0.522  -0.501  -0.489  -0.476
 -0.473  -0.465  -0.450  -0.434  -0.383  -0.375  -0.356  -0.354
 -0.345  -0.340  -0.303  -0.278
 -- Virtual --
  0.060   0.073   0.078   0.081   0.099   0.101   0.106   0.111
  0.114   0.128   0.132   0.133   0.139   0.144   0.150   0.155
  0.157   0.160   0.167   0.179   0.185   0.188   0.196   0.201
  0.205   0.212   0.219   0.227   0.228   0.235   0.250   0.252
  0.254   0.260   0.267   0.277   0.281   0.286   0.291   0.299
  0.303   0.312   0.315   0.324   0.328   0.342   0.346   0.349
  0.355   0.358   0.363   0.366   0.370   0.379   0.381   0.386
  0.391   0.395   0.403   0.409   0.413   0.420   0.422   0.430
  0.436   0.440   0.442   0.448   0.454   0.459   0.472   0.478
  0.479   0.482   0.488   0.496   0.502   0.505   0.511   0.511
  0.522   0.529   0.530   0.538   0.543   0.549   0.550   0.557
  0.562   0.565   0.573   0.577   0.585   0.598   0.604   0.605
  0.615   0.618   0.629   0.636   0.641   0.643   0.656   0.671
  0.674   0.677   0.678   0.691   0.692   0.700   0.703   0.714
  0.723   0.727   0.729   0.736   0.745   0.747   0.754   0.762
  0.770   0.774   0.777   0.786   0.795   0.797   0.803   0.811
  0.817   0.820   0.824   0.829   0.837   0.849   0.851   0.859
  0.865   0.867   0.873   0.885   0.890   0.894   0.915   0.919
  0.925   0.929   0.938   0.952   0.966   0.968   0.980   0.987
  1.010   1.015   1.023   1.043   1.051   1.063   1.079   1.087
  1.099   1.111   1.116   1.128   1.136   1.154   1.158   1.175
  1.181   1.189   1.205   1.219   1.230   1.255   1.259   1.280
  1.284   1.301   1.306   1.322   1.332   1.350   1.361   1.380
  1.382   1.399   1.401   1.415   1.428   1.440   1.448   1.458
  1.470   1.482   1.495   1.510   1.528   1.544   1.565   1.597
  1.606   1.660   1.683   1.693   1.741   1.757   1.774   1.823
  1.865   1.874   1.897   1.901   1.906   1.913   1.930   1.931
  1.946   1.954   1.961   1.970   1.983   1.999   2.021   2.032
  2.047   2.054   2.074   2.083   2.090   2.112   2.137   2.149
  2.166   2.174   2.187   2.189   2.216   2.225   2.260   2.276
  2.289   2.294   2.314   2.319   2.342   2.347   2.359   2.385
  2.394   2.437   2.457   2.470   2.478   2.486   2.503   2.516
  2.532   2.554   2.582   2.592   2.601   2.605   2.625   2.639
  2.664   2.675   2.681   2.698   2.737   2.781   2.812   2.822
  2.852   2.864   2.881   2.899   2.918   2.927   2.952   2.992
  2.996   3.005   3.026   3.044   3.060   3.093   3.115   3.122
  3.133   3.145   3.152   3.179   3.199   3.216   3.231   3.249
  3.274   3.280   3.292   3.299   3.310   3.315   3.341   3.361
  3.373   3.389   3.403   3.411   3.420   3.447   3.459   3.469
  3.496   3.505   3.520   3.538   3.550   3.562   3.580   3.597
  3.606   3.619   3.632   3.635   3.652   3.671   3.688   3.707
  3.720   3.732   3.744   3.753   3.773   3.778   3.792   3.812
  3.842   3.864   3.908   3.929   4.013   4.045   4.081   4.088
  4.106   4.122   4.147   4.194   4.243   4.274   4.314   4.331
  4.352   4.406   4.453   4.488   4.593   4.612   4.656   4.700
  4.715   4.755   4.821   4.868   4.893   4.943   4.970   5.037
  5.043   5.072   5.083   5.145   5.185   5.213   5.253   5.321
  5.328   5.361   5.366   5.371   5.392   5.424   5.476   5.498
  5.508   5.538   5.563   5.576   5.648   5.666   5.706   5.711
  5.719   5.760   5.779   5.839   5.999   6.015   6.056   6.081
  6.239   6.249   6.298   6.302   6.314   6.361   6.369   6.599
  6.617   6.637   6.647   6.661   6.674   6.680   6.707   6.733
  6.739   6.754   6.774   6.804   6.861   6.872   6.926   6.956
  6.982   7.008   7.034   7.060   7.077   7.086   7.148   7.240
  7.250   7.279   7.368   7.388   7.392   7.434   7.492   7.518
  7.525   8.244  22.616  22.816  22.909  23.695  23.774  44.031
 44.366  44.377  44.463  44.491  44.554
 --------------------------------------------------------------
 
          Ground-State Mulliken Net Atomic Charges

     Atom                 Charge (a.u.)
  ----------------------------------------
      1 C                    -0.849210
      2 H                     0.210401
      3 H                     0.240939
      4 H                     0.234371
      5 C                     0.582207
      6 C                    -0.077875
      7 H                     0.246209
      8 H                     0.153883
      9 C                     0.092129
     10 H                     0.201459
     11 C                     0.133061
     12 O                    -0.630431
     13 O                    -0.560323
     14 O                    -0.744518
     15 O                    -0.710539
     16 H                     0.202084
     17 O                    -0.668066
     18 O                    -0.424789
     19 H                     0.369007
  ----------------------------------------
  Sum of atomic charges =    -2.000000

 -----------------------------------------------------------------
                    Cartesian Multipole Moments
 -----------------------------------------------------------------
    Charge (ESU x 10^10)
                -9.6064
    Dipole Moment (Debye)
         X     -15.2875      Y       1.1145      Z      -2.7646
       Tot      15.5754
    Quadrupole Moments (Debye-Ang)
        XX    -127.8043     XY       0.9995     YY    -112.8974
        XZ       5.4135     YZ       4.3127     ZZ     -77.3932
    Octopole Moments (Debye-Ang^2)
       XXX    -218.6942    XXY      36.3880    XYY    -125.4081
       YYY     -15.8369    XXZ     -23.7804    XYZ       5.3214
       YYZ     -24.7392    XZZ     -31.8969    YZZ       4.2769
       ZZZ     -19.6059
    Hexadecapole Moments (Debye-Ang^3)
      XXXX   -2463.6229   XXXY     120.1105   XXYY    -701.5474
      XYYY      56.2728   YYYY   -1071.9852   XXXZ     -23.6887
      XXYZ      43.0848   XYYZ     -58.3756   YYYZ      18.2904
      XXZZ    -425.9820   XYZZ      23.5960   YYZZ    -207.8984
      XZZZ     -82.1702   YZZZ      28.7469   ZZZZ    -297.5446
 -----------------------------------------------------------------
 Calculating analytic gradient of the SCF energy
 Gradient of SCF Energy
            1           2           3           4           5           6
    1  -0.0536354  -0.0028597   0.0544667  -0.0119197   0.0531503   0.0373636
    2   0.0198916  -0.0587288   0.0221161   0.0006807  -0.0082364  -0.0556781
    3  -0.0382434  -0.0141752  -0.0144948   0.0573122   0.0524994  -0.0924642
            7           8           9          10          11          12
    1  -0.0574824   0.0743301  -0.0895722  -0.0260174   0.0107183  -0.0014678
    2   0.0116281   0.0652017   0.0189954   0.0149539   0.0071811   0.0239791
    3   0.0430483  -0.0097926   0.1430364  -0.0614714  -0.0537103  -0.0458755
           13          14          15          16          17          18
    1  -0.0429228  -0.0367974   0.0061281   0.0730575  -0.0286503   0.0461553
    2   0.0099177   0.0283878  -0.0628276  -0.0167197  -0.0235950   0.0656265
    3  -0.0067368   0.0370670  -0.0061370  -0.0078229   0.0551924  -0.0558080
           19
    1  -0.0040447
    2  -0.0627740
    3   0.0185765
 Max gradient component =       1.430E-01
 RMS gradient           =       4.628E-02
 Computing fast CPCM-ISWIG gradient
 Updating gradient with PCM contributions...
 -- total gradient after adding PCM contribution --
---------------------------------------------------
  Atom         X              Y              Z     
---------------------------------------------------
   1       0.001025       0.000085      -0.000073
   2      -0.000087       0.000004       0.000037
   3      -0.000505      -0.000178       0.000120
   4      -0.000113       0.000044       0.000097
   5      -0.000262       0.000066      -0.000087
   6       0.000026      -0.000010      -0.000008
   7      -0.000002       0.000022      -0.000027
   8       0.000004      -0.000013      -0.000036
   9      -0.000001      -0.000018       0.000007
  10       0.000001      -0.000038      -0.000000
  11      -0.000004       0.000000       0.000026
  12       0.000021      -0.000023      -0.000008
  13      -0.000098       0.000060      -0.000025
  14      -0.000003       0.000018       0.000018
  15      -0.000006      -0.000007       0.000056
  16      -0.000001      -0.000029       0.000019
  17       0.000001      -0.000011      -0.000049
  18       0.000002       0.000013      -0.000044
  19       0.000002       0.000017      -0.000023
---------------------------------------------------
 Number of fixed atoms: 0
 Gradient time:  CPU 955.42 s  wall 246.77 s
 ----------------------------------------------------------------
             Standard Nuclear Orientation (Angstroms)
    I     Atom           X                Y                Z
 ----------------------------------------------------------------
    1      C      -3.1254013448     0.6124285276    -0.9962948017
    2      H      -3.1170544490     1.6723215314    -0.7206074227
    3      H      -4.1026070729     0.1994644110    -0.7448774582
    4      H      -2.9454919576     0.5399559589    -2.0702469954
    5      C      -2.0329122380    -0.0893735846    -0.2060097718
    6      C       0.5441521289    -0.8616260289     0.1732379755
    7      H       1.0024602452    -1.0675566045    -0.7788438283
    8      H      -0.0836235480    -1.6095846044     0.6289321592
    9      C       0.9269419032     0.3544119641     0.9744877073
   10      H       1.4625041102     0.0210000954     1.8677150888
   11      C       1.8482644319     1.3429676159     0.2465834100
   12      O      -2.2881482602    -0.5837961764     0.9016239772
   13      O      -0.8734860631    -0.0869834017    -0.7635650453
   14      O       2.7439332800     0.8654857721    -0.5077510885
   15      O       1.6763122983     2.5635361316     0.4786797369
   16      H       0.0297734683     0.8758993995     1.3104299533
   17      O       2.1245803647    -2.0149663400     0.8132622229
   18      O       3.1183282474    -1.8537742626    -0.2357274970
   19      H       3.0904744556    -0.8798104041    -0.3710283226
 ----------------------------------------------------------------
 Nuclear Repulsion Energy =   630.9104158365 hartrees
 There are       44 alpha and       44 beta electrons
 Discretize the solute cavity surface with Lebedev spheres
	Using 110 Lebedev grid points for each H atom
	Using 110 Lebedev grid points for other atoms
	Atomic van der Waals radii will be scaled by 1.20
 Remove points where switching function is < 1.0e-08
 Keep 1100 surface tesserae and discard 990 interior tesserae
 Molecular Surface Area = 201.680 Angst**2
 Requested basis set is def2-TZVPD
 There are 189 shells and 497 basis functions
 A cutoff of  1.0D-14 yielded  15992 shell pairs
 There are    110930 function pairs (    141258 Cartesian)
 Smallest overlap matrix eigenvalue = 3.24E-06
 Guess MOs from SCF MO coefficient file
 Reading MOs from coefficient file
 Reading MOs from coefficient file
 Long-range K will be added via erf
 Coulomb attenuation parameter = 0.3 bohr**(-1)
 A restricted hybrid HF-DFT SCF calculation will be
 performed using Pulay DIIS extrapolation
 Polarizable Continuum solvation model will be applied
 Exchange:     0.1670 Hartree-Fock + 1.0000 wB97X-V + LR-HF
 Correlation:  1.0000 wB97X-V
 Using SG-2 standard quadrature grid
 Nonlocal Correlation:  VV10 with C = 0.0100 and b = 6.00
 Grid used for NLC:  SG-1 standard quadrature
 SCF converges when DIIS error is below 1.0E-08
Using Q-Chem read-in guess as SCF_GUESS READ specified.

 using 4 threads for integral computing
 -------------------------------------------------------
 OpenMP Integral computing Module                
 Release: version 1.0, May 2013, Q-Chem Inc. Pittsburgh 
 -------------------------------------------------------
 using 4 threads for integral computing
 -------------------------------------------------------
 OpenMP Integral computing Module                
 Release: version 1.0, May 2013, Q-Chem Inc. Pittsburgh 
 -------------------------------------------------------
 -------------------------------------------------------
 OpenMP BLAS3 based DFT computing Module                
 Release: version 1.0, May 2013, Q-Chem Inc. Pittsburgh 
 -------------------------------------------------------
 -------------------------------------------------------
 OpenMP BLAS3 based DFT computing Module                
 Release: version 1.0, May 2013, Q-Chem Inc. Pittsburgh 
 -------------------------------------------------------
 -------------------------------------------------------
 OpenMP BLAS3 based DFT computing Module                
 Release: version 1.0, May 2013, Q-Chem Inc. Pittsburgh 
 -------------------------------------------------------
 ---------------------------------------
  Cycle       Energy         DIIS Error
 ---------------------------------------
    1    -646.6163465094      2.98E-04
    2    -646.9152030287      3.04E-04
    3    -646.9194808722      1.45E-04
    4    -646.9202257949      1.05E-04
    5    -646.9206859324      8.14E-05
    6    -646.9209630822      6.31E-05
    7    -646.9211919951      4.33E-05
    8    -646.9213275353      2.51E-05
    9    -646.9213883962      8.86E-06
   10    -646.9213962038      2.74E-06
   11    -646.9213970198      4.27E-07
   12    -646.9213970371      9.64E-08
   13    -646.9213970379      2.30E-08
   14    -646.9213970379      1.04E-08
   15    -646.9213970379      2.91E-09 Convergence criterion met
 ---------------------------------------

************** Final PCM Free Energy Summary **************
 G_electrostatic  =      -0.30581530 hartree =    -191.90199709 kcal/mol
 G_cavitation     =       0.00000000 hartree =       0.00000000 kcal/mol
 G_dispersion     =       0.00000000 hartree =       0.00000000 kcal/mol
 G_repulsion      =       0.00000000 hartree =       0.00000000 kcal/mol
 --------------------------------------------------
 Non-electrostatic Free Energy =       0.00000000 hartree =       0.00000000 kcal/mol
 Total                         =      -0.30581530 hartree =    -191.90199709 kcal/mol
 --------------------------------------------------
 SCF Energy (H0 + V/2)                       =    -646.92139704 
 Solute Internal Energy (H0)                 =    -646.61558174 
 Total Free Energy (H0 + V/2 + non-elec)     =    -646.92139704 hartree
                                             = -405949.30363386 kcal/mol
***********************************************************

 SCF time:  CPU 4343.10 s  wall 1122.02 s
 SCF   energy in the final basis set = -646.92139704
 Total energy in the final basis set = -646.92139704
 
 --------------------------------------------------------------
 
                    Orbital Energies (a.u.)
 --------------------------------------------------------------
 
 Alpha MOs
 -- Occupied --
-19.196 -19.184 -19.162 -19.153 -19.148 -19.145 -10.366 -10.348
-10.322 -10.252 -10.252  -1.177  -1.153  -1.142  -1.083  -1.057
 -0.909  -0.872  -0.845  -0.749  -0.636  -0.614  -0.585  -0.575
 -0.554  -0.552  -0.538  -0.534  -0.522  -0.501  -0.489  -0.476
 -0.473  -0.465  -0.450  -0.434  -0.383  -0.375  -0.356  -0.354
 -0.345  -0.340  -0.303  -0.278
 -- Virtual --
  0.060   0.073   0.078   0.081   0.099   0.101   0.106   0.111
  0.114   0.128   0.132   0.133   0.139   0.144   0.150   0.155
  0.157   0.160   0.167   0.179   0.185   0.188   0.196   0.201
  0.205   0.212   0.219   0.227   0.228   0.235   0.250   0.252
  0.254   0.260   0.267   0.277   0.281   0.286   0.291   0.299
  0.303   0.312   0.315   0.324   0.328   0.342   0.346   0.349
  0.355   0.358   0.363   0.366   0.370   0.379   0.381   0.386
  0.391   0.395   0.403   0.409   0.413   0.420   0.422   0.430
  0.436   0.440   0.442   0.448   0.454   0.459   0.472   0.478
  0.479   0.482   0.488   0.496   0.502   0.505   0.511   0.511
  0.522   0.529   0.530   0.538   0.543   0.549   0.550   0.557
  0.562   0.565   0.573   0.577   0.585   0.597   0.604   0.605
  0.615   0.618   0.629   0.636   0.641   0.643   0.656   0.670
  0.674   0.677   0.678   0.691   0.692   0.700   0.703   0.714
  0.723   0.727   0.729   0.735   0.745   0.747   0.754   0.762
  0.770   0.774   0.777   0.786   0.795   0.797   0.804   0.811
  0.817   0.820   0.824   0.829   0.837   0.849   0.851   0.859
  0.865   0.867   0.873   0.885   0.890   0.894   0.915   0.919
  0.925   0.929   0.938   0.952   0.966   0.968   0.980   0.987
  1.010   1.015   1.023   1.043   1.051   1.063   1.079   1.087
  1.099   1.111   1.116   1.128   1.136   1.154   1.158   1.175
  1.181   1.189   1.205   1.219   1.230   1.255   1.259   1.280
  1.284   1.301   1.306   1.322   1.332   1.350   1.361   1.380
  1.382   1.399   1.400   1.415   1.428   1.440   1.448   1.458
  1.470   1.482   1.494   1.510   1.528   1.544   1.565   1.597
  1.606   1.660   1.683   1.693   1.741   1.757   1.774   1.823
  1.865   1.874   1.897   1.901   1.906   1.913   1.930   1.930
  1.946   1.954   1.961   1.970   1.983   1.999   2.021   2.032
  2.047   2.054   2.074   2.083   2.090   2.112   2.137   2.149
  2.166   2.174   2.187   2.189   2.216   2.224   2.260   2.276
  2.289   2.294   2.314   2.319   2.342   2.347   2.359   2.385
  2.394   2.437   2.457   2.470   2.478   2.486   2.503   2.516
  2.532   2.555   2.582   2.592   2.601   2.605   2.625   2.639
  2.664   2.675   2.681   2.698   2.737   2.781   2.812   2.822
  2.852   2.864   2.882   2.899   2.918   2.927   2.952   2.992
  2.996   3.005   3.026   3.044   3.060   3.093   3.115   3.122
  3.133   3.145   3.152   3.179   3.199   3.216   3.231   3.249
  3.274   3.280   3.292   3.299   3.310   3.316   3.342   3.361
  3.373   3.389   3.403   3.411   3.420   3.447   3.460   3.469
  3.496   3.505   3.520   3.538   3.550   3.562   3.579   3.597
  3.606   3.619   3.632   3.635   3.652   3.671   3.688   3.707
  3.720   3.732   3.744   3.753   3.773   3.778   3.792   3.812
  3.842   3.864   3.907   3.929   4.012   4.045   4.080   4.087
  4.106   4.122   4.147   4.194   4.243   4.273   4.314   4.331
  4.352   4.406   4.453   4.488   4.593   4.612   4.655   4.701
  4.716   4.755   4.821   4.868   4.893   4.943   4.970   5.037
  5.043   5.072   5.083   5.145   5.185   5.213   5.253   5.321
  5.328   5.361   5.366   5.371   5.392   5.424   5.476   5.498
  5.508   5.538   5.563   5.576   5.648   5.666   5.706   5.711
  5.719   5.760   5.779   5.839   5.999   6.015   6.056   6.081
  6.239   6.249   6.298   6.301   6.313   6.361   6.369   6.599
  6.617   6.637   6.647   6.661   6.673   6.680   6.707   6.733
  6.739   6.754   6.773   6.804   6.861   6.872   6.926   6.956
  6.982   7.008   7.034   7.059   7.077   7.085   7.148   7.240
  7.250   7.279   7.368   7.388   7.391   7.434   7.492   7.518
  7.525   8.244  22.616  22.816  22.909  23.693  23.774  44.031
 44.366  44.377  44.463  44.490  44.554
 --------------------------------------------------------------
 
          Ground-State Mulliken Net Atomic Charges

     Atom                 Charge (a.u.)
  ----------------------------------------
      1 C                    -0.848877
      2 H                     0.210408
      3 H                     0.241488
      4 H                     0.234069
      5 C                     0.581465
      6 C                    -0.077508
      7 H                     0.246133
      8 H                     0.153853
      9 C                     0.092024
     10 H                     0.201468
     11 C                     0.133066
     12 O                    -0.630348
     13 O                    -0.560436
     14 O                    -0.744514
     15 O                    -0.710536
     16 H                     0.202047
     17 O                    -0.668035
     18 O                    -0.424779
     19 H                     0.369014
  ----------------------------------------
  Sum of atomic charges =    -2.000000

 -----------------------------------------------------------------
                    Cartesian Multipole Moments
 -----------------------------------------------------------------
    Charge (ESU x 10^10)
                -9.6064
    Dipole Moment (Debye)
         X     -15.2847      Y       1.1122      Z      -2.7625
       Tot      15.5721
    Quadrupole Moments (Debye-Ang)
        XX    -127.8058     XY       1.0057     YY    -112.8975
        XZ       5.4056     YZ       4.3144     ZZ     -77.3974
    Octopole Moments (Debye-Ang^2)
       XXX    -218.6596    XXY      36.3509    XYY    -125.3839
       YYY     -15.8459    XXZ     -23.7480    XYZ       5.3108
       YYZ     -24.7352    XZZ     -31.8659    YZZ       4.2721
       ZZZ     -19.5918
    Hexadecapole Moments (Debye-Ang^3)
      XXXX   -2463.8625   XXXY     120.2560   XXYY    -701.6382
      XYYY      56.3089   YYYY   -1071.9796   XXXZ     -23.8290
      XXYZ      43.1249   XYYZ     -58.3959   YYYZ      18.2931
      XXZZ    -426.1104   XYZZ      23.6183   YYZZ    -207.9020
      XZZZ     -82.2511   YZZZ      28.7563   ZZZZ    -297.5831
 -----------------------------------------------------------------
 Calculating analytic gradient of the SCF energy
 Gradient of SCF Energy
            1           2           3           4           5           6
    1  -0.0553257  -0.0028328   0.0555241  -0.0118455   0.0536887   0.0373668
    2   0.0198328  -0.0586883   0.0225077   0.0006886  -0.0085585  -0.0556913
    3  -0.0380178  -0.0142010  -0.0147495   0.0571053   0.0527162  -0.0924565
            7           8           9          10          11          12
    1  -0.0574929   0.0743396  -0.0895998  -0.0260148   0.0107265  -0.0015174
    2   0.0116457   0.0651819   0.0190226   0.0149518   0.0071822   0.0239730
    3   0.0430524  -0.0097921   0.1430053  -0.0614698  -0.0536967  -0.0458580
           13          14          15          16          17          18
    1  -0.0428728  -0.0367953   0.0061270   0.0730631  -0.0286442   0.0461519
    2   0.0098659   0.0283878  -0.0628254  -0.0167296  -0.0235969   0.0656243
    3  -0.0066966   0.0370649  -0.0061378  -0.0078302   0.0551928  -0.0558067
           19
    1  -0.0040465
    2  -0.0627741
    3   0.0185758
 Max gradient component =       1.430E-01
 RMS gradient           =       4.635E-02
 Computing fast CPCM-ISWIG gradient
 Updating gradient with PCM contributions...
 -- total gradient after adding PCM contribution --
---------------------------------------------------
  Atom         X              Y              Z     
---------------------------------------------------
   1      -0.001032      -0.000060       0.000108
   2       0.000077       0.000012       0.000043
   3       0.000505       0.000192      -0.000104
   4       0.000107       0.000033      -0.000067
   5       0.000261      -0.000069       0.000087
   6      -0.000012       0.000008      -0.000035
   7       0.000003       0.000019      -0.000024
   8       0.000007      -0.000016      -0.000034
   9       0.000001      -0.000020       0.000008
  10       0.000001      -0.000037      -0.000000
  11      -0.000005      -0.000001       0.000027
  12      -0.000016      -0.000026      -0.000013
  13       0.000095      -0.000031       0.000023
  14      -0.000002       0.000019       0.000018
  15      -0.000006      -0.000006       0.000055
  16      -0.000001      -0.000028       0.000019
  17       0.000010      -0.000019      -0.000042
  18       0.000004       0.000013      -0.000045
  19       0.000001       0.000017      -0.000023
---------------------------------------------------
 Number of fixed atoms: 0
 Gradient time:  CPU 951.13 s  wall 245.29 s
 ----------------------------------------------------------------
             Standard Nuclear Orientation (Angstroms)
    I     Atom           X                Y                Z
 ----------------------------------------------------------------
    1      C      -3.1244013448     0.6134285276    -0.9962948017
    2      H      -3.1170544490     1.6723215314    -0.7206074227
    3      H      -4.1026070729     0.1994644110    -0.7448774582
    4      H      -2.9454919576     0.5399559589    -2.0702469954
    5      C      -2.0329122380    -0.0893735846    -0.2060097718
    6      C       0.5441521289    -0.8616260289     0.1732379755
    7      H       1.0024602452    -1.0675566045    -0.7788438283
    8      H      -0.0836235480    -1.6095846044     0.6289321592
    9      C       0.9269419032     0.3544119641     0.9744877073
   10      H       1.4625041102     0.0210000954     1.8677150888
   11      C       1.8482644319     1.3429676159     0.2465834100
   12      O      -2.2881482602    -0.5837961764     0.9016239772
   13      O      -0.8734860631    -0.0869834017    -0.7635650453
   14      O       2.7439332800     0.8654857721    -0.5077510885
   15      O       1.6763122983     2.5635361316     0.4786797369
   16      H       0.0297734683     0.8758993995     1.3104299533
   17      O       2.1245803647    -2.0149663400     0.8132622229
   18      O       3.1183282474    -1.8537742626    -0.2357274970
   19      H       3.0904744556    -0.8798104041    -0.3710283226
 ----------------------------------------------------------------
 Nuclear Repulsion Energy =   630.9193283932 hartrees
 There are       44 alpha and       44 beta electrons
 Discretize the solute cavity surface with Lebedev spheres
	Using 110 Lebedev grid points for each H atom
	Using 110 Lebedev grid points for other atoms
	Atomic van der Waals radii will be scaled by 1.20
 Remove points where switching function is < 1.0e-08
 Keep 1100 surface tesserae and discard 990 interior tesserae
 Molecular Surface Area = 201.676 Angst**2
 Requested basis set is def2-TZVPD
 There are 189 shells and 497 basis functions
 A cutoff of  1.0D-14 yielded  15992 shell pairs
 There are    110930 function pairs (    141258 Cartesian)
 Smallest overlap matrix eigenvalue = 3.24E-06
 Guess MOs from SCF MO coefficient file
 Reading MOs from coefficient file
 Reading MOs from coefficient file
 Long-range K will be added via erf
 Coulomb attenuation parameter = 0.3 bohr**(-1)
 A restricted hybrid HF-DFT SCF calculation will be
 performed using Pulay DIIS extrapolation
 Polarizable Continuum solvation model will be applied
 Exchange:     0.1670 Hartree-Fock + 1.0000 wB97X-V + LR-HF
 Correlation:  1.0000 wB97X-V
 Using SG-2 standard quadrature grid
 Nonlocal Correlation:  VV10 with C = 0.0100 and b = 6.00
 Grid used for NLC:  SG-1 standard quadrature
 SCF converges when DIIS error is below 1.0E-08
Using Q-Chem read-in guess as SCF_GUESS READ specified.

 using 4 threads for integral computing
 -------------------------------------------------------
 OpenMP Integral computing Module                
 Release: version 1.0, May 2013, Q-Chem Inc. Pittsburgh 
 -------------------------------------------------------
 using 4 threads for integral computing
 -------------------------------------------------------
 OpenMP Integral computing Module                
 Release: version 1.0, May 2013, Q-Chem Inc. Pittsburgh 
 -------------------------------------------------------
 -------------------------------------------------------
 OpenMP BLAS3 based DFT computing Module                
 Release: version 1.0, May 2013, Q-Chem Inc. Pittsburgh 
 -------------------------------------------------------
 -------------------------------------------------------
 OpenMP BLAS3 based DFT computing Module                
 Release: version 1.0, May 2013, Q-Chem Inc. Pittsburgh 
 -------------------------------------------------------
 -------------------------------------------------------
 OpenMP BLAS3 based DFT computing Module                
 Release: version 1.0, May 2013, Q-Chem Inc. Pittsburgh 
 -------------------------------------------------------
 ---------------------------------------
  Cycle       Energy         DIIS Error
 ---------------------------------------
    1    -646.6153999047      2.99E-04
    2    -646.9151841773      3.05E-04
    3    -646.9194753195      1.45E-04
    4    -646.9202216395      1.06E-04
    5    -646.9206813374      8.17E-05
    6    -646.9209478230      6.43E-05
    7    -646.9211514649      4.74E-05
    8    -646.9212851768      3.19E-05
    9    -646.9213730322      1.48E-05
   10    -646.9213934491      5.74E-06
   11    -646.9213969509      1.04E-06
   12    -646.9213970613      2.19E-07
   13    -646.9213970661      2.91E-08
   14    -646.9213970662      1.32E-08
   15    -646.9213970662      3.82E-09 Convergence criterion met
 ---------------------------------------

************** Final PCM Free Energy Summary **************
 G_electrostatic  =      -0.30581794 hartree =    -191.90365532 kcal/mol
 G_cavitation     =       0.00000000 hartree =       0.00000000 kcal/mol
 G_dispersion     =       0.00000000 hartree =       0.00000000 kcal/mol
 G_repulsion      =       0.00000000 hartree =       0.00000000 kcal/mol
 --------------------------------------------------
 Non-electrostatic Free Energy =       0.00000000 hartree =       0.00000000 kcal/mol
 Total                         =      -0.30581794 hartree =    -191.90365532 kcal/mol
 --------------------------------------------------
 SCF Energy (H0 + V/2)                       =    -646.92139707 
 Solute Internal Energy (H0)                 =    -646.61557912 
 Total Free Energy (H0 + V/2 + non-elec)     =    -646.92139707 hartree
                                             = -405949.30365157 kcal/mol
***********************************************************

 SCF time:  CPU 4343.28 s  wall 1122.47 s
 SCF   energy in the final basis set = -646.92139707
 Total energy in the final basis set = -646.92139707
 
 --------------------------------------------------------------
 
                    Orbital Energies (a.u.)
 --------------------------------------------------------------
 
 Alpha MOs
 -- Occupied --
-19.196 -19.184 -19.162 -19.153 -19.148 -19.145 -10.366 -10.348
-10.322 -10.252 -10.252  -1.177  -1.153  -1.142  -1.083  -1.057
 -0.909  -0.872  -0.845  -0.749  -0.636  -0.614  -0.585  -0.575
 -0.554  -0.552  -0.538  -0.534  -0.522  -0.501  -0.489  -0.476
 -0.473  -0.465  -0.450  -0.434  -0.383  -0.375  -0.356  -0.354
 -0.345  -0.340  -0.303  -0.278
 -- Virtual --
  0.060   0.073   0.078   0.081   0.099   0.101   0.106   0.111
  0.114   0.128   0.132   0.133   0.139   0.144   0.150   0.155
  0.157   0.160   0.167   0.179   0.185   0.188   0.196   0.201
  0.205   0.212   0.219   0.227   0.228   0.235   0.250   0.252
  0.254   0.260   0.267   0.277   0.281   0.286   0.291   0.299
  0.303   0.312   0.315   0.324   0.328   0.342   0.346   0.349
  0.355   0.358   0.363   0.366   0.370   0.379   0.381   0.386
  0.391   0.395   0.403   0.409   0.413   0.420   0.422   0.430
  0.436   0.440   0.442   0.448   0.454   0.459   0.472   0.478
  0.479   0.482   0.488   0.496   0.502   0.505   0.511   0.511
  0.522   0.529   0.530   0.538   0.543   0.549   0.550   0.557
  0.562   0.565   0.573   0.577   0.585   0.597   0.604   0.605
  0.615   0.618   0.629   0.636   0.641   0.643   0.656   0.670
  0.674   0.677   0.678   0.691   0.692   0.700   0.703   0.714
  0.723   0.727   0.729   0.736   0.745   0.747   0.754   0.762
  0.770   0.774   0.777   0.786   0.796   0.797   0.804   0.811
  0.817   0.820   0.824   0.829   0.837   0.849   0.851   0.859
  0.865   0.867   0.873   0.885   0.890   0.894   0.915   0.918
  0.925   0.929   0.938   0.952   0.966   0.968   0.980   0.987
  1.010   1.015   1.023   1.043   1.051   1.063   1.079   1.087
  1.099   1.111   1.116   1.128   1.136   1.154   1.158   1.175
  1.181   1.189   1.205   1.219   1.230   1.255   1.259   1.280
  1.284   1.301   1.306   1.322   1.332   1.350   1.361   1.380
  1.382   1.399   1.400   1.415   1.428   1.440   1.448   1.458
  1.470   1.482   1.494   1.510   1.528   1.544   1.565   1.597
  1.606   1.660   1.683   1.693   1.741   1.757   1.774   1.823
  1.865   1.874   1.897   1.901   1.906   1.913   1.930   1.931
  1.946   1.954   1.961   1.970   1.983   1.999   2.021   2.032
  2.047   2.054   2.074   2.083   2.090   2.112   2.137   2.149
  2.166   2.174   2.187   2.189   2.216   2.224   2.260   2.276
  2.289   2.294   2.314   2.319   2.342   2.347   2.359   2.385
  2.394   2.437   2.457   2.470   2.478   2.486   2.503   2.516
  2.532   2.554   2.582   2.592   2.601   2.605   2.625   2.639
  2.663   2.675   2.681   2.698   2.737   2.781   2.812   2.822
  2.852   2.864   2.882   2.899   2.918   2.927   2.952   2.992
  2.996   3.005   3.026   3.044   3.060   3.093   3.115   3.122
  3.133   3.145   3.152   3.179   3.199   3.216   3.231   3.249
  3.274   3.280   3.292   3.299   3.310   3.316   3.342   3.361
  3.373   3.389   3.403   3.411   3.420   3.447   3.460   3.469
  3.496   3.505   3.520   3.538   3.550   3.562   3.579   3.597
  3.606   3.619   3.632   3.635   3.652   3.671   3.688   3.707
  3.720   3.732   3.744   3.753   3.773   3.778   3.792   3.812
  3.842   3.864   3.907   3.929   4.012   4.045   4.081   4.087
  4.106   4.122   4.147   4.194   4.243   4.273   4.314   4.331
  4.352   4.406   4.453   4.488   4.593   4.612   4.656   4.701
  4.716   4.755   4.821   4.868   4.893   4.943   4.970   5.037
  5.043   5.072   5.083   5.145   5.185   5.213   5.253   5.321
  5.328   5.361   5.366   5.371   5.392   5.424   5.476   5.498
  5.508   5.538   5.563   5.576   5.648   5.666   5.706   5.711
  5.719   5.760   5.779   5.839   5.999   6.015   6.056   6.081
  6.239   6.249   6.298   6.301   6.313   6.361   6.369   6.599
  6.617   6.637   6.647   6.661   6.673   6.680   6.707   6.733
  6.739   6.754   6.773   6.804   6.861   6.872   6.926   6.956
  6.982   7.008   7.034   7.059   7.077   7.085   7.148   7.240
  7.250   7.279   7.368   7.388   7.391   7.434   7.492   7.518
  7.525   8.244  22.616  22.816  22.909  23.694  23.774  44.031
 44.366  44.377  44.463  44.490  44.554
 --------------------------------------------------------------
 
          Ground-State Mulliken Net Atomic Charges

     Atom                 Charge (a.u.)
  ----------------------------------------
      1 C                    -0.848344
      2 H                     0.210594
      3 H                     0.240950
      4 H                     0.234134
      5 C                     0.581361
      6 C                    -0.077823
      7 H                     0.246172
      8 H                     0.153841
      9 C                     0.092137
     10 H                     0.201442
     11 C                     0.133042
     12 O                    -0.630370
     13 O                    -0.560370
     14 O                    -0.744517
     15 O                    -0.710536
     16 H                     0.202109
     17 O                    -0.668049
     18 O                    -0.424786
     19 H                     0.369015
  ----------------------------------------
  Sum of atomic charges =    -2.000000

 -----------------------------------------------------------------
                    Cartesian Multipole Moments
 -----------------------------------------------------------------
    Charge (ESU x 10^10)
                -9.6064
    Dipole Moment (Debye)
         X     -15.2851      Y       1.1129      Z      -2.7628
       Tot      15.5726
    Quadrupole Moments (Debye-Ang)
        XX    -127.8117     XY       1.0049     YY    -112.8966
        XZ       5.4070     YZ       4.3151     ZZ     -77.3954
    Octopole Moments (Debye-Ang^2)
       XXX    -218.6401    XXY      36.3559    XYY    -125.3983
       YYY     -15.8517    XXZ     -23.7542    XYZ       5.3109
       YYZ     -24.7362    XZZ     -31.8792    YZZ       4.2664
       ZZZ     -19.5951
    Hexadecapole Moments (Debye-Ang^3)
      XXXX   -2463.9382   XXXY     120.2672   XXYY    -701.5923
      XYYY      56.3262   YYYY   -1072.0055   XXXZ     -23.8023
      XXYZ      43.1286   XYYZ     -58.3892   YYYZ      18.3067
      XXZZ    -426.0583   XYZZ      23.6330   YYZZ    -207.9074
      XZZZ     -82.2214   YZZZ      28.7743   ZZZZ    -297.5681
 -----------------------------------------------------------------
 Calculating analytic gradient of the SCF energy
 Gradient of SCF Energy
            1           2           3           4           5           6
    1  -0.0543567  -0.0028407   0.0547661  -0.0118815   0.0534872   0.0373555
    2   0.0207214  -0.0593114   0.0222004   0.0006795  -0.0085665  -0.0556870
    3  -0.0380560  -0.0143220  -0.0145680   0.0571443   0.0526376  -0.0924654
            7           8           9          10          11          12
    1  -0.0574922   0.0743232  -0.0895685  -0.0260153   0.0107229  -0.0014774
    2   0.0116348   0.0652029   0.0190090   0.0149553   0.0071798   0.0239825
    3   0.0430530  -0.0097961   0.1430242  -0.0614704  -0.0536982  -0.0458358
           13          14          15          16          17          18
    1  -0.0428715  -0.0367965   0.0061275   0.0730554  -0.0286471   0.0461546
    2   0.0099062   0.0283873  -0.0628253  -0.0167243  -0.0235958   0.0656234
    3  -0.0067100   0.0370654  -0.0061377  -0.0078270   0.0551924  -0.0558063
           19
    1  -0.0040450
    2  -0.0627721
    3   0.0185761
 Max gradient component =       1.430E-01
 RMS gradient           =       4.633E-02
 Computing fast CPCM-ISWIG gradient
 Updating gradient with PCM contributions...
 -- total gradient after adding PCM contribution --
---------------------------------------------------
  Atom         X              Y              Z     
---------------------------------------------------
   1       0.000070       0.000991       0.000032
   2      -0.000004      -0.000560      -0.000083
   3      -0.000181      -0.000154       0.000058
   4       0.000001      -0.000045      -0.000022
   5       0.000062      -0.000209       0.000033
   6       0.000006       0.000004      -0.000020
   7       0.000000       0.000021      -0.000026
   8       0.000004      -0.000014      -0.000035
   9       0.000002      -0.000019       0.000009
  10       0.000001      -0.000037      -0.000000
  11      -0.000004      -0.000001       0.000027
  12       0.000025      -0.000015       0.000043
  13       0.000016       0.000039       0.000007
  14      -0.000002       0.000019       0.000018
  15      -0.000006      -0.000006       0.000055
  16      -0.000001      -0.000029       0.000018
  17       0.000005      -0.000015      -0.000046
  18       0.000003       0.000013      -0.000044
  19       0.000002       0.000017      -0.000023
---------------------------------------------------
 Number of fixed atoms: 0
 Gradient time:  CPU 951.04 s  wall 245.32 s
 ----------------------------------------------------------------
             Standard Nuclear Orientation (Angstroms)
    I     Atom           X                Y                Z
 ----------------------------------------------------------------
    1      C      -3.1244013448     0.6114285276    -0.9962948017
    2      H      -3.1170544490     1.6723215314    -0.7206074227
    3      H      -4.1026070729     0.1994644110    -0.7448774582
    4      H      -2.9454919576     0.5399559589    -2.0702469954
    5      C      -2.0329122380    -0.0893735846    -0.2060097718
    6      C       0.5441521289    -0.8616260289     0.1732379755
    7      H       1.0024602452    -1.0675566045    -0.7788438283
    8      H      -0.0836235480    -1.6095846044     0.6289321592
    9      C       0.9269419032     0.3544119641     0.9744877073
   10      H       1.4625041102     0.0210000954     1.8677150888
   11      C       1.8482644319     1.3429676159     0.2465834100
   12      O      -2.2881482602    -0.5837961764     0.9016239772
   13      O      -0.8734860631    -0.0869834017    -0.7635650453
   14      O       2.7439332800     0.8654857721    -0.5077510885
   15      O       1.6763122983     2.5635361316     0.4786797369
   16      H       0.0297734683     0.8758993995     1.3104299533
   17      O       2.1245803647    -2.0149663400     0.8132622229
   18      O       3.1183282474    -1.8537742626    -0.2357274970
   19      H       3.0904744556    -0.8798104041    -0.3710283226
 ----------------------------------------------------------------
 Nuclear Repulsion Energy =   630.9326525718 hartrees
 There are       44 alpha and       44 beta electrons
 Discretize the solute cavity surface with Lebedev spheres
	Using 110 Lebedev grid points for each H atom
	Using 110 Lebedev grid points for other atoms
	Atomic van der Waals radii will be scaled by 1.20
 Remove points where switching function is < 1.0e-08
 Keep 1100 surface tesserae and discard 990 interior tesserae
 Molecular Surface Area = 201.677 Angst**2
 Requested basis set is def2-TZVPD
 There are 189 shells and 497 basis functions
 A cutoff of  1.0D-14 yielded  15992 shell pairs
 There are    110930 function pairs (    141258 Cartesian)
 Smallest overlap matrix eigenvalue = 3.24E-06
 Guess MOs from SCF MO coefficient file
 Reading MOs from coefficient file
 Reading MOs from coefficient file
 Long-range K will be added via erf
 Coulomb attenuation parameter = 0.3 bohr**(-1)
 A restricted hybrid HF-DFT SCF calculation will be
 performed using Pulay DIIS extrapolation
 Polarizable Continuum solvation model will be applied
 Exchange:     0.1670 Hartree-Fock + 1.0000 wB97X-V + LR-HF
 Correlation:  1.0000 wB97X-V
 Using SG-2 standard quadrature grid
 Nonlocal Correlation:  VV10 with C = 0.0100 and b = 6.00
 Grid used for NLC:  SG-1 standard quadrature
 SCF converges when DIIS error is below 1.0E-08
Using Q-Chem read-in guess as SCF_GUESS READ specified.

 using 4 threads for integral computing
 -------------------------------------------------------
 OpenMP Integral computing Module                
 Release: version 1.0, May 2013, Q-Chem Inc. Pittsburgh 
 -------------------------------------------------------
 using 4 threads for integral computing
 -------------------------------------------------------
 OpenMP Integral computing Module                
 Release: version 1.0, May 2013, Q-Chem Inc. Pittsburgh 
 -------------------------------------------------------
 -------------------------------------------------------
 OpenMP BLAS3 based DFT computing Module                
 Release: version 1.0, May 2013, Q-Chem Inc. Pittsburgh 
 -------------------------------------------------------
 -------------------------------------------------------
 OpenMP BLAS3 based DFT computing Module                
 Release: version 1.0, May 2013, Q-Chem Inc. Pittsburgh 
 -------------------------------------------------------
 -------------------------------------------------------
 OpenMP BLAS3 based DFT computing Module                
 Release: version 1.0, May 2013, Q-Chem Inc. Pittsburgh 
 -------------------------------------------------------
 ---------------------------------------
  Cycle       Energy         DIIS Error
 ---------------------------------------
    1    -646.6151626898      2.99E-04
    2    -646.9151906933      3.05E-04
    3    -646.9194773791      1.45E-04
    4    -646.9202233529      1.06E-04
    5    -646.9206871171      8.14E-05
    6    -646.9209623917      6.32E-05
    7    -646.9211831583      4.42E-05
    8    -646.9213201695      2.64E-05
    9    -646.9213867161      9.72E-06
   10    -646.9213960268      3.15E-06
   11    -646.9213970933      5.22E-07
   12    -646.9213971200      1.13E-07
   13    -646.9213971212      2.28E-08
   14    -646.9213971212      1.41E-08
   15    -646.9213971212      3.34E-09 Convergence criterion met
 ---------------------------------------

************** Final PCM Free Energy Summary **************
 G_electrostatic  =      -0.30583196 hartree =    -191.91245366 kcal/mol
 G_cavitation     =       0.00000000 hartree =       0.00000000 kcal/mol
 G_dispersion     =       0.00000000 hartree =       0.00000000 kcal/mol
 G_repulsion      =       0.00000000 hartree =       0.00000000 kcal/mol
 --------------------------------------------------
 Non-electrostatic Free Energy =       0.00000000 hartree =       0.00000000 kcal/mol
 Total                         =      -0.30583196 hartree =    -191.91245366 kcal/mol
 --------------------------------------------------
 SCF Energy (H0 + V/2)                       =    -646.92139712 
 Solute Internal Energy (H0)                 =    -646.61556516 
 Total Free Energy (H0 + V/2 + non-elec)     =    -646.92139712 hartree
                                             = -405949.30368612 kcal/mol
***********************************************************

 SCF time:  CPU 4342.74 s  wall 1122.09 s
 SCF   energy in the final basis set = -646.92139712
 Total energy in the final basis set = -646.92139712
 
 --------------------------------------------------------------
 
                    Orbital Energies (a.u.)
 --------------------------------------------------------------
 
 Alpha MOs
 -- Occupied --
-19.196 -19.184 -19.162 -19.153 -19.148 -19.145 -10.366 -10.348
-10.322 -10.252 -10.251  -1.177  -1.153  -1.142  -1.083  -1.057
 -0.909  -0.872  -0.845  -0.749  -0.636  -0.614  -0.585  -0.575
 -0.554  -0.552  -0.538  -0.534  -0.522  -0.501  -0.489  -0.476
 -0.473  -0.465  -0.450  -0.434  -0.383  -0.375  -0.356  -0.354
 -0.345  -0.340  -0.303  -0.278
 -- Virtual --
  0.060   0.073   0.078   0.081   0.099   0.101   0.106   0.111
  0.114   0.128   0.132   0.133   0.139   0.144   0.150   0.155
  0.157   0.160   0.167   0.179   0.185   0.188   0.196   0.201
  0.205   0.212   0.219   0.227   0.228   0.235   0.250   0.252
  0.254   0.260   0.267   0.277   0.281   0.286   0.291   0.299
  0.303   0.312   0.315   0.324   0.328   0.342   0.346   0.349
  0.355   0.358   0.363   0.366   0.370   0.379   0.381   0.386
  0.391   0.395   0.403   0.409   0.413   0.420   0.422   0.430
  0.436   0.440   0.442   0.448   0.454   0.459   0.472   0.478
  0.479   0.482   0.488   0.496   0.502   0.505   0.511   0.511
  0.522   0.529   0.530   0.538   0.543   0.549   0.550   0.557
  0.562   0.565   0.573   0.577   0.585   0.598   0.604   0.605
  0.615   0.618   0.629   0.636   0.641   0.643   0.656   0.670
  0.674   0.677   0.678   0.691   0.692   0.700   0.703   0.714
  0.723   0.727   0.729   0.735   0.745   0.747   0.754   0.762
  0.770   0.774   0.777   0.786   0.795   0.797   0.804   0.811
  0.817   0.820   0.824   0.829   0.837   0.849   0.851   0.859
  0.865   0.867   0.873   0.885   0.890   0.894   0.915   0.919
  0.925   0.929   0.938   0.952   0.966   0.968   0.980   0.987
  1.010   1.015   1.023   1.043   1.051   1.063   1.079   1.087
  1.099   1.111   1.116   1.128   1.136   1.154   1.158   1.175
  1.181   1.189   1.205   1.219   1.230   1.255   1.259   1.280
  1.284   1.301   1.306   1.322   1.332   1.350   1.361   1.380
  1.382   1.399   1.400   1.415   1.428   1.440   1.448   1.458
  1.470   1.483   1.494   1.510   1.528   1.544   1.565   1.597
  1.606   1.660   1.683   1.693   1.741   1.757   1.774   1.823
  1.865   1.874   1.897   1.901   1.906   1.913   1.930   1.930
  1.946   1.954   1.961   1.970   1.983   1.999   2.021   2.032
  2.047   2.054   2.074   2.083   2.090   2.112   2.137   2.149
  2.166   2.174   2.187   2.189   2.216   2.225   2.260   2.276
  2.289   2.294   2.314   2.319   2.342   2.347   2.359   2.385
  2.394   2.437   2.457   2.470   2.478   2.486   2.503   2.516
  2.532   2.555   2.582   2.592   2.601   2.605   2.625   2.639
  2.664   2.675   2.681   2.698   2.737   2.780   2.812   2.822
  2.852   2.864   2.882   2.899   2.918   2.927   2.952   2.992
  2.996   3.005   3.026   3.044   3.060   3.093   3.115   3.122
  3.133   3.145   3.152   3.179   3.199   3.216   3.231   3.249
  3.274   3.280   3.292   3.299   3.310   3.315   3.341   3.361
  3.373   3.389   3.403   3.411   3.420   3.447   3.459   3.469
  3.496   3.505   3.520   3.538   3.550   3.562   3.579   3.597
  3.606   3.619   3.632   3.635   3.652   3.671   3.688   3.707
  3.720   3.732   3.744   3.753   3.773   3.778   3.792   3.812
  3.842   3.864   3.907   3.929   4.013   4.045   4.081   4.087
  4.106   4.122   4.147   4.194   4.243   4.274   4.314   4.331
  4.352   4.406   4.453   4.488   4.593   4.612   4.655   4.701
  4.716   4.755   4.821   4.868   4.893   4.943   4.970   5.037
  5.043   5.072   5.083   5.145   5.185   5.213   5.253   5.321
  5.328   5.361   5.366   5.371   5.392   5.424   5.476   5.498
  5.508   5.538   5.563   5.576   5.648   5.666   5.706   5.711
  5.719   5.760   5.779   5.839   5.999   6.015   6.056   6.081
  6.239   6.249   6.298   6.301   6.313   6.361   6.369   6.599
  6.617   6.637   6.647   6.661   6.673   6.680   6.707   6.733
  6.739   6.754   6.773   6.804   6.861   6.872   6.926   6.956
  6.982   7.008   7.034   7.060   7.077   7.085   7.148   7.240
  7.250   7.279   7.368   7.388   7.392   7.434   7.492   7.518
  7.525   8.244  22.616  22.816  22.909  23.695  23.774  44.031
 44.366  44.377  44.463  44.491  44.554
 --------------------------------------------------------------
 
          Ground-State Mulliken Net Atomic Charges

     Atom                 Charge (a.u.)
  ----------------------------------------
      1 C                    -0.849742
      2 H                     0.210216
      3 H                     0.241477
      4 H                     0.234305
      5 C                     0.582311
      6 C                    -0.077560
      7 H                     0.246171
      8 H                     0.153895
      9 C                     0.092015
     10 H                     0.201485
     11 C                     0.133085
     12 O                    -0.630409
     13 O                    -0.560388
     14 O                    -0.744515
     15 O                    -0.710540
     16 H                     0.202022
     17 O                    -0.668052
     18 O                    -0.424782
     19 H                     0.369006
  ----------------------------------------
  Sum of atomic charges =    -2.000000

[...]
 Red. Mass:       1.9212                 2.3463                 1.0833
 IR Active:          YES                    YES                    YES
 IR Intens:       14.744                  2.537                 28.227
 Raman Active:       YES                    YES                    YES
               X      Y      Z        X      Y      Z        X      Y      Z
 C         -0.046 -0.140 -0.087   -0.006  0.002 -0.005    0.001  0.001 -0.006
 H          0.507 -0.247  0.393   -0.005  0.003 -0.006   -0.009 -0.000  0.002
 H         -0.228  0.389  0.045   -0.011  0.011 -0.010    0.002  0.003  0.004
 H         -0.148  0.446 -0.136   -0.014  0.012 -0.008   -0.023  0.010 -0.010
 C          0.048  0.192  0.101    0.015 -0.003  0.007    0.001 -0.007  0.012
 C          0.003  0.001 -0.003   -0.031  0.112  0.192   -0.007 -0.011 -0.022
 H          0.002 -0.020  0.001    0.233  0.659  0.218   -0.290 -0.032 -0.156
 H         -0.008  0.015  0.006    0.243 -0.201  0.024    0.749 -0.389  0.397
 C         -0.003 -0.001  0.003    0.030 -0.179 -0.183    0.001  0.020  0.033
 H         -0.012 -0.006  0.007   -0.221 -0.301 -0.087   -0.042 -0.066  0.024
 C         -0.002  0.001 -0.003    0.014  0.009  0.007   -0.012 -0.001 -0.013
 O         -0.008 -0.042 -0.010   -0.009 -0.005  0.012   -0.006 -0.002  0.007
 O         -0.001 -0.034 -0.018    0.011  0.009 -0.022    0.004  0.028 -0.038
 O          0.002 -0.001 -0.001   -0.025 -0.001  0.017    0.007 -0.002 -0.002
 O         -0.000  0.001  0.001    0.005  0.033 -0.007    0.000 -0.000  0.004
 H         -0.002 -0.000  0.004    0.006 -0.188 -0.243    0.014  0.050  0.027
 O         -0.000 -0.000 -0.000   -0.013  0.006 -0.003   -0.020 -0.000  0.014
 O          0.000  0.000  0.000    0.000  0.003 -0.000    0.001  0.001 -0.010
 H         -0.000 -0.000 -0.001    0.002 -0.006 -0.030   -0.008  0.009  0.060
 TransDip   0.003  0.117  0.037    0.048  0.013  0.009   -0.165 -0.013  0.040

 Mode:                31                     32                     33
 Frequency:      1203.85                1230.63                1337.97
 Force Cnst:      0.9567                 1.0242                 1.7709
 Red. Mass:       1.1204                 1.1478                 1.6789
 IR Active:          YES                    YES                    YES
 IR Intens:       71.133                155.553                 33.584
 Raman Active:       YES                    YES                    YES
               X      Y      Z        X      Y      Z        X      Y      Z
 C         -0.002  0.001 -0.002    0.021 -0.002 -0.009   -0.002  0.003 -0.003
 H         -0.002  0.001 -0.001    0.017 -0.025  0.075    0.012 -0.004  0.021
 H         -0.001  0.001  0.000    0.069 -0.051  0.093    0.012 -0.017  0.017
 H         -0.003  0.003 -0.002    0.004 -0.031 -0.005    0.013 -0.018  0.002
 C          0.000  0.000  0.004   -0.091  0.019  0.008   -0.013  0.001  0.003
 C         -0.028  0.025  0.002   -0.003  0.004 -0.012    0.035  0.019 -0.033
 H         -0.191  0.143 -0.099    0.682 -0.432  0.414    0.014  0.156 -0.071
 H          0.031 -0.010  0.024    0.236 -0.140  0.079    0.012  0.271  0.334
 C         -0.011 -0.017 -0.020    0.002 -0.015  0.002   -0.096 -0.158 -0.003
 H          0.299  0.632  0.043    0.090  0.178  0.023    0.304  0.422 -0.024
 C          0.044  0.005  0.064    0.007 -0.001  0.014   -0.041 -0.066  0.055
 O         -0.003 -0.002  0.004    0.011 -0.002 -0.001    0.001  0.000 -0.000
 O          0.010 -0.002 -0.012   -0.005  0.019 -0.014    0.006 -0.002 -0.004
 O          0.008 -0.003 -0.023    0.002 -0.002 -0.004    0.040 -0.018 -0.037
 O         -0.007 -0.016 -0.012   -0.002  0.001 -0.002   -0.006  0.087  0.006
 H         -0.313 -0.574  0.047   -0.048 -0.090 -0.019    0.340  0.583 -0.005
 O          0.001  0.001  0.004   -0.023  0.015 -0.023    0.001 -0.006  0.005
 O         -0.001 -0.001 -0.001   -0.004  0.002  0.007    0.000  0.001 -0.000
 H          0.002  0.003  0.030    0.017 -0.009 -0.090    0.010  0.004 -0.019
 TransDip  -0.200  0.172  0.059   -0.391  0.076  0.026   -0.105 -0.132  0.078

 Mode:                34                     35                     36
 Frequency:      1363.60                1415.66                1422.06
 Force Cnst:      1.6348                 2.2669                 1.8764
 Red. Mass:       1.4923                 1.9199                 1.5749
 IR Active:          YES                    YES                    YES
 IR Intens:       81.004                432.510                107.987
 Raman Active:       YES                    YES                    YES
               X      Y      Z        X      Y      Z        X      Y      Z
 C         -0.071  0.062 -0.067   -0.092  0.053 -0.023   -0.063  0.033 -0.010
 H          0.385 -0.076  0.414    0.428  0.026  0.047    0.313  0.029 -0.016
 H          0.223 -0.371  0.329    0.088 -0.370 -0.040    0.056 -0.269 -0.061
 H          0.382 -0.359  0.052    0.113 -0.100  0.012    0.049 -0.028  0.005
 C         -0.115  0.042 -0.021    0.171 -0.040  0.016    0.129 -0.030  0.010
 C          0.009 -0.017  0.009    0.022  0.102  0.036   -0.044 -0.088 -0.063
 H         -0.132  0.130 -0.092   -0.188 -0.513  0.074    0.401  0.383  0.044
 H         -0.069  0.034 -0.011    0.121 -0.224 -0.379   -0.007  0.197  0.467
 C          0.004  0.020 -0.000   -0.041 -0.077 -0.007    0.044  0.048 -0.014
 H         -0.025 -0.095 -0.026    0.081  0.152  0.004   -0.249  0.061  0.173
 C         -0.005 -0.002 -0.001    0.051  0.020 -0.028   -0.029  0.002  0.011
 O         -0.001 -0.024  0.046   -0.006  0.015 -0.029   -0.007  0.011 -0.020
 O          0.083 -0.007 -0.030   -0.092  0.001  0.033   -0.074  0.009  0.024
 O          0.001 -0.000 -0.001   -0.028  0.010  0.021    0.015 -0.005 -0.009
 O          0.000 -0.001  0.001   -0.001 -0.012 -0.003    0.001 -0.006  0.001
 H         -0.019 -0.011 -0.016    0.086  0.125  0.014    0.022 -0.147  0.267
 O          0.003 -0.000  0.002   -0.001  0.000 -0.003   -0.002 -0.002  0.003
 O          0.001 -0.002 -0.001   -0.000 -0.000  0.000   -0.002  0.004  0.002
 H         -0.017  0.003  0.033   -0.010 -0.002  0.021    0.061 -0.006 -0.100
 TransDip  -0.286  0.011  0.035    0.648 -0.114 -0.101    0.323 -0.067  0.045

 Mode:                37                     38                     39
 Frequency:      1440.09                1445.80                1455.34
 Force Cnst:      1.4584                 4.8741                 1.4313
 Red. Mass:       1.1936                 3.9575                 1.1470
 IR Active:          YES                    YES                    YES
 IR Intens:       47.854                275.664                 69.433
 Raman Active:       YES                    YES                    YES
               X      Y      Z        X      Y      Z        X      Y      Z
 C          0.020 -0.007 -0.004    0.005 -0.001 -0.005   -0.017 -0.034  0.038
 H         -0.142 -0.027  0.081   -0.062 -0.016  0.055    0.297  0.133 -0.594
 H         -0.029  0.131  0.042   -0.015  0.063  0.026    0.145 -0.326  0.120
 H          0.014 -0.062  0.003    0.021 -0.044  0.003    0.065  0.607 -0.001
 C         -0.041  0.007 -0.004   -0.007  0.002 -0.002   -0.063  0.022 -0.035
 C          0.020  0.016 -0.000    0.001 -0.044 -0.051    0.007  0.001  0.002
 H         -0.071 -0.082 -0.022    0.186  0.312 -0.049   -0.028 -0.002 -0.015
 H         -0.001  0.006 -0.055   -0.007  0.281  0.487   -0.007  0.006 -0.010
 C         -0.006 -0.042 -0.066   -0.098 -0.089  0.088   -0.005 -0.008 -0.005
 H         -0.456  0.264  0.332    0.372  0.023 -0.156   -0.037  0.020  0.026
 C          0.036  0.040 -0.036    0.272  0.185 -0.195    0.011  0.010 -0.009
 O          0.003 -0.002  0.004    0.000 -0.000  0.001    0.000 -0.016  0.037
 O          0.023 -0.002 -0.005    0.004  0.003 -0.002    0.028 -0.002 -0.009
 O         -0.023  0.008  0.021   -0.157  0.055  0.130   -0.006  0.003  0.005
 O          0.001 -0.030 -0.003   -0.002 -0.152 -0.012    0.000 -0.008 -0.001
 H          0.280  0.020  0.657   -0.061  0.210 -0.283    0.033  0.019  0.061
 O          0.002  0.005 -0.002   -0.002  0.002  0.002    0.001  0.003 -0.001
 O          0.003 -0.005 -0.002    0.000  0.003 -0.001    0.002 -0.003 -0.002
 H         -0.099  0.003  0.096   -0.010 -0.023 -0.014   -0.057  0.003  0.058
 TransDip  -0.101  0.169  0.102    0.383  0.184 -0.319   -0.092  0.184 -0.170

 Mode:                40                     41                     42
 Frequency:      1468.63                1470.58                1594.26
 Force Cnst:      1.4010                 1.4653                12.2481
 Red. Mass:       1.1025                 1.1500                 8.1790
 IR Active:          YES                    YES                    YES
 IR Intens:      115.517                 91.082               1207.917
 Raman Active:       YES                    YES                    YES
               X      Y      Z        X      Y      Z        X      Y      Z
 C         -0.030 -0.019 -0.038    0.027  0.009  0.032    0.002 -0.002  0.003
 H         -0.249  0.000 -0.064    0.184  0.005  0.014   -0.003 -0.002  0.004
 H          0.008  0.234  0.510    0.002 -0.178 -0.365   -0.002  0.006 -0.006
 H          0.474  0.188  0.038   -0.349 -0.102 -0.027    0.000 -0.007  0.003
 C          0.037 -0.027 -0.008   -0.048  0.028 -0.003   -0.003  0.011 -0.020
 C         -0.002  0.006 -0.001    0.009  0.006  0.003   -0.000  0.011  0.014
 H         -0.039 -0.023 -0.012   -0.110 -0.013 -0.049   -0.067 -0.035  0.003
 H          0.021 -0.021 -0.016    0.001 -0.014 -0.041    0.009 -0.040 -0.056
 C          0.001  0.001 -0.001   -0.004 -0.001 -0.005   -0.003 -0.078 -0.010
 H         -0.017  0.018  0.015   -0.054  0.022  0.034    0.048 -0.020 -0.027
 C          0.009 -0.019 -0.009    0.023 -0.020 -0.022   -0.267  0.572  0.255
 O         -0.002  0.005 -0.003    0.002 -0.008  0.011   -0.001 -0.006  0.013
 O         -0.017  0.003  0.008    0.027 -0.004 -0.010    0.005 -0.002  0.001
 O         -0.007 -0.001  0.007   -0.015  0.001  0.015    0.135 -0.093 -0.116
 O         -0.002  0.011  0.002   -0.003  0.010  0.003    0.047 -0.295 -0.060
 H          0.001 -0.016  0.029    0.022 -0.008  0.082    0.159  0.343 -0.171
 O         -0.007 -0.021  0.013   -0.010 -0.029  0.018   -0.003 -0.014  0.008
 O         -0.016  0.025  0.011   -0.021  0.034  0.015   -0.011  0.007  0.009
 H          0.420 -0.030 -0.409    0.570 -0.041 -0.549    0.340  0.034 -0.305
 TransDip   0.315 -0.094 -0.102    0.073 -0.174 -0.241   -0.399  0.974  0.362

 Mode:                43                     44                     45
 Frequency:      1635.00                3065.48                3094.33
 Force Cnst:     14.0301                 5.7457                 6.0008
 Red. Mass:       8.9079                 1.0378                 1.0637
 IR Active:          YES                    YES                    YES
 IR Intens:      862.052                  9.512                 14.866
 Raman Active:       YES                    YES                    YES
               X      Y      Z        X      Y      Z        X      Y      Z
 C         -0.017  0.030 -0.059    0.030 -0.039  0.016   -0.000 -0.000  0.000
 H          0.125  0.053 -0.140    0.009  0.698  0.186   -0.000  0.002  0.001
 H          0.150 -0.266  0.197   -0.432 -0.194  0.114    0.001  0.001 -0.000
 H         -0.102  0.257 -0.083    0.085 -0.042 -0.478    0.000 -0.000 -0.001
 C         -0.196 -0.265  0.613   -0.002  0.001 -0.001    0.000  0.000 -0.000
 C          0.045 -0.029  0.034   -0.000  0.000 -0.000   -0.001  0.000  0.001
 H         -0.155  0.116 -0.088    0.002 -0.001 -0.003    0.002 -0.001 -0.004
 H         -0.154  0.073 -0.056   -0.002 -0.003  0.002    0.013  0.012 -0.011
 C         -0.007  0.008 -0.010    0.000 -0.000  0.000   -0.002  0.002 -0.071
 H         -0.043 -0.073 -0.013   -0.002  0.001 -0.003    0.433 -0.274  0.707
 C         -0.001  0.025  0.002   -0.000 -0.000  0.000   -0.001 -0.001 -0.000
 O          0.076  0.159 -0.352    0.000 -0.000  0.000    0.000  0.000  0.000
 O          0.068  0.018 -0.068    0.000 -0.000  0.000    0.000  0.000  0.000
 O          0.000 -0.003 -0.001   -0.000  0.000 -0.000   -0.000  0.000  0.000
 O          0.001 -0.015 -0.002    0.000  0.000  0.000   -0.000  0.000  0.000
 H         -0.001 -0.002  0.023   -0.003  0.002  0.001   -0.400  0.234  0.132
 O         -0.003  0.002 -0.001    0.000 -0.000  0.000   -0.000  0.000  0.000
 O         -0.002  0.001  0.001    0.000  0.000 -0.000   -0.000  0.000  0.000
 H          0.044 -0.001 -0.019   -0.000 -0.000  0.000   -0.000 -0.000 -0.001
 TransDip  -0.535 -0.238  0.736    0.072 -0.056  0.037    0.024 -0.069 -0.100

 Mode:                46                     47                     48
 Frequency:      3139.54                3145.55                3166.66
 Force Cnst:      6.3780                 6.4088                 6.5338
 Red. Mass:       1.0983                 1.0993                 1.1059
 IR Active:          YES                    YES                    YES
 IR Intens:       17.266                 23.840                 25.535
 Raman Active:       YES                    YES                    YES
               X      Y      Z        X      Y      Z        X      Y      Z
 C         -0.031 -0.071 -0.047   -0.000 -0.001 -0.000    0.061  0.019 -0.069
 H         -0.001  0.657  0.165   -0.000  0.009  0.002    0.011 -0.007 -0.015
 H          0.453  0.183 -0.127    0.002  0.000 -0.001   -0.637 -0.275  0.160
 H         -0.094  0.024  0.518   -0.000  0.000  0.002   -0.112  0.053  0.685
 C          0.001 -0.002  0.000    0.000 -0.000 -0.000    0.001  0.001 -0.002
 C          0.000 -0.000 -0.000   -0.001  0.000 -0.002   -0.000 -0.000 -0.000
 H         -0.002  0.001  0.003   -0.008  0.003  0.011   -0.001  0.000  0.002
 H          0.002  0.003 -0.002    0.001  0.000  0.002    0.002  0.002 -0.001
 C          0.001 -0.000  0.000   -0.078  0.046 -0.009    0.000 -0.000 -0.000
 H         -0.003  0.002 -0.005    0.223 -0.143  0.391    0.001 -0.000  0.001
 C          0.000 -0.000 -0.000   -0.000  0.002 -0.000   -0.000 -0.000  0.000
 O          0.000  0.000 -0.000   -0.000 -0.000  0.000   -0.000 -0.000  0.000
 O         -0.000  0.000  0.000    0.000 -0.000 -0.000   -0.000 -0.000  0.000
 O          0.000 -0.000  0.000    0.000 -0.000 -0.000    0.000  0.000 -0.000
 O         -0.000  0.000  0.000    0.000 -0.001 -0.000    0.000  0.000 -0.000
 H         -0.005  0.003  0.002    0.722 -0.422 -0.264   -0.001  0.001  0.000
 O         -0.000  0.000 -0.000    0.000  0.000  0.000    0.000 -0.000  0.000
 O         -0.000  0.000  0.000   -0.000 -0.000  0.000    0.000  0.000 -0.000
 H          0.000 -0.000  0.000    0.001  0.002 -0.002   -0.000 -0.000 -0.000
 TransDip  -0.073 -0.076 -0.082   -0.138  0.069  0.025    0.116  0.027 -0.110

 Mode:                49                     50                     51
 Frequency:      3221.28                3346.62                3424.33
 Force Cnst:      6.4438                 7.4398                 7.4049
 Red. Mass:       1.0540                 1.1274                 1.0718
 IR Active:          YES                    YES                    YES
 IR Intens:        9.998                  1.172                842.625
 Raman Active:       YES                    YES                    YES
               X      Y      Z        X      Y      Z        X      Y      Z
 C          0.000 -0.000  0.000   -0.000 -0.000  0.000    0.000 -0.000 -0.000
 H          0.000  0.000  0.000   -0.000 -0.000 -0.000   -0.000  0.000  0.000
 H         -0.002 -0.001  0.001    0.000  0.000 -0.000    0.000 -0.000  0.000
 H          0.001 -0.000 -0.008   -0.000 -0.000  0.001   -0.000  0.000  0.000
 C         -0.000  0.000  0.000   -0.000  0.000 -0.001   -0.000 -0.000  0.000
 C         -0.010 -0.056 -0.031    0.061  0.031 -0.079    0.001  0.002 -0.003
 H         -0.304  0.136  0.629   -0.295  0.137  0.615   -0.013  0.007  0.022
 H          0.406  0.488 -0.294   -0.411 -0.496  0.298   -0.010 -0.016  0.009
 C          0.001  0.002  0.002    0.001 -0.001 -0.001    0.000 -0.000  0.000
 H         -0.006  0.003 -0.011    0.006 -0.002  0.010   -0.001  0.000  0.000
 C          0.001  0.000 -0.001   -0.000 -0.001 -0.000    0.004 -0.003 -0.004
 O         -0.000  0.000  0.000    0.000 -0.000  0.000    0.000  0.000 -0.000
 O          0.001  0.000  0.001   -0.001 -0.000  0.001    0.000 -0.000  0.000
 O         -0.000  0.000  0.000    0.000  0.000  0.000   -0.003  0.002  0.002
 O         -0.000 -0.000  0.000   -0.000  0.000  0.000   -0.001  0.002  0.001
 H         -0.004  0.002  0.001   -0.013  0.011  0.006   -0.004 -0.001  0.002
 O          0.000  0.000 -0.000    0.000 -0.000  0.001    0.001 -0.000 -0.000
 O          0.000  0.000  0.000   -0.001  0.002 -0.000    0.001 -0.064  0.009
 H         -0.000 -0.004  0.001   -0.001 -0.035  0.005   -0.012  0.988 -0.137
 TransDip  -0.003 -0.091 -0.044   -0.014 -0.006 -0.031   -0.019  0.925 -0.095

 STANDARD THERMODYNAMIC QUANTITIES AT   298.15 K  AND     1.00 ATM

   This Molecule has  1 Imaginary Frequencies
   Zero point vibrational energy:       85.428 kcal/mol

   Atom    1 Element C  Has Mass   12.00000
   Atom    2 Element H  Has Mass    1.00783
   Atom    3 Element H  Has Mass    1.00783
   Atom    4 Element H  Has Mass    1.00783
   Atom    5 Element C  Has Mass   12.00000
   Atom    6 Element C  Has Mass   12.00000
   Atom    7 Element H  Has Mass    1.00783
   Atom    8 Element H  Has Mass    1.00783
   Atom    9 Element C  Has Mass   12.00000
   Atom   10 Element H  Has Mass    1.00783
   Atom   11 Element C  Has Mass   12.00000
   Atom   12 Element O  Has Mass   15.99491
   Atom   13 Element O  Has Mass   15.99491
   Atom   14 Element O  Has Mass   15.99491
   Atom   15 Element O  Has Mass   15.99491
   Atom   16 Element H  Has Mass    1.00783
   Atom   17 Element O  Has Mass   15.99491
   Atom   18 Element O  Has Mass   15.99491
   Atom   19 Element H  Has Mass    1.00783
   Molecular Mass:   164.032100 amu
   Principal axes and moments of inertia in amu*Bohr^2:
                             1           2           3
    Eigenvalues --     1279.14150  2864.20253  3624.50155
          X               0.99359     0.08555    -0.07387
          Y              -0.08112     0.99483     0.06105
          Z               0.07871    -0.05467     0.99540
   Rotational Symmetry Number is   1
   The Molecule is an Asymmetric Top
   Translational Enthalpy:        0.889 kcal/mol
   Rotational Enthalpy:           0.889 kcal/mol
   Vibrational Enthalpy:         91.489 kcal/mol
   gas constant (RT):             0.592 kcal/mol
   Translational Entropy:        41.193  cal/mol.K
   Rotational Entropy:           30.963  cal/mol.K
   Vibrational Entropy:          42.919  cal/mol.K

   Total Enthalpy:               93.859 kcal/mol
   Total Entropy:               115.075  cal/mol.K
Archival summary:
1\1\c5-81\FREQ\ProcedureUnspecified\BasisUnspecified\658(2-,1)\alotsuki\SatApr2105:02:202018SatApr2105:02:202018\0\\#,FREQ,ProcedureUnspecified,BasisUnspecified,\\-2,1\O\C,1,1.28652\O,2,1.23954,1,125\C,2,1.51935,1,114.907,3,178.381,0\H,4,1.09116,2,111.314,1,30.6042,0\H,4,1.09116,2,110.448,1,153.62,0\H,4,1.09519,2,108.136,1,-88.0161,0\C,1,1.86745,2,117.772,3,-1.03315,0\H,8,1.07653,1,87.6431,2,152.724,0\H,8,1.07759,1,93.3142,2,33.5089,0\C,8,1.50575,1,97.1764,2,-86.1975,0\H,11,1.09074,8,109.932,1,40.3524,0\H,11,1.09355,8,108.236,1,157.233,0\C,11,1.5349,8,114.858,1,-83.5001,0\O,14,1.25428,11,117.174,8,144.545,0\O,14,1.26461,11,117.7,8,-37.4603,0\H,16,1.78461,14,117.457,11,-13.4961,0\O,17,0.983711,16,169.838,14,24.8882,0\O,18,1.45392,17,100.932,16,-25.9945,0\\\@

 Total job time:  150951.10s(wall), 583743.60s(cpu) 
 Sat Apr 21 05:02:20 2018

        *************************************************************
        *                                                           *
        *  Thank you very much for using Q-Chem.  Have a nice day.  *
        *                                                           *
        *************************************************************


