
Running Job 1 of 1 qc-freq1.in
qchem qc-freq1.in_8320.0 /scratch/leeping/1862748/qc-freq1.d/ 1
/home/leeping/opt/qchem/5.0.2-openmp/exe/qcprog.exe_s qc-freq1.in_8320.0 /scratch/leeping/1862748/qc-freq1.d/
Check license passed

                  Welcome to Q-Chem
     A Quantum Leap Into The Future Of Chemistry


 Q-Chem 5.0, Q-Chem, Inc., Pleasanton, CA (2017)

 Yihan Shao,  Zhengting Gan,  E. Epifanovsky,  A. T. B. Gilbert,  M. Wormit,  
 J. Kussmann,  A. W. Lange,  A. Behn,  Jia Deng,  Xintian Feng,  D. Ghosh,  
 M. Goldey,  P. R. Horn,  L. D. Jacobson,  I. Kaliman,  T. Kus,  A. Landau,  
 Jie Liu,  E. I. Proynov,  R. M. Richard,  R. P. Steele,  E. J. Sundstrom,  
 H. L. Woodcock III,  P. M. Zimmerman,  D. Zuev,  B. Albrecht,  E. Alguire,  
 S. A. Baeppler,  D. Barton,  Z. Benda,  Y. A. Bernard,  E. J. Berquist,  
 K. B. Bravaya,  H. Burton,  D. Casanova,  Chun-Min Chang,  Yunqing Chen,  
 A. Chien,  K. D. Closser,  M. P. Coons,  S. Dasgupta,  A. L. Dempwolff,  
 M. Diedenhofen,  Hainam Do,  R. G. Edgar,  Po-Tung Fang,  S. Fatehi,  
 Qingguo Feng,  J. Fosso-Tande,  Qinghui Ge,  A. Ghysels,  G. Gidofalvi,  
 J. Gomes,  J. Gonthier,  A. Gunina,  M. W. D. Hanson-Heine,  
 P. H. P. Harbach,  A. W. Hauser,  J. E. Herr,  E. G. Hohenstein,  
 Z. C. Holden,  Kerwin Hui,  T.-C. Jagau,  Hyunjun Ji,  B. Kaduk,  
 K. Khistyaev,  Jaehoon Kim,  P. Klunzinger,  K. Koh,  D. Kosenkov,  
 L. Koulias,  T. Kowalczyk,  C. M. Krauter,  A. Kunitsa,  Ka Un Lao,  
 A. Laurent,  K. V. Lawler,  Joonho Lee,  D. Lefrancois,  S. Lehtola,  
 D. S. Levine,  Yi-Pei Li,  You-Sheng Lin,  Fenglai Liu,  E. Livshits,  
 A. Luenser,  P. Manohar,  E. Mansoor,  S. F. Manzer,  Shan-Ping Mao,  
 Yuezhi Mao,  N. Mardirossian,  A. V. Marenich,  T. Markovich,  
 L. A. Martinez-Martinez,  S. A. Maurer,  N. J. Mayhall,  S. C. McKenzie,  
 J.-M. Mewes,  A. F. Morrison,  J. W. Mullinax,  K. Nanda,  
 T. S. Nguyen-Beck,  R. Olivares-Amaya,  J. A. Parkhill,  T. M. Perrine,  
 F. Plasser,  S. Prager,  A. Prociuk,  E. Ramos,  D. R. Rehn,  F. Rob,  
 M. Schneider,  N. Sergueev,  S. M. Sharada,  S. Sharma,  D. W. Small,  
 T. Stauch,  T. Stein,  Yu-Chuan Su,  A. J. W. Thom,  A. Tkatchenko,  
 T. Tsuchimochi,  L. Vogt,  O. Vydrov,  M. A. Watson,  J. Wenzel,  
 M. de Wergifosse,  T. A. Wesolowski,  A. White,  J. Witte,  A. Yamada,  
 Jun Yang,  K. Yao,  S. Yeganeh,  S. R. Yost,  Zhi-Qiang You,  A. Zech,  
 Igor Ying Zhang,  Xing Zhang,  Yan Zhao,  Ying Zhu,  B. R. Brooks,  
 G. K. L. Chan,  C. J. Cramer,  M. S. Gordon,  W. J. Hehre,  A. Klamt,  
 M. W. Schmidt,  C. D. Sherrill,  D. G. Truhlar,  A. Aspuru-Guzik,  R. Baer,  
 A. T. Bell,  N. A. Besley,  Jeng-Da Chai,  R. A. DiStasio Jr.,  A. Dreuw,  
 B. D. Dunietz,  T. R. Furlani,  Chao-Ping Hsu,  Yousung Jung,  Jing Kong,  
 D. S. Lambrecht,  WanZhen Liang,  C. Ochsenfeld,  V. A. Rassolov,  
 L. V. Slipchenko,  J. E. Subotnik,  T. Van Voorhis,  J. M. Herbert,  
 A. I. Krylov,  P. M. W. Gill,  M. Head-Gordon

 Contributors to earlier versions of Q-Chem not listed above: 
 R. D. Adamson,  B. Austin,  J. Baker,  G. J. O. Beran,  K. Brandhorst,  
 S. T. Brown,  E. F. C. Byrd,  A. K. Chakraborty,  C.-L. Cheng,  
 Siu Hung Chien,  D. M. Chipman,  D. L. Crittenden,  H. Dachsel,  
 R. J. Doerksen,  A. D. Dutoi,  L. Fusti-Molnar,  W. A. Goddard III,  
 A. Golubeva-Zadorozhnaya,  S. R. Gwaltney,  G. Hawkins,  A. Heyden,  
 S. Hirata,  G. Kedziora,  F. J. Keil,  C. Kelley,  Jihan Kim,  R. A. King,  
 R. Z. Khaliullin,  P. P. Korambath,  W. Kurlancheek,  A. M. Lee,  M. S. Lee,  
 S. V. Levchenko,  Ching Yeh Lin,  D. Liotard,  R. C. Lochan,  I. Lotan,  
 P. E. Maslen,  N. Nair,  D. P. O'Neill,  D. Neuhauser,  E. Neuscamman,  
 C. M. Oana,  R. Olson,  B. Peters,  R. Peverati,  P. A. Pieniazek,  
 Y. M. Rhee,  J. Ritchie,  M. A. Rohrdanz,  E. Rosta,  N. J. Russ,  
 H. F. Schaefer III,  N. E. Schultz,  N. Shenvi,  A. C. Simmonett,  A. Sodt,  
 D. Stuck,  K. S. Thanthiriwatte,  V. Vanovschi,  Tao Wang,  A. Warshel,  
 C. F. Williams,  Q. Wu,  X. Xu,  W. Zhang

 Please cite Q-Chem as follows:
 Y. Shao et al., Mol. Phys. 113, 184-215 (2015)
 DOI: 10.1080/00268976.2014.952696

 Q-Chem 5.0.2 for Intel X86 EM64T Linux

 Parts of Q-Chem use Armadillo 5.200.1 (Boston Tea Smuggler).
 http://arma.sourceforge.net/

 Q-Chem begins on Fri Mar 20 22:48:54 2020  

Host: 
0

     Scratch files written to /scratch/leeping/1862748/qc-freq1.d//
 Dec517 15110_ 26548  26544 5633   
Processing $rem in /home/leeping/opt/qchem/5.0.2-openmp/config/preferences.
 MEM_STATIC 2000
 MEM_TOTAL  8000
 SYMMETRY   OFF
 SYM_IGNORE TRUE 
Symmetry turned off for PCM/SM12/SMD calculation

Checking the input file for inconsistencies... 	...done.

--------------------------------------------------------------
User input:
--------------------------------------------------------------
$molecule
-2 1
C       -3.0173326172    0.9468029420   -0.8881706017
H       -2.3696574069    1.6346606289   -0.3338487058
H       -3.9589066870    0.8385387149   -0.3465764470
H       -3.2040574406    1.3930567201   -1.8685476250
C       -2.2969399451   -0.3955070006   -1.0424946701
C        0.9894418269   -1.1283818327    1.0303786280
H        0.7235250493   -1.5727513925    0.0641666167
H        0.3200348419   -1.5392848456    1.7938501019
C        0.8493293654    0.3892156224    1.0216244120
H        1.2378197698    0.7772849972    1.9724263365
C        1.5538793463    1.1749948170   -0.0906744217
O       -2.6584584537   -1.3446681348   -0.2962783330
O       -1.3853046819   -0.4541696767   -1.9095287040
O        2.6060000814    0.6821460753   -0.6075802987
O        1.0680448783    2.2818808987   -0.4012800579
H       -0.2176473688    0.6332851091    0.9955395870
O        2.2861750299   -1.5917957012    1.4082183159
O        3.1206304393   -1.6647068174    0.2471636956
H        3.0224823217   -0.7274824088   -0.1272692672
$end

$rem
jobtype               freq
method                wb97x-v
basis                 def2-tzvpd
symmetry              off
sym_ignore            true
incdft                false
incfock               0
!scf_algorithm        diis_gdm
scf_convergence       8
thresh                14
!purecart             112
max_scf_cycles        1000
geom_opt_max_cycles   500
geom_opt_dmax         100
geom_opt_tol_gradient 10
solvent_method        pcm
ideriv                1
rpath_tol_displacement 1000
rpath_max_cycles      100
rpath_direction       1
!scf_guess            read
scf_guess             read
$end

$pcm
theory              cosmo
method              iswig
Radii               bondi
vdwScale            1.20
hpoints             110
heavypoints         110
$end

$solvent
dielectric 78.400000
$end

--------------------------------------------------------------
 ----------------------------------------------------------------
             Standard Nuclear Orientation (Angstroms)
    I     Atom           X                Y                Z
 ----------------------------------------------------------------
    1      C      -3.0173326172     0.9468029420    -0.8881706017
    2      H      -2.3696574069     1.6346606289    -0.3338487058
    3      H      -3.9589066870     0.8385387149    -0.3465764470
    4      H      -3.2040574406     1.3930567201    -1.8685476250
    5      C      -2.2969399451    -0.3955070006    -1.0424946701
    6      C       0.9894418269    -1.1283818327     1.0303786280
    7      H       0.7235250493    -1.5727513925     0.0641666167
    8      H       0.3200348419    -1.5392848456     1.7938501019
    9      C       0.8493293654     0.3892156224     1.0216244120
   10      H       1.2378197698     0.7772849972     1.9724263365
   11      C       1.5538793463     1.1749948170    -0.0906744217
   12      O      -2.6584584537    -1.3446681348    -0.2962783330
   13      O      -1.3853046819    -0.4541696767    -1.9095287040
   14      O       2.6060000814     0.6821460753    -0.6075802987
   15      O       1.0680448783     2.2818808987    -0.4012800579
   16      H      -0.2176473688     0.6332851091     0.9955395870
   17      O       2.2861750299    -1.5917957012     1.4082183159
   18      O       3.1206304393    -1.6647068174     0.2471636956
   19      H       3.0224823217    -0.7274824088    -0.1272692672
 ----------------------------------------------------------------
 Nuclear Repulsion Energy =   615.2254518708 hartrees
 There are       44 alpha and       44 beta electrons
 Requested basis set is def2-TZVPD
 There are 189 shells and 497 basis functions

 Total QAlloc Memory Limit   8000 MB
 Mega-Array Size      1956 MB
 MEM_STATIC part      2000 MB
 Discretize the solute cavity surface with Lebedev spheres
	Using 110 Lebedev grid points for each H atom
	Using 110 Lebedev grid points for other atoms
	Atomic van der Waals radii will be scaled by 1.20
 Remove points where switching function is < 1.0e-08
 Keep 1186 surface tesserae and discard 904 interior tesserae
 Molecular Surface Area = 221.605 Angst**2
 A cutoff of  1.0D-14 yielded  15864 shell pairs
 There are    109862 function pairs (    139887 Cartesian)
 
 -------------------------------------------------------
 OpenMP Integral Computing Module                       
 Release: version 1.0, May 2013, Q-Chem Inc. Pittsburgh 
 -------------------------------------------------------
 Integral Job Info:
 Integral job number is                      11
 Integral operator is                         1
 short-range coefficients              16700000
 long-range coefficients              100000000
 Omega coefficients                         300
 if combine SR and LR in K                    1
 Integral screening is                        0
 Integral computing path is                   2
 max size of driver memory is            800000
 size of driver memory is                776718
 size of scratch memory is              4473992
 max col of scratch BK array              10000
 max len of scratch array in speh3          662
 max len of scratch index in speh4           32
 max int batch size is                      520
 min int batch size is                       52
 fixed nKL is                                52
 max L of basis functions is                  3
 order of int derivative is                   0
 number of shells is                        189
 number of basis is                         563
 number of cartesian basis is               563
 number of contracted shell pairs         15864
 number of primitive shell pairs          31502
 maxK2 (contraction) of shell pair           36
 max number of K2 of shell pair               1
 max number of CS2 of shell pair           2639
 max number of PS2 of shell pair           3582
 mem total for path MDJ                  823776
 -------------------------------------------------------
 Smallest overlap matrix eigenvalue = 4.08E-06
 Guess MOs from SCF MO coefficient file
 Reading MOs from coefficient file
 Reading MOs from coefficient file
 Long-range K will be added via erf
 Coulomb attenuation parameter = 0.3 bohr**(-1)
 A restricted hybrid HF-DFT SCF calculation will be
 performed using Pulay DIIS extrapolation
 Polarizable Continuum solvation model will be applied
 Exchange:     0.1670 Hartree-Fock + 1.0000 wB97X-V + LR-HF
 Correlation:  1.0000 wB97X-V
 Using SG-2 standard quadrature grid
 Nonlocal Correlation:  VV10 with C = 0.0100 and b = 6.00
 Grid used for NLC:  SG-1 standard quadrature
 SCF converges when DIIS error is below 1.0E-08
Using Q-Chem read-in guess as SCF_GUESS READ specified.

 using 16 threads for integral computing
 -------------------------------------------------------
 OpenMP Integral computing Module                
 Release: version 1.0, May 2013, Q-Chem Inc. Pittsburgh 
 -------------------------------------------------------
 using 16 threads for integral computing
 -------------------------------------------------------
 OpenMP Integral computing Module                
 Release: version 1.0, May 2013, Q-Chem Inc. Pittsburgh 
 -------------------------------------------------------
 -------------------------------------------------------
 OpenMP BLAS3 based DFT computing Module                
 Release: version 1.0, May 2013, Q-Chem Inc. Pittsburgh 
 -------------------------------------------------------
 -------------------------------------------------------
 OpenMP BLAS3 based DFT computing Module                
 Release: version 1.0, May 2013, Q-Chem Inc. Pittsburgh 
 -------------------------------------------------------
 -------------------------------------------------------
 OpenMP BLAS3 based DFT computing Module                
 Release: version 1.0, May 2013, Q-Chem Inc. Pittsburgh 
 -------------------------------------------------------
 ---------------------------------------
  Cycle       Energy         DIIS Error
 ---------------------------------------
    1    -646.6911841763      3.96E-04
    2    -646.9868675587      4.21E-04
    3    -646.9943232745      1.93E-04
    4    -646.9955523182      1.43E-04
    5    -646.9963027135      1.09E-04
    6    -646.9966902680      8.78E-05
    7    -646.9969459073      7.04E-05
    8    -646.9971395727      5.37E-05
    9    -646.9972780410      3.75E-05
   10    -646.9973445309      2.63E-05
   11    -646.9973684190      2.09E-05
   12    -646.9973861356      1.57E-05
   13    -646.9973943121      1.26E-05
   14    -646.9974001773      9.82E-06
   15    -646.9974037970      7.58E-06
   16    -646.9974060036      5.81E-06
   17    -646.9974091484      3.79E-09 Convergence criterion met
 ---------------------------------------

************** Final PCM Free Energy Summary **************
 G_electrostatic  =      -0.30622657 hartree =    -192.16007023 kcal/mol
 G_cavitation     =       0.00000000 hartree =       0.00000000 kcal/mol
 G_dispersion     =       0.00000000 hartree =       0.00000000 kcal/mol
 G_repulsion      =       0.00000000 hartree =       0.00000000 kcal/mol
 --------------------------------------------------
 Non-electrostatic Free Energy =       0.00000000 hartree =       0.00000000 kcal/mol
 Total                         =      -0.30622657 hartree =    -192.16007023 kcal/mol
 --------------------------------------------------
 SCF Energy (H0 + V/2)                       =    -646.99740915 
 Solute Internal Energy (H0)                 =    -646.69118258 
 Total Free Energy (H0 + V/2 + non-elec)     =    -646.99740915 hartree
                                             = -405997.00195309 kcal/mol
***********************************************************

 SCF time:  CPU 5275.20 s  wall 377.75 s
 SCF   energy in the final basis set = -646.99740915
 Total energy in the final basis set = -646.99740915
 
 --------------------------------------------------------------
 
                    Orbital Energies (a.u.)
 --------------------------------------------------------------
 
 Alpha MOs
 -- Occupied --
-19.256 -19.232 -19.161 -19.151 -19.140 -19.139 -10.357 -10.342
-10.308 -10.258 -10.242  -1.235  -1.161  -1.142  -1.068  -1.048
 -1.011  -0.876  -0.831  -0.752  -0.640  -0.623  -0.604  -0.589
 -0.564  -0.546  -0.533  -0.528  -0.528  -0.527  -0.519  -0.482
 -0.474  -0.466  -0.451  -0.446  -0.415  -0.367  -0.357  -0.353
 -0.347  -0.338  -0.332  -0.329
 -- Virtual --
  0.060   0.075   0.077   0.079   0.097   0.099   0.106   0.110
  0.115   0.125   0.135   0.139   0.143   0.146   0.147   0.156
  0.157   0.160   0.168   0.175   0.179   0.185   0.196   0.199
  0.203   0.209   0.216   0.224   0.229   0.233   0.235   0.241
  0.253   0.266   0.269   0.273   0.278   0.285   0.286   0.292
  0.303   0.305   0.306   0.320   0.324   0.332   0.339   0.343
  0.351   0.352   0.359   0.363   0.367   0.369   0.374   0.374
  0.383   0.387   0.397   0.399   0.404   0.414   0.417   0.421
  0.429   0.431   0.435   0.439   0.441   0.451   0.457   0.463
  0.471   0.479   0.486   0.490   0.496   0.499   0.505   0.507
  0.509   0.524   0.528   0.531   0.532   0.535   0.544   0.553
  0.564   0.567   0.570   0.578   0.581   0.585   0.594   0.599
  0.612   0.614   0.621   0.622   0.624   0.630   0.642   0.647
  0.652   0.659   0.662   0.671   0.676   0.686   0.693   0.698
  0.700   0.705   0.720   0.723   0.729   0.734   0.739   0.743
  0.753   0.765   0.771   0.778   0.782   0.785   0.790   0.795
  0.802   0.806   0.823   0.826   0.831   0.834   0.836   0.840
  0.847   0.849   0.854   0.871   0.875   0.881   0.896   0.905
  0.910   0.919   0.929   0.939   0.940   0.956   0.962   0.966
  0.989   0.999   1.012   1.017   1.026   1.040   1.046   1.060
  1.070   1.077   1.106   1.113   1.119   1.135   1.141   1.148
  1.168   1.177   1.184   1.194   1.210   1.218   1.225   1.237
  1.251   1.273   1.289   1.302   1.317   1.326   1.346   1.352
  1.354   1.371   1.381   1.387   1.400   1.406   1.419   1.437
  1.447   1.464   1.480   1.486   1.502   1.535   1.545   1.573
  1.582   1.626   1.645   1.703   1.729   1.752   1.776   1.788
  1.853   1.879   1.892   1.910   1.917   1.927   1.936   1.942
  1.955   1.970   1.978   1.985   1.992   2.001   2.004   2.016
  2.031   2.049   2.051   2.082   2.094   2.101   2.112   2.117
  2.150   2.159   2.171   2.190   2.200   2.217   2.228   2.238
  2.254   2.258   2.285   2.313   2.334   2.345   2.353   2.365
  2.388   2.423   2.448   2.450   2.469   2.475   2.490   2.507
  2.519   2.527   2.543   2.585   2.594   2.611   2.630   2.630
  2.649   2.665   2.675   2.684   2.711   2.752   2.762   2.784
  2.825   2.841   2.858   2.866   2.893   2.901   2.922   2.933
  2.942   2.964   2.987   3.022   3.050   3.063   3.074   3.101
  3.142   3.149   3.184   3.192   3.205   3.215   3.236   3.244
  3.261   3.289   3.296   3.306   3.321   3.336   3.360   3.361
  3.377   3.386   3.407   3.414   3.428   3.439   3.446   3.450
  3.472   3.483   3.515   3.524   3.552   3.563   3.580   3.591
  3.597   3.612   3.627   3.640   3.646   3.663   3.684   3.700
  3.718   3.730   3.734   3.749   3.761   3.768   3.779   3.790
  3.806   3.830   3.860   3.888   3.959   3.980   4.049   4.065
  4.091   4.099   4.144   4.178   4.206   4.257   4.280   4.358
  4.368   4.402   4.430   4.547   4.586   4.626   4.675   4.681
  4.745   4.753   4.820   4.833   4.843   4.850   4.891   5.000
  5.015   5.055   5.099   5.142   5.218   5.261   5.296   5.318
  5.320   5.347   5.350   5.358   5.363   5.366   5.424   5.475
  5.500   5.542   5.601   5.694   5.696   5.702   5.717   5.722
  5.774   5.779   5.945   5.988   5.990   6.064   6.125   6.220
  6.232   6.262   6.300   6.300   6.323   6.329   6.399   6.597
  6.613   6.622   6.635   6.655   6.674   6.696   6.719   6.747
  6.757   6.768   6.774   6.795   6.906   6.927   6.945   6.969
  6.980   7.005   7.028   7.053   7.064   7.070   7.221   7.253
  7.262   7.351   7.364   7.370   7.410   7.421   7.430   7.514
  7.635   8.291  22.605  22.805  22.840  23.694  23.751  44.205
 44.363  44.398  44.401  44.464  44.673
 --------------------------------------------------------------
 
          Ground-State Mulliken Net Atomic Charges

     Atom                 Charge (a.u.)
  ----------------------------------------
      1 C                    -0.592706
      2 H                     0.152388
      3 H                     0.216675
      4 H                     0.222976
      5 C                     0.456849
      6 C                    -0.287699
      7 H                     0.166982
      8 H                     0.197787
      9 C                     0.023439
     10 H                     0.215451
     11 C                     0.266496
     12 O                    -0.719174
     13 O                    -0.704034
     14 O                    -0.736033
     15 O                    -0.693420
     16 H                     0.061481
     17 O                    -0.239122
     18 O                    -0.424841
     19 H                     0.416507
  ----------------------------------------
  Sum of atomic charges =    -2.000000

 -----------------------------------------------------------------
                    Cartesian Multipole Moments
 -----------------------------------------------------------------
    Charge (ESU x 10^10)
                -9.6064
    Dipole Moment (Debye)
         X      -3.6634      Y       2.0224      Z       7.5737
       Tot       8.6528
    Quadrupole Moments (Debye-Ang)
        XX    -122.6618     XY     -11.1468     YY    -101.9832
        XZ      -4.7093     YZ       4.3176     ZZ     -83.7059
    Octopole Moments (Debye-Ang^2)
       XXX     -93.8062    XXY      59.9996    XYY     -38.7023
       YYY       1.0577    XXZ      12.1517    XYZ      24.6744
       YYZ      18.6035    XZZ     -13.3997    YZZ      12.5833
       ZZZ      54.5954
    Hexadecapole Moments (Debye-Ang^3)
      XXXX   -2438.9967   XXXY      25.3991   XXYY    -617.4124
      XYYY      17.0649   YYYY    -889.6646   XXXZ    -238.7626
      XXYZ      61.8739   XYYZ     -84.3439   YYYZ      99.9968
      XXZZ    -456.7766   XYZZ      13.4070   YYZZ    -220.4246
      XZZZ    -259.0455   YZZZ      73.3388   ZZZZ    -542.0655
 -----------------------------------------------------------------
 Calculating analytic gradient of the SCF energy
 Gradient of SCF Energy
            1           2           3           4           5           6
    1  -0.0465575  -0.0437103   0.0577737   0.0090240   0.0680791  -0.0249239
    2   0.0786168  -0.0502990   0.0054055  -0.0323399  -0.0674504  -0.0222060
    3   0.0175621  -0.0383286  -0.0432287   0.0660423  -0.0049114  -0.0761865
            7           8           9          10          11          12
    1   0.0089856   0.0371602  -0.0823118  -0.0251348   0.0031412   0.0079596
    2   0.0291342   0.0277782   0.0298083  -0.0209933   0.0271334   0.0509266
    3   0.0787566  -0.0459690   0.0529494  -0.0384768  -0.0311089  -0.0317534
           13          14          15          16          17          18
    1  -0.0429517  -0.0397134   0.0213506   0.1008683  -0.0188430   0.0167298
    2   0.0200028   0.0267201  -0.0621805  -0.0299559   0.0082709   0.0269902
    3   0.0381608   0.0131424   0.0159055   0.0094001   0.0296796  -0.0468787
           19
    1  -0.0069256
    2  -0.0453618
    3   0.0352431
 Max gradient component =       1.009E-01
 RMS gradient           =       4.209E-02
 Computing fast CPCM-ISWIG gradient
 Updating gradient with PCM contributions...
 -- total gradient after adding PCM contribution --
---------------------------------------------------
  Atom         X              Y              Z     
---------------------------------------------------
   1      -0.000013      -0.000282       0.000347
   2      -0.000243       0.000065      -0.000423
   3      -0.000265      -0.000065      -0.000347
   4      -0.000133       0.000128      -0.000154
   5       0.001157       0.001180       0.001173
   6      -0.000290       0.000854       0.000597
   7      -0.000026      -0.000282      -0.000383
   8      -0.000255       0.000052      -0.000136
   9      -0.000209       0.000136      -0.000702
  10       0.000641      -0.000112      -0.000031
  11       0.000860       0.000374       0.000492
  12      -0.000768      -0.000863      -0.000408
  13      -0.000306      -0.000211      -0.000145
  14      -0.000084      -0.000388       0.000380
  15       0.000057      -0.000373      -0.000223
  16      -0.000363      -0.000622       0.000390
  17      -0.000077      -0.000074       0.000182
  18      -0.000028       0.001160      -0.000326
  19       0.000347      -0.000678      -0.000282
---------------------------------------------------
 Number of fixed atoms: 0
 Gradient time:  CPU 1048.41 s  wall 78.43 s
 ######################################################
 ######################################################
 # Starting finite difference calculation for IDERIV  #
 Finite diff step size:  1.88973e-03 a.u.
 ----------------------------------------------------------------
             Standard Nuclear Orientation (Angstroms)
    I     Atom           X                Y                Z
 ----------------------------------------------------------------
    1      C      -3.0163326172     0.9468029420    -0.8881706017
    2      H      -2.3696574069     1.6346606289    -0.3338487058
    3      H      -3.9589066870     0.8385387149    -0.3465764470
    4      H      -3.2040574406     1.3930567201    -1.8685476250
    5      C      -2.2969399451    -0.3955070006    -1.0424946701
    6      C       0.9894418269    -1.1283818327     1.0303786280
    7      H       0.7235250493    -1.5727513925     0.0641666167
    8      H       0.3200348419    -1.5392848456     1.7938501019
    9      C       0.8493293654     0.3892156224     1.0216244120
   10      H       1.2378197698     0.7772849972     1.9724263365
   11      C       1.5538793463     1.1749948170    -0.0906744217
   12      O      -2.6584584537    -1.3446681348    -0.2962783330
   13      O      -1.3853046819    -0.4541696767    -1.9095287040
   14      O       2.6060000814     0.6821460753    -0.6075802987
   15      O       1.0680448783     2.2818808987    -0.4012800579
   16      H      -0.2176473688     0.6332851091     0.9955395870
   17      O       2.2861750299    -1.5917957012     1.4082183159
   18      O       3.1206304393    -1.6647068174     0.2471636956
   19      H       3.0224823217    -0.7274824088    -0.1272692672
 ----------------------------------------------------------------
 Nuclear Repulsion Energy =   615.2379664553 hartrees
 There are       44 alpha and       44 beta electrons
 Discretize the solute cavity surface with Lebedev spheres
	Using 110 Lebedev grid points for each H atom
	Using 110 Lebedev grid points for other atoms
	Atomic van der Waals radii will be scaled by 1.20
 Remove points where switching function is < 1.0e-08
 Keep 1186 surface tesserae and discard 904 interior tesserae
 Molecular Surface Area = 221.601 Angst**2
 Requested basis set is def2-TZVPD
 There are 189 shells and 497 basis functions
 A cutoff of  1.0D-14 yielded  15864 shell pairs
 There are    109862 function pairs (    139887 Cartesian)
 Smallest overlap matrix eigenvalue = 4.08E-06
 Guess MOs from SCF MO coefficient file
 Reading MOs from coefficient file
 Reading MOs from coefficient file
 Long-range K will be added via erf
 Coulomb attenuation parameter = 0.3 bohr**(-1)
 A restricted hybrid HF-DFT SCF calculation will be
 performed using Pulay DIIS extrapolation
 Polarizable Continuum solvation model will be applied
 Exchange:     0.1670 Hartree-Fock + 1.0000 wB97X-V + LR-HF
 Correlation:  1.0000 wB97X-V
 Using SG-2 standard quadrature grid
 Nonlocal Correlation:  VV10 with C = 0.0100 and b = 6.00
 Grid used for NLC:  SG-1 standard quadrature
 SCF converges when DIIS error is below 1.0E-08
Using Q-Chem read-in guess as SCF_GUESS READ specified.

 using 16 threads for integral computing
 -------------------------------------------------------
 OpenMP Integral computing Module                
 Release: version 1.0, May 2013, Q-Chem Inc. Pittsburgh 
 -------------------------------------------------------
 using 16 threads for integral computing
 -------------------------------------------------------
 OpenMP Integral computing Module                
 Release: version 1.0, May 2013, Q-Chem Inc. Pittsburgh 
 -------------------------------------------------------
 -------------------------------------------------------
 OpenMP BLAS3 based DFT computing Module                
 Release: version 1.0, May 2013, Q-Chem Inc. Pittsburgh 
 -------------------------------------------------------
 -------------------------------------------------------
 OpenMP BLAS3 based DFT computing Module                
 Release: version 1.0, May 2013, Q-Chem Inc. Pittsburgh 
 -------------------------------------------------------
 -------------------------------------------------------
 OpenMP BLAS3 based DFT computing Module                
 Release: version 1.0, May 2013, Q-Chem Inc. Pittsburgh 
 -------------------------------------------------------
 ---------------------------------------
  Cycle       Energy         DIIS Error
 ---------------------------------------
    1    -646.6908971372      3.96E-04
    2    -646.9868631078      4.21E-04
    3    -646.9943232447      1.93E-04
    4    -646.9955535163      1.43E-04
    5    -646.9963089380      1.09E-04
    6    -646.9967076369      8.67E-05
    7    -646.9969892259      6.69E-05
    8    -646.9972200424      4.48E-05
    9    -646.9973649114      2.15E-05
   10    -646.9974045371      6.27E-06
   11    -646.9974077550      2.16E-06
   12    -646.9974081707      3.78E-07
   13    -646.9974081834      5.74E-08
   14    -646.9974081836      1.42E-08
   15    -646.9974081836      4.49E-09 Convergence criterion met
 ---------------------------------------

************** Final PCM Free Energy Summary **************
 G_electrostatic  =      -0.30622991 hartree =    -192.16216865 kcal/mol
 G_cavitation     =       0.00000000 hartree =       0.00000000 kcal/mol
 G_dispersion     =       0.00000000 hartree =       0.00000000 kcal/mol
 G_repulsion      =       0.00000000 hartree =       0.00000000 kcal/mol
 --------------------------------------------------
 Non-electrostatic Free Energy =       0.00000000 hartree =       0.00000000 kcal/mol
 Total                         =      -0.30622991 hartree =    -192.16216865 kcal/mol
 --------------------------------------------------
 SCF Energy (H0 + V/2)                       =    -646.99740818 
 Solute Internal Energy (H0)                 =    -646.69117827 
 Total Free Energy (H0 + V/2 + non-elec)     =    -646.99740818 hartree
                                             = -405997.00134769 kcal/mol
***********************************************************

 SCF time:  CPU 4588.75 s  wall 329.09 s
 SCF   energy in the final basis set = -646.99740818
 Total energy in the final basis set = -646.99740818
 
 --------------------------------------------------------------
 
                    Orbital Energies (a.u.)
 --------------------------------------------------------------
 
 Alpha MOs
 -- Occupied --
-19.256 -19.232 -19.161 -19.151 -19.140 -19.139 -10.357 -10.342
-10.308 -10.258 -10.242  -1.235  -1.161  -1.142  -1.068  -1.048
 -1.011  -0.876  -0.831  -0.752  -0.640  -0.623  -0.604  -0.589
 -0.564  -0.546  -0.533  -0.528  -0.528  -0.527  -0.519  -0.482
 -0.474  -0.466  -0.451  -0.446  -0.415  -0.367  -0.357  -0.353
 -0.347  -0.338  -0.332  -0.329
 -- Virtual --
  0.060   0.075   0.077   0.079   0.097   0.099   0.106   0.110
  0.115   0.125   0.135   0.139   0.143   0.146   0.147   0.156
  0.157   0.160   0.168   0.174   0.179   0.185   0.196   0.199
  0.203   0.209   0.216   0.224   0.229   0.233   0.235   0.241
  0.253   0.266   0.269   0.273   0.278   0.285   0.286   0.292
  0.303   0.305   0.306   0.320   0.324   0.332   0.339   0.343
  0.351   0.352   0.359   0.363   0.367   0.369   0.374   0.374
  0.383   0.387   0.397   0.399   0.405   0.414   0.417   0.421
  0.429   0.431   0.435   0.439   0.441   0.451   0.457   0.463
  0.471   0.479   0.486   0.490   0.496   0.499   0.505   0.507
  0.509   0.524   0.528   0.531   0.532   0.535   0.544   0.553
  0.564   0.567   0.570   0.578   0.581   0.585   0.594   0.599
  0.612   0.614   0.621   0.622   0.624   0.630   0.642   0.647
  0.652   0.659   0.662   0.671   0.676   0.686   0.693   0.698
  0.700   0.705   0.720   0.723   0.729   0.734   0.739   0.743
  0.753   0.765   0.771   0.778   0.781   0.785   0.790   0.795
  0.802   0.806   0.823   0.826   0.831   0.834   0.836   0.840
  0.847   0.849   0.854   0.871   0.875   0.881   0.896   0.905
  0.910   0.919   0.929   0.939   0.940   0.956   0.962   0.966
  0.989   0.999   1.012   1.017   1.026   1.040   1.046   1.059
  1.070   1.077   1.106   1.113   1.119   1.135   1.141   1.148
  1.168   1.177   1.184   1.194   1.210   1.218   1.225   1.237
  1.251   1.273   1.289   1.302   1.317   1.326   1.346   1.352
  1.354   1.371   1.381   1.387   1.400   1.406   1.419   1.437
  1.447   1.464   1.480   1.486   1.502   1.535   1.545   1.573
  1.582   1.627   1.645   1.703   1.729   1.752   1.777   1.788
  1.853   1.879   1.891   1.910   1.917   1.927   1.936   1.942
  1.955   1.970   1.978   1.985   1.992   2.001   2.004   2.016
  2.031   2.049   2.051   2.082   2.094   2.101   2.112   2.118
  2.150   2.159   2.171   2.190   2.200   2.217   2.228   2.238
  2.254   2.258   2.285   2.313   2.334   2.345   2.353   2.365
  2.388   2.423   2.448   2.450   2.469   2.475   2.490   2.507
  2.519   2.527   2.543   2.585   2.594   2.611   2.630   2.631
  2.650   2.665   2.675   2.684   2.711   2.752   2.762   2.784
  2.825   2.841   2.858   2.866   2.893   2.901   2.922   2.933
  2.942   2.964   2.987   3.022   3.050   3.063   3.074   3.101
  3.142   3.149   3.184   3.192   3.205   3.215   3.236   3.245
  3.261   3.289   3.296   3.306   3.321   3.336   3.360   3.361
  3.377   3.386   3.407   3.414   3.428   3.439   3.446   3.450
  3.472   3.483   3.515   3.524   3.552   3.563   3.580   3.591
  3.597   3.612   3.627   3.640   3.646   3.663   3.684   3.700
  3.718   3.730   3.734   3.749   3.761   3.768   3.779   3.790
  3.806   3.830   3.861   3.888   3.959   3.980   4.049   4.065
  4.092   4.100   4.144   4.178   4.206   4.257   4.280   4.358
  4.369   4.402   4.430   4.547   4.587   4.626   4.674   4.681
  4.745   4.753   4.820   4.833   4.843   4.850   4.891   5.000
  5.015   5.055   5.099   5.142   5.218   5.261   5.296   5.318
  5.320   5.347   5.350   5.358   5.363   5.366   5.424   5.475
  5.500   5.542   5.601   5.694   5.696   5.702   5.718   5.722
  5.774   5.779   5.945   5.988   5.990   6.064   6.125   6.220
  6.232   6.262   6.300   6.300   6.323   6.329   6.399   6.597
  6.613   6.623   6.635   6.655   6.674   6.696   6.719   6.747
  6.757   6.768   6.774   6.795   6.906   6.927   6.945   6.969
  6.980   7.005   7.028   7.053   7.064   7.070   7.221   7.253
  7.262   7.351   7.364   7.370   7.410   7.421   7.430   7.514
  7.635   8.291  22.605  22.805  22.840  23.694  23.751  44.205
 44.363  44.398  44.402  44.464  44.673
 --------------------------------------------------------------
 
          Ground-State Mulliken Net Atomic Charges

     Atom                 Charge (a.u.)
  ----------------------------------------
      1 C                    -0.592833
      2 H                     0.152813
      3 H                     0.216353
      4 H                     0.222952
      5 C                     0.457019
      6 C                    -0.287754
      7 H                     0.167009
      8 H                     0.197797
      9 C                     0.023487
     10 H                     0.215449
     11 C                     0.266494
     12 O                    -0.719240
     13 O                    -0.704079
     14 O                    -0.736035
     15 O                    -0.693417
     16 H                     0.061440
     17 O                    -0.239123
     18 O                    -0.424839
     19 H                     0.416508
  ----------------------------------------
  Sum of atomic charges =    -2.000000

 -----------------------------------------------------------------
                    Cartesian Multipole Moments
 -----------------------------------------------------------------
    Charge (ESU x 10^10)
                -9.6064
    Dipole Moment (Debye)
         X      -3.6631      Y       2.0233      Z       7.5738
       Tot       8.6530
    Quadrupole Moments (Debye-Ang)
        XX    -122.6645     XY     -11.1491     YY    -101.9812
        XZ      -4.7074     YZ       4.3167     ZZ     -83.7069
    Octopole Moments (Debye-Ang^2)
       XXX     -93.8015    XXY      60.0053    XYY     -38.7128
       YYY       1.0649    XXZ      12.1408    XYZ      24.6776
       YYZ      18.6050    XZZ     -13.4056    YZZ      12.5851
       ZZZ      54.5990
    Hexadecapole Moments (Debye-Ang^3)
      XXXX   -2438.9375   XXXY      25.3731   XXYY    -617.3677
      XYYY      17.0316   YYYY    -889.6443   XXXZ    -238.7009
      XXYZ      61.8601   XYYZ     -84.3388   YYYZ      99.9930
      XXZZ    -456.7361   XYZZ      13.3979   YYZZ    -220.4280
      XZZZ    -259.0309   YZZZ      73.3354   ZZZZ    -542.0780
 -----------------------------------------------------------------
 Calculating analytic gradient of the SCF energy
 Gradient of SCF Energy
            1           2           3           4           5           6
    1  -0.0457179  -0.0439181   0.0572960   0.0089973   0.0679439  -0.0249286
    2   0.0786955  -0.0505819   0.0053813  -0.0322897  -0.0673156  -0.0222014
    3   0.0174964  -0.0385308  -0.0429482   0.0659588  -0.0048585  -0.0761938
            7           8           9          10          11          12
    1   0.0089891   0.0371619  -0.0823063  -0.0251360   0.0031378   0.0079805
    2   0.0291323   0.0277782   0.0298079  -0.0209931   0.0271282   0.0509374
    3   0.0787592  -0.0459657   0.0529583  -0.0384779  -0.0311110  -0.0317538
           13          14          15          16          17          18
    1  -0.0429607  -0.0397123   0.0213520   0.1008605  -0.0188437   0.0167300
    2   0.0200361   0.0267199  -0.0621793  -0.0299551   0.0082707   0.0269905
    3   0.0381829   0.0131407   0.0159045   0.0093941   0.0296800  -0.0468786
           19
    1  -0.0069253
    2  -0.0453619
    3   0.0352433
 Max gradient component =       1.009E-01
 RMS gradient           =       4.206E-02
 Computing fast CPCM-ISWIG gradient
 Updating gradient with PCM contributions...
 -- total gradient after adding PCM contribution --
---------------------------------------------------
  Atom         X              Y              Z     
---------------------------------------------------
   1       0.001033      -0.000216       0.000301
   2      -0.000505      -0.000129      -0.000576
   3      -0.000737      -0.000116      -0.000126
   4      -0.000240       0.000170      -0.000231
   5       0.000956       0.001258       0.001164
   6      -0.000290       0.000854       0.000597
   7      -0.000026      -0.000282      -0.000383
   8      -0.000255       0.000052      -0.000136
   9      -0.000208       0.000136      -0.000702
  10       0.000641      -0.000112      -0.000031
  11       0.000860       0.000374       0.000492
  12      -0.000740      -0.000869      -0.000390
  13      -0.000339      -0.000146      -0.000099
  14      -0.000084      -0.000388       0.000380
  15       0.000057      -0.000373      -0.000224
  16      -0.000363      -0.000621       0.000390
  17      -0.000077      -0.000074       0.000182
  18      -0.000028       0.001160      -0.000326
  19       0.000347      -0.000678      -0.000282
---------------------------------------------------
 Number of fixed atoms: 0
 Gradient time:  CPU 1018.32 s  wall 74.93 s
 ----------------------------------------------------------------
             Standard Nuclear Orientation (Angstroms)
    I     Atom           X                Y                Z
 ----------------------------------------------------------------
    1      C      -3.0183326172     0.9468029420    -0.8881706017
    2      H      -2.3696574069     1.6346606289    -0.3338487058
    3      H      -3.9589066870     0.8385387149    -0.3465764470
    4      H      -3.2040574406     1.3930567201    -1.8685476250
    5      C      -2.2969399451    -0.3955070006    -1.0424946701
    6      C       0.9894418269    -1.1283818327     1.0303786280
    7      H       0.7235250493    -1.5727513925     0.0641666167
    8      H       0.3200348419    -1.5392848456     1.7938501019
    9      C       0.8493293654     0.3892156224     1.0216244120
   10      H       1.2378197698     0.7772849972     1.9724263365
   11      C       1.5538793463     1.1749948170    -0.0906744217
   12      O      -2.6584584537    -1.3446681348    -0.2962783330
   13      O      -1.3853046819    -0.4541696767    -1.9095287040
   14      O       2.6060000814     0.6821460753    -0.6075802987
   15      O       1.0680448783     2.2818808987    -0.4012800579
   16      H      -0.2176473688     0.6332851091     0.9955395870
   17      O       2.2861750299    -1.5917957012     1.4082183159
   18      O       3.1206304393    -1.6647068174     0.2471636956
   19      H       3.0224823217    -0.7274824088    -0.1272692672
 ----------------------------------------------------------------
 Nuclear Repulsion Energy =   615.2129375112 hartrees
 There are       44 alpha and       44 beta electrons
 Discretize the solute cavity surface with Lebedev spheres
	Using 110 Lebedev grid points for each H atom
	Using 110 Lebedev grid points for other atoms
	Atomic van der Waals radii will be scaled by 1.20
 Remove points where switching function is < 1.0e-08
 Keep 1186 surface tesserae and discard 904 interior tesserae
 Molecular Surface Area = 221.609 Angst**2
 Requested basis set is def2-TZVPD
 There are 189 shells and 497 basis functions
 A cutoff of  1.0D-14 yielded  15864 shell pairs
 There are    109862 function pairs (    139887 Cartesian)
 Smallest overlap matrix eigenvalue = 4.08E-06
 Guess MOs from SCF MO coefficient file
 Reading MOs from coefficient file
 Reading MOs from coefficient file
 Long-range K will be added via erf
 Coulomb attenuation parameter = 0.3 bohr**(-1)
 A restricted hybrid HF-DFT SCF calculation will be
 performed using Pulay DIIS extrapolation
 Polarizable Continuum solvation model will be applied
 Exchange:     0.1670 Hartree-Fock + 1.0000 wB97X-V + LR-HF
 Correlation:  1.0000 wB97X-V
 Using SG-2 standard quadrature grid
 Nonlocal Correlation:  VV10 with C = 0.0100 and b = 6.00
 Grid used for NLC:  SG-1 standard quadrature
 SCF converges when DIIS error is below 1.0E-08
Using Q-Chem read-in guess as SCF_GUESS READ specified.

 using 16 threads for integral computing
 -------------------------------------------------------
 OpenMP Integral computing Module                
 Release: version 1.0, May 2013, Q-Chem Inc. Pittsburgh 
 -------------------------------------------------------
 using 16 threads for integral computing
 -------------------------------------------------------
 OpenMP Integral computing Module                
 Release: version 1.0, May 2013, Q-Chem Inc. Pittsburgh 
 -------------------------------------------------------
 -------------------------------------------------------
 OpenMP BLAS3 based DFT computing Module                
 Release: version 1.0, May 2013, Q-Chem Inc. Pittsburgh 
 -------------------------------------------------------
 -------------------------------------------------------
 OpenMP BLAS3 based DFT computing Module                
 Release: version 1.0, May 2013, Q-Chem Inc. Pittsburgh 
 -------------------------------------------------------
 -------------------------------------------------------
 OpenMP BLAS3 based DFT computing Module                
 Release: version 1.0, May 2013, Q-Chem Inc. Pittsburgh 
 -------------------------------------------------------
 ---------------------------------------
  Cycle       Energy         DIIS Error
 ---------------------------------------
    1    -646.6917495290      3.96E-04
    2    -646.9868721950      4.21E-04
    3    -646.9943265120      1.93E-04
    4    -646.9955568616      1.43E-04
    5    -646.9963163630      1.08E-04
    6    -646.9967449335      8.43E-05
    7    -646.9970886871      5.84E-05
    8    -646.9973272548      2.93E-05
    9    -646.9974017620      8.26E-06
   10    -646.9974080033      1.21E-06
   11    -646.9974081262      3.24E-07
   12    -646.9974081348      6.05E-08
   13    -646.9974081351      1.19E-08
   14    -646.9974081351      4.15E-09 Convergence criterion met
 ---------------------------------------

************** Final PCM Free Energy Summary **************
 G_electrostatic  =      -0.30622326 hartree =    -192.15799390 kcal/mol
 G_cavitation     =       0.00000000 hartree =       0.00000000 kcal/mol
 G_dispersion     =       0.00000000 hartree =       0.00000000 kcal/mol
 G_repulsion      =       0.00000000 hartree =       0.00000000 kcal/mol
 --------------------------------------------------
 Non-electrostatic Free Energy =       0.00000000 hartree =       0.00000000 kcal/mol
 Total                         =      -0.30622326 hartree =    -192.15799390 kcal/mol
 --------------------------------------------------
 SCF Energy (H0 + V/2)                       =    -646.99740814 
 Solute Internal Energy (H0)                 =    -646.69118488 
 Total Free Energy (H0 + V/2 + non-elec)     =    -646.99740814 hartree
                                             = -405997.00131726 kcal/mol
***********************************************************

 SCF time:  CPU 4287.30 s  wall 307.79 s
 SCF   energy in the final basis set = -646.99740814
 Total energy in the final basis set = -646.99740814
 
 --------------------------------------------------------------
 
                    Orbital Energies (a.u.)
 --------------------------------------------------------------
 
 Alpha MOs
 -- Occupied --
-19.256 -19.232 -19.161 -19.151 -19.140 -19.139 -10.357 -10.342
-10.308 -10.258 -10.242  -1.235  -1.161  -1.142  -1.068  -1.048
 -1.011  -0.876  -0.831  -0.752  -0.640  -0.623  -0.604  -0.589
 -0.564  -0.546  -0.533  -0.528  -0.528  -0.527  -0.519  -0.482
 -0.474  -0.466  -0.451  -0.446  -0.415  -0.367  -0.357  -0.353
 -0.347  -0.338  -0.332  -0.329
 -- Virtual --
  0.060   0.075   0.077   0.079   0.097   0.099   0.106   0.110
  0.115   0.125   0.135   0.139   0.143   0.146   0.147   0.156
  0.157   0.160   0.168   0.175   0.179   0.185   0.196   0.199
  0.203   0.209   0.216   0.224   0.229   0.234   0.235   0.241
  0.253   0.266   0.269   0.273   0.278   0.285   0.286   0.292
  0.303   0.305   0.306   0.320   0.324   0.332   0.339   0.343
  0.351   0.352   0.359   0.363   0.367   0.369   0.374   0.374
  0.383   0.387   0.397   0.399   0.404   0.414   0.417   0.421
  0.429   0.431   0.435   0.439   0.441   0.451   0.457   0.463
  0.471   0.479   0.486   0.490   0.496   0.499   0.505   0.507
  0.509   0.524   0.528   0.530   0.532   0.535   0.544   0.553
  0.564   0.567   0.570   0.578   0.581   0.585   0.594   0.599
  0.612   0.614   0.621   0.622   0.624   0.630   0.642   0.647
  0.651   0.659   0.662   0.671   0.676   0.686   0.693   0.698
  0.700   0.705   0.720   0.723   0.729   0.734   0.739   0.743
  0.753   0.765   0.771   0.778   0.782   0.785   0.790   0.795
  0.802   0.806   0.824   0.826   0.831   0.834   0.836   0.840
  0.847   0.849   0.854   0.871   0.875   0.881   0.896   0.905
  0.910   0.919   0.929   0.939   0.940   0.956   0.962   0.966
  0.989   0.999   1.012   1.017   1.026   1.040   1.046   1.060
  1.070   1.077   1.106   1.113   1.119   1.135   1.141   1.148
  1.168   1.177   1.184   1.194   1.210   1.218   1.225   1.237
  1.251   1.273   1.289   1.301   1.317   1.326   1.346   1.352
  1.354   1.371   1.381   1.387   1.400   1.406   1.419   1.437
  1.447   1.464   1.480   1.486   1.502   1.535   1.545   1.573
  1.582   1.626   1.645   1.703   1.729   1.752   1.776   1.788
  1.853   1.879   1.892   1.910   1.917   1.927   1.936   1.942
  1.955   1.970   1.978   1.985   1.992   2.001   2.004   2.016
  2.031   2.049   2.051   2.082   2.094   2.101   2.112   2.117
  2.150   2.159   2.171   2.190   2.200   2.217   2.228   2.238
  2.254   2.258   2.285   2.313   2.334   2.345   2.353   2.365
  2.388   2.423   2.448   2.450   2.469   2.475   2.490   2.507
  2.519   2.527   2.543   2.585   2.594   2.611   2.630   2.630
  2.649   2.665   2.675   2.684   2.711   2.752   2.762   2.784
  2.825   2.841   2.858   2.866   2.893   2.901   2.922   2.933
  2.942   2.964   2.987   3.022   3.050   3.063   3.074   3.101
  3.142   3.149   3.184   3.192   3.205   3.215   3.237   3.244
  3.261   3.289   3.296   3.306   3.321   3.336   3.360   3.361
  3.377   3.387   3.407   3.414   3.428   3.439   3.447   3.450
  3.472   3.483   3.515   3.524   3.552   3.563   3.580   3.590
  3.597   3.612   3.627   3.640   3.646   3.663   3.684   3.700
  3.718   3.730   3.734   3.749   3.761   3.768   3.779   3.789
  3.806   3.830   3.860   3.888   3.959   3.980   4.049   4.065
  4.091   4.099   4.143   4.178   4.206   4.257   4.280   4.357
  4.368   4.402   4.430   4.547   4.586   4.626   4.675   4.681
  4.745   4.753   4.820   4.833   4.843   4.851   4.891   5.000
  5.015   5.055   5.099   5.142   5.218   5.261   5.296   5.318
  5.320   5.347   5.350   5.358   5.363   5.366   5.424   5.475
  5.500   5.542   5.601   5.694   5.696   5.702   5.717   5.722
  5.774   5.779   5.945   5.988   5.990   6.064   6.125   6.220
  6.232   6.262   6.300   6.300   6.323   6.329   6.399   6.597
  6.613   6.622   6.635   6.655   6.674   6.696   6.719   6.747
  6.757   6.768   6.774   6.795   6.906   6.927   6.945   6.969
  6.980   7.005   7.028   7.053   7.064   7.070   7.221   7.253
  7.262   7.351   7.364   7.370   7.410   7.421   7.430   7.514
  7.635   8.291  22.605  22.805  22.840  23.693  23.751  44.205
 44.363  44.398  44.401  44.464  44.673
 --------------------------------------------------------------
 
          Ground-State Mulliken Net Atomic Charges

     Atom                 Charge (a.u.)
  ----------------------------------------
      1 C                    -0.592588
      2 H                     0.151965
      3 H                     0.217000
      4 H                     0.222999
      5 C                     0.456680
      6 C                    -0.287646
      7 H                     0.166955
      8 H                     0.197778
      9 C                     0.023390
     10 H                     0.215453
     11 C                     0.266498
     12 O                    -0.719108
     13 O                    -0.703988
     14 O                    -0.736031
     15 O                    -0.693423
     16 H                     0.061522
     17 O                    -0.239120
     18 O                    -0.424843
     19 H                     0.416506
  ----------------------------------------
  Sum of atomic charges =    -2.000000

 -----------------------------------------------------------------
                    Cartesian Multipole Moments
 -----------------------------------------------------------------
    Charge (ESU x 10^10)
                -9.6064
    Dipole Moment (Debye)
         X      -3.6636      Y       2.0215      Z       7.5735
       Tot       8.6526
    Quadrupole Moments (Debye-Ang)
        XX    -122.6591     XY     -11.1446     YY    -101.9852
        XZ      -4.7113     YZ       4.3186     ZZ     -83.7048
    Octopole Moments (Debye-Ang^2)
       XXX     -93.8109    XXY      59.9938    XYY     -38.6917
       YYY       1.0506    XXZ      12.1627    XYZ      24.6712
       YYZ      18.6020    XZZ     -13.3937    YZZ      12.5815
       ZZZ      54.5917
    Hexadecapole Moments (Debye-Ang^3)
      XXXX   -2439.0561   XXXY      25.4253   XXYY    -617.4571
      XYYY      17.0983   YYYY    -889.6848   XXXZ    -238.8243
      XXYZ      61.8877   XYYZ     -84.3490   YYYZ     100.0005
      XXZZ    -456.8170   XYZZ      13.4161   YYZZ    -220.4212
      XZZZ    -259.0602   YZZZ      73.3422   ZZZZ    -542.0530
 -----------------------------------------------------------------
 Calculating analytic gradient of the SCF energy
 Gradient of SCF Energy
            1           2           3           4           5           6
    1  -0.0473984  -0.0435028   0.0582536   0.0090507   0.0682141  -0.0249191
    2   0.0785383  -0.0500168   0.0054299  -0.0323902  -0.0675852  -0.0222106
    3   0.0176301  -0.0381271  -0.0435108   0.0661257  -0.0049643  -0.0761793
            7           8           9          10          11          12
    1   0.0089822   0.0371586  -0.0823177  -0.0251338   0.0031448   0.0079386
    2   0.0291362   0.0277782   0.0298086  -0.0209936   0.0271386   0.0509160
    3   0.0787543  -0.0459725   0.0529407  -0.0384758  -0.0311071  -0.0317530
           13          14          15          16          17          18
    1  -0.0429429  -0.0397147   0.0213491   0.1008766  -0.0188424   0.0167296
    2   0.0199696   0.0267203  -0.0621818  -0.0299568   0.0082710   0.0269900
    3   0.0381389   0.0131443   0.0159067   0.0094061   0.0296792  -0.0468789
           19
    1  -0.0069261
    2  -0.0453619
    3   0.0352429
 Max gradient component =       1.009E-01
 RMS gradient           =       4.212E-02
 Computing fast CPCM-ISWIG gradient
 Updating gradient with PCM contributions...
 -- total gradient after adding PCM contribution --
---------------------------------------------------
  Atom         X              Y              Z     
---------------------------------------------------
   1      -0.001060      -0.000349       0.000396
   2       0.000018       0.000259      -0.000271
   3       0.000210      -0.000014      -0.000570
   4      -0.000027       0.000086      -0.000077
   5       0.001358       0.001102       0.001182
   6      -0.000290       0.000854       0.000596
   7      -0.000026      -0.000282      -0.000383
   8      -0.000255       0.000052      -0.000136
   9      -0.000209       0.000136      -0.000702
  10       0.000640      -0.000112      -0.000032
  11       0.000860       0.000375       0.000491
  12      -0.000796      -0.000856      -0.000426
  13      -0.000274      -0.000276      -0.000191
  14      -0.000084      -0.000388       0.000380
  15       0.000057      -0.000374      -0.000223
  16      -0.000362      -0.000622       0.000390
  17      -0.000077      -0.000074       0.000182
  18      -0.000028       0.001160      -0.000326
  19       0.000347      -0.000678      -0.000282
---------------------------------------------------
 Number of fixed atoms: 0
 Gradient time:  CPU 1020.07 s  wall 75.05 s
 ----------------------------------------------------------------
             Standard Nuclear Orientation (Angstroms)
    I     Atom           X                Y                Z
 ----------------------------------------------------------------
    1      C      -3.0173326172     0.9478029420    -0.8881706017
    2      H      -2.3696574069     1.6346606289    -0.3338487058
    3      H      -3.9589066870     0.8385387149    -0.3465764470
    4      H      -3.2040574406     1.3930567201    -1.8685476250
    5      C      -2.2969399451    -0.3955070006    -1.0424946701
    6      C       0.9894418269    -1.1283818327     1.0303786280
    7      H       0.7235250493    -1.5727513925     0.0641666167
    8      H       0.3200348419    -1.5392848456     1.7938501019
    9      C       0.8493293654     0.3892156224     1.0216244120
   10      H       1.2378197698     0.7772849972     1.9724263365
   11      C       1.5538793463     1.1749948170    -0.0906744217
   12      O      -2.6584584537    -1.3446681348    -0.2962783330
   13      O      -1.3853046819    -0.4541696767    -1.9095287040
   14      O       2.6060000814     0.6821460753    -0.6075802987
   15      O       1.0680448783     2.2818808987    -0.4012800579
   16      H      -0.2176473688     0.6332851091     0.9955395870
   17      O       2.2861750299    -1.5917957012     1.4082183159
   18      O       3.1206304393    -1.6647068174     0.2471636956
   19      H       3.0224823217    -0.7274824088    -0.1272692672
 ----------------------------------------------------------------
 Nuclear Repulsion Energy =   615.2132264558 hartrees
 There are       44 alpha and       44 beta electrons
 Discretize the solute cavity surface with Lebedev spheres
	Using 110 Lebedev grid points for each H atom
	Using 110 Lebedev grid points for other atoms
	Atomic van der Waals radii will be scaled by 1.20
 Remove points where switching function is < 1.0e-08
 Keep 1186 surface tesserae and discard 904 interior tesserae
 Molecular Surface Area = 221.612 Angst**2
 Requested basis set is def2-TZVPD
 There are 189 shells and 497 basis functions
 A cutoff of  1.0D-14 yielded  15864 shell pairs
 There are    109862 function pairs (    139887 Cartesian)
 Smallest overlap matrix eigenvalue = 4.08E-06
 Guess MOs from SCF MO coefficient file
 Reading MOs from coefficient file
 Reading MOs from coefficient file
 Long-range K will be added via erf
 Coulomb attenuation parameter = 0.3 bohr**(-1)
 A restricted hybrid HF-DFT SCF calculation will be
 performed using Pulay DIIS extrapolation
 Polarizable Continuum solvation model will be applied
 Exchange:     0.1670 Hartree-Fock + 1.0000 wB97X-V + LR-HF
 Correlation:  1.0000 wB97X-V
 Using SG-2 standard quadrature grid
 Nonlocal Correlation:  VV10 with C = 0.0100 and b = 6.00
 Grid used for NLC:  SG-1 standard quadrature
 SCF converges when DIIS error is below 1.0E-08
Using Q-Chem read-in guess as SCF_GUESS READ specified.

 using 16 threads for integral computing
 -------------------------------------------------------
 OpenMP Integral computing Module                
 Release: version 1.0, May 2013, Q-Chem Inc. Pittsburgh 
 -------------------------------------------------------
 using 16 threads for integral computing
 -------------------------------------------------------
 OpenMP Integral computing Module                
 Release: version 1.0, May 2013, Q-Chem Inc. Pittsburgh 
 -------------------------------------------------------
 -------------------------------------------------------
 OpenMP BLAS3 based DFT computing Module                
 Release: version 1.0, May 2013, Q-Chem Inc. Pittsburgh 
 -------------------------------------------------------
 -------------------------------------------------------
 OpenMP BLAS3 based DFT computing Module                
 Release: version 1.0, May 2013, Q-Chem Inc. Pittsburgh 
 -------------------------------------------------------
 -------------------------------------------------------
 OpenMP BLAS3 based DFT computing Module                
 Release: version 1.0, May 2013, Q-Chem Inc. Pittsburgh 
 -------------------------------------------------------
 ---------------------------------------
  Cycle       Energy         DIIS Error
 ---------------------------------------
    1    -646.6913246038      3.96E-04
    2    -646.9868617499      4.21E-04
    3    -646.9943246153      1.93E-04
    4    -646.9955557711      1.43E-04
    5    -646.9963132380      1.08E-04
    6    -646.9967211527      8.59E-05
    7    -646.9970230701      6.42E-05
    8    -646.9972649138      3.92E-05
    9    -646.9973870586      1.53E-05
   10    -646.9974079137      3.14E-06
   11    -646.9974087530      8.87E-07
   12    -646.9974088226      1.32E-07
   13    -646.9974088241      1.45E-08
   14    -646.9974088241      3.22E-09 Convergence criterion met
 ---------------------------------------

************** Final PCM Free Energy Summary **************
 G_electrostatic  =      -0.30621405 hartree =    -192.15221664 kcal/mol
 G_cavitation     =       0.00000000 hartree =       0.00000000 kcal/mol
 G_dispersion     =       0.00000000 hartree =       0.00000000 kcal/mol
 G_repulsion      =       0.00000000 hartree =       0.00000000 kcal/mol
 --------------------------------------------------
 Non-electrostatic Free Energy =       0.00000000 hartree =       0.00000000 kcal/mol
 Total                         =      -0.30621405 hartree =    -192.15221664 kcal/mol
 --------------------------------------------------
 SCF Energy (H0 + V/2)                       =    -646.99740882 
 Solute Internal Energy (H0)                 =    -646.69119477 
 Total Free Energy (H0 + V/2 + non-elec)     =    -646.99740882 hartree
                                             = -405997.00174961 kcal/mol
***********************************************************

 SCF time:  CPU 4282.71 s  wall 306.75 s
 SCF   energy in the final basis set = -646.99740882
 Total energy in the final basis set = -646.99740882
 
 --------------------------------------------------------------
 
                    Orbital Energies (a.u.)
 --------------------------------------------------------------
 
 Alpha MOs
 -- Occupied --
-19.256 -19.232 -19.161 -19.151 -19.140 -19.139 -10.357 -10.342
-10.308 -10.258 -10.242  -1.235  -1.161  -1.142  -1.068  -1.048
 -1.011  -0.876  -0.831  -0.752  -0.640  -0.623  -0.604  -0.589
 -0.564  -0.546  -0.533  -0.528  -0.528  -0.527  -0.519  -0.482
 -0.474  -0.466  -0.451  -0.446  -0.415  -0.367  -0.357  -0.353
 -0.347  -0.338  -0.332  -0.329
 -- Virtual --
  0.060   0.075   0.077   0.079   0.097   0.099   0.106   0.110
  0.115   0.125   0.135   0.139   0.143   0.146   0.147   0.156
  0.157   0.160   0.168   0.174   0.179   0.185   0.196   0.199
  0.203   0.209   0.216   0.224   0.229   0.233   0.235   0.241
  0.253   0.266   0.269   0.273   0.278   0.285   0.286   0.292
  0.303   0.305   0.306   0.320   0.324   0.332   0.339   0.343
  0.351   0.352   0.359   0.363   0.367   0.369   0.374   0.374
  0.383   0.387   0.397   0.399   0.404   0.414   0.417   0.421
  0.429   0.431   0.435   0.439   0.441   0.451   0.457   0.463
  0.471   0.479   0.486   0.490   0.496   0.499   0.505   0.507
  0.509   0.524   0.528   0.530   0.532   0.535   0.544   0.553
  0.564   0.567   0.570   0.578   0.581   0.585   0.594   0.599
  0.612   0.614   0.621   0.622   0.624   0.630   0.642   0.647
  0.651   0.659   0.662   0.671   0.676   0.686   0.693   0.698
  0.700   0.705   0.720   0.723   0.729   0.734   0.739   0.743
  0.753   0.765   0.771   0.778   0.782   0.785   0.790   0.795
  0.802   0.806   0.824   0.826   0.831   0.834   0.836   0.840
  0.847   0.849   0.854   0.871   0.875   0.881   0.896   0.905
  0.910   0.919   0.929   0.939   0.940   0.956   0.962   0.966
  0.989   0.999   1.012   1.017   1.026   1.040   1.046   1.060
  1.070   1.077   1.106   1.113   1.119   1.135   1.141   1.148
  1.168   1.177   1.184   1.194   1.210   1.218   1.225   1.237
  1.251   1.273   1.289   1.301   1.317   1.326   1.346   1.352
  1.354   1.371   1.381   1.387   1.400   1.406   1.419   1.437
  1.447   1.464   1.480   1.486   1.502   1.535   1.545   1.573
  1.582   1.626   1.645   1.703   1.729   1.752   1.776   1.788
  1.853   1.879   1.891   1.910   1.917   1.927   1.936   1.942
  1.955   1.970   1.978   1.985   1.992   2.001   2.004   2.016
  2.031   2.049   2.051   2.082   2.094   2.101   2.112   2.117
  2.150   2.159   2.171   2.190   2.200   2.217   2.229   2.238
  2.254   2.258   2.285   2.313   2.334   2.345   2.353   2.365
  2.388   2.423   2.448   2.450   2.469   2.475   2.490   2.507
  2.519   2.527   2.543   2.585   2.594   2.611   2.630   2.630
  2.649   2.665   2.675   2.684   2.711   2.752   2.762   2.784
  2.825   2.841   2.858   2.866   2.893   2.901   2.922   2.933
  2.942   2.964   2.987   3.022   3.050   3.063   3.074   3.101
  3.142   3.149   3.184   3.192   3.205   3.215   3.236   3.245
  3.261   3.289   3.296   3.306   3.321   3.336   3.360   3.361
  3.377   3.387   3.407   3.414   3.428   3.439   3.446   3.450
  3.472   3.483   3.515   3.524   3.552   3.563   3.580   3.590
  3.597   3.612   3.627   3.640   3.646   3.663   3.683   3.700
  3.718   3.730   3.734   3.749   3.761   3.768   3.779   3.789
  3.806   3.830   3.860   3.888   3.959   3.980   4.049   4.065
  4.091   4.099   4.143   4.178   4.205   4.257   4.280   4.357
  4.368   4.402   4.430   4.547   4.587   4.626   4.675   4.681
  4.745   4.753   4.820   4.833   4.843   4.850   4.891   5.000
  5.015   5.055   5.099   5.142   5.218   5.261   5.296   5.318
  5.320   5.347   5.350   5.358   5.363   5.366   5.424   5.475
  5.500   5.542   5.601   5.694   5.696   5.702   5.717   5.722
  5.774   5.779   5.945   5.988   5.989   6.064   6.125   6.220
  6.232   6.262   6.299   6.300   6.323   6.329   6.399   6.597
  6.613   6.622   6.635   6.654   6.674   6.696   6.719   6.747
  6.757   6.768   6.774   6.795   6.906   6.926   6.945   6.969
  6.980   7.005   7.028   7.053   7.064   7.070   7.221   7.253
  7.262   7.351   7.364   7.370   7.410   7.421   7.430   7.514
  7.635   8.291  22.605  22.805  22.840  23.693  23.751  44.205
 44.363  44.398  44.401  44.464  44.673
 --------------------------------------------------------------
 
          Ground-State Mulliken Net Atomic Charges

     Atom                 Charge (a.u.)
  ----------------------------------------
      1 C                    -0.592677
      2 H                     0.152677
      3 H                     0.216398
      4 H                     0.223095
      5 C                     0.456570
      6 C                    -0.287725
      7 H                     0.166986
      8 H                     0.197795
      9 C                     0.023469
     10 H                     0.215449
     11 C                     0.266499
     12 O                    -0.719133
     13 O                    -0.703969
     14 O                    -0.736034
     15 O                    -0.693417
     16 H                     0.061475
     17 O                    -0.239122
     18 O                    -0.424842
     19 H                     0.416508
  ----------------------------------------
  Sum of atomic charges =    -2.000000

 -----------------------------------------------------------------
                    Cartesian Multipole Moments
 -----------------------------------------------------------------
    Charge (ESU x 10^10)
                -9.6064
    Dipole Moment (Debye)
         X      -3.6622      Y       2.0205      Z       7.5734
       Tot       8.6516
    Quadrupole Moments (Debye-Ang)
        XX    -122.6674     XY     -11.1402     YY    -101.9848
        XZ      -4.7089     YZ       4.3184     ZZ     -83.7038
    Octopole Moments (Debye-Ang^2)
       XXX     -93.7815    XXY      59.9706    XYY     -38.6933
       YYY       1.0334    XXZ      12.1498    XYZ      24.6722
       YYZ      18.6056    XZZ     -13.4049    YZZ      12.5789
       ZZZ      54.5898
    Hexadecapole Moments (Debye-Ang^3)
      XXXX   -2439.1037   XXXY      25.5361   XXYY    -617.4609
      XYYY      17.1420   YYYY    -889.7283   XXXZ    -238.7515
      XXYZ      61.8848   XYYZ     -84.3514   YYYZ     100.0154
      XXZZ    -456.7592   XYZZ      13.4204   YYZZ    -220.4347
      XZZZ    -259.0289   YZZZ      73.3478   ZZZZ    -542.0474
 -----------------------------------------------------------------
 Calculating analytic gradient of the SCF energy
 Gradient of SCF Energy
            1           2           3           4           5           6
    1  -0.0463862  -0.0439388   0.0577176   0.0090699   0.0681160  -0.0249296
    2   0.0793093  -0.0505435   0.0054087  -0.0324302  -0.0677831  -0.0222071
    3   0.0175219  -0.0385322  -0.0431821   0.0662727  -0.0049472  -0.0761881
            7           8           9          10          11          12
    1   0.0089895   0.0371571  -0.0823119  -0.0251332   0.0031412   0.0079707
    2   0.0291340   0.0277764   0.0298155  -0.0209923   0.0271323   0.0508900
    3   0.0787573  -0.0459699   0.0529514  -0.0384762  -0.0311074  -0.0317407
           13          14          15          16          17          18
    1  -0.0429330  -0.0397127   0.0213509   0.1008718  -0.0188431   0.0167297
    2   0.0200109   0.0267192  -0.0621783  -0.0299612   0.0082707   0.0269899
    3   0.0381493   0.0131420   0.0159043   0.0094016   0.0296791  -0.0468784
           19
    1  -0.0069260
    2  -0.0453612
    3   0.0352426
 Max gradient component =       1.009E-01
 RMS gradient           =       4.214E-02
 Computing fast CPCM-ISWIG gradient
 Updating gradient with PCM contributions...
 -- total gradient after adding PCM contribution --
---------------------------------------------------
  Atom         X              Y              Z     
---------------------------------------------------
   1       0.000055       0.000626       0.000297
   2      -0.000431      -0.000218      -0.000587
   3      -0.000308      -0.000160      -0.000318
   4      -0.000095      -0.000035       0.000036
   5       0.001226       0.000897       0.001148
   6      -0.000290       0.000854       0.000597
   7      -0.000026      -0.000282      -0.000383
   8      -0.000255       0.000052      -0.000136
   9      -0.000209       0.000136      -0.000702
  10       0.000641      -0.000112      -0.000031
  11       0.000860       0.000374       0.000491
  12      -0.000743      -0.000944      -0.000380
  13      -0.000276      -0.000215      -0.000153
  14      -0.000084      -0.000388       0.000380
  15       0.000057      -0.000373      -0.000223
  16      -0.000363      -0.000622       0.000390
  17      -0.000077      -0.000074       0.000182
  18      -0.000028       0.001160      -0.000326
  19       0.000347      -0.000678      -0.000282
---------------------------------------------------
 Number of fixed atoms: 0
 Gradient time:  CPU 1018.32 s  wall 74.66 s
 ----------------------------------------------------------------
             Standard Nuclear Orientation (Angstroms)
    I     Atom           X                Y                Z
 ----------------------------------------------------------------
    1      C      -3.0173326172     0.9458029420    -0.8881706017
    2      H      -2.3696574069     1.6346606289    -0.3338487058
    3      H      -3.9589066870     0.8385387149    -0.3465764470
    4      H      -3.2040574406     1.3930567201    -1.8685476250
    5      C      -2.2969399451    -0.3955070006    -1.0424946701
    6      C       0.9894418269    -1.1283818327     1.0303786280
    7      H       0.7235250493    -1.5727513925     0.0641666167
    8      H       0.3200348419    -1.5392848456     1.7938501019
    9      C       0.8493293654     0.3892156224     1.0216244120
   10      H       1.2378197698     0.7772849972     1.9724263365
   11      C       1.5538793463     1.1749948170    -0.0906744217
   12      O      -2.6584584537    -1.3446681348    -0.2962783330
   13      O      -1.3853046819    -0.4541696767    -1.9095287040
   14      O       2.6060000814     0.6821460753    -0.6075802987
   15      O       1.0680448783     2.2818808987    -0.4012800579
   16      H      -0.2176473688     0.6332851091     0.9955395870
   17      O       2.2861750299    -1.5917957012     1.4082183159
   18      O       3.1206304393    -1.6647068174     0.2471636956
   19      H       3.0224823217    -0.7274824088    -0.1272692672
 ----------------------------------------------------------------
 Nuclear Repulsion Energy =   615.2376833144 hartrees
 There are       44 alpha and       44 beta electrons
 Discretize the solute cavity surface with Lebedev spheres
	Using 110 Lebedev grid points for each H atom
	Using 110 Lebedev grid points for other atoms
	Atomic van der Waals radii will be scaled by 1.20
 Remove points where switching function is < 1.0e-08
 Keep 1186 surface tesserae and discard 904 interior tesserae
 Molecular Surface Area = 221.598 Angst**2
 Requested basis set is def2-TZVPD
 There are 189 shells and 497 basis functions
 A cutoff of  1.0D-14 yielded  15864 shell pairs
 There are    109862 function pairs (    139887 Cartesian)
 Smallest overlap matrix eigenvalue = 4.08E-06
 Guess MOs from SCF MO coefficient file
 Reading MOs from coefficient file
 Reading MOs from coefficient file
 Long-range K will be added via erf
 Coulomb attenuation parameter = 0.3 bohr**(-1)
 A restricted hybrid HF-DFT SCF calculation will be
 performed using Pulay DIIS extrapolation
 Polarizable Continuum solvation model will be applied
 Exchange:     0.1670 Hartree-Fock + 1.0000 wB97X-V + LR-HF
 Correlation:  1.0000 wB97X-V
 Using SG-2 standard quadrature grid
 Nonlocal Correlation:  VV10 with C = 0.0100 and b = 6.00
 Grid used for NLC:  SG-1 standard quadrature
 SCF converges when DIIS error is below 1.0E-08
Using Q-Chem read-in guess as SCF_GUESS READ specified.

 using 16 threads for integral computing
 -------------------------------------------------------
 OpenMP Integral computing Module                
 Release: version 1.0, May 2013, Q-Chem Inc. Pittsburgh 
 -------------------------------------------------------
 using 16 threads for integral computing
 -------------------------------------------------------
 OpenMP Integral computing Module                
 Release: version 1.0, May 2013, Q-Chem Inc. Pittsburgh 
 -------------------------------------------------------
 -------------------------------------------------------
 OpenMP BLAS3 based DFT computing Module                
 Release: version 1.0, May 2013, Q-Chem Inc. Pittsburgh 
 -------------------------------------------------------
 -------------------------------------------------------
 OpenMP BLAS3 based DFT computing Module                
 Release: version 1.0, May 2013, Q-Chem Inc. Pittsburgh 
 -------------------------------------------------------
 -------------------------------------------------------
 OpenMP BLAS3 based DFT computing Module                
 Release: version 1.0, May 2013, Q-Chem Inc. Pittsburgh 
 -------------------------------------------------------
 ---------------------------------------
  Cycle       Energy         DIIS Error
 ---------------------------------------
    1    -646.6903485422      3.97E-04
    2    -646.9868741714      4.21E-04
    3    -646.9943273183      1.93E-04
    4    -646.9955573016      1.43E-04
    5    -646.9963203632      1.08E-04
    6    -646.9967446885      8.43E-05
    7    -646.9970787706      5.93E-05
    8    -646.9973203460      3.05E-05
    9    -646.9974004413      8.85E-06
   10    -646.9974075582      1.48E-06
   11    -646.9974077401      4.25E-07
   12    -646.9974077557      6.08E-08
   13    -646.9974077560      1.14E-08
   14    -646.9974077560      4.68E-09 Convergence criterion met
 ---------------------------------------

************** Final PCM Free Energy Summary **************
 G_electrostatic  =      -0.30623925 hartree =    -192.16803271 kcal/mol
 G_cavitation     =       0.00000000 hartree =       0.00000000 kcal/mol
 G_dispersion     =       0.00000000 hartree =       0.00000000 kcal/mol
 G_repulsion      =       0.00000000 hartree =       0.00000000 kcal/mol
 --------------------------------------------------
 Non-electrostatic Free Energy =       0.00000000 hartree =       0.00000000 kcal/mol
 Total                         =      -0.30623925 hartree =    -192.16803271 kcal/mol
 --------------------------------------------------
 SCF Energy (H0 + V/2)                       =    -646.99740776 
 Solute Internal Energy (H0)                 =    -646.69116850 
 Total Free Energy (H0 + V/2 + non-elec)     =    -646.99740776 hartree
                                             = -405997.00107933 kcal/mol
***********************************************************

 SCF time:  CPU 4284.34 s  wall 307.24 s
 SCF   energy in the final basis set = -646.99740776
 Total energy in the final basis set = -646.99740776
 
 --------------------------------------------------------------
 
                    Orbital Energies (a.u.)
 --------------------------------------------------------------
 
 Alpha MOs
 -- Occupied --
-19.256 -19.232 -19.161 -19.151 -19.140 -19.139 -10.357 -10.342
-10.308 -10.258 -10.242  -1.235  -1.161  -1.142  -1.068  -1.048
 -1.011  -0.876  -0.831  -0.752  -0.640  -0.623  -0.604  -0.589
 -0.564  -0.546  -0.533  -0.528  -0.528  -0.527  -0.519  -0.482
 -0.474  -0.466  -0.451  -0.446  -0.415  -0.367  -0.357  -0.353
 -0.347  -0.338  -0.332  -0.329
 -- Virtual --
  0.060   0.075   0.077   0.079   0.097   0.099   0.106   0.110
  0.115   0.125   0.135   0.139   0.143   0.146   0.147   0.156
  0.157   0.160   0.168   0.175   0.179   0.185   0.196   0.199
  0.203   0.209   0.216   0.224   0.229   0.233   0.235   0.241
  0.253   0.266   0.269   0.273   0.278   0.285   0.286   0.292
  0.303   0.305   0.306   0.320   0.324   0.332   0.339   0.343
  0.351   0.352   0.359   0.363   0.367   0.369   0.374   0.374
  0.383   0.387   0.397   0.399   0.405   0.414   0.417   0.421
  0.429   0.431   0.435   0.439   0.441   0.451   0.457   0.463
  0.471   0.479   0.486   0.490   0.496   0.499   0.505   0.507
  0.509   0.524   0.528   0.531   0.532   0.535   0.544   0.553
  0.564   0.567   0.570   0.578   0.581   0.585   0.594   0.599
  0.612   0.614   0.621   0.622   0.624   0.630   0.642   0.647
  0.652   0.659   0.662   0.671   0.676   0.686   0.693   0.698
  0.700   0.705   0.720   0.723   0.729   0.734   0.739   0.743
  0.753   0.765   0.771   0.778   0.781   0.785   0.790   0.795
  0.802   0.806   0.823   0.826   0.831   0.834   0.836   0.840
  0.847   0.849   0.854   0.871   0.875   0.881   0.896   0.905
  0.910   0.919   0.929   0.939   0.940   0.956   0.962   0.966
  0.989   0.999   1.012   1.017   1.026   1.040   1.046   1.060
  1.070   1.077   1.106   1.113   1.119   1.134   1.141   1.148
  1.168   1.177   1.184   1.194   1.210   1.218   1.225   1.237
  1.251   1.273   1.289   1.302   1.317   1.326   1.346   1.352
  1.354   1.371   1.381   1.387   1.400   1.406   1.419   1.437
  1.447   1.464   1.480   1.486   1.502   1.535   1.545   1.573
  1.582   1.627   1.645   1.703   1.729   1.752   1.776   1.788
  1.853   1.879   1.892   1.910   1.917   1.927   1.936   1.942
  1.955   1.970   1.978   1.985   1.992   2.001   2.004   2.016
  2.031   2.049   2.051   2.082   2.094   2.101   2.112   2.118
  2.150   2.159   2.171   2.190   2.200   2.217   2.228   2.238
  2.254   2.258   2.285   2.313   2.334   2.345   2.353   2.365
  2.388   2.423   2.448   2.450   2.469   2.475   2.490   2.507
  2.519   2.527   2.543   2.585   2.594   2.611   2.630   2.631
  2.650   2.665   2.676   2.684   2.711   2.752   2.762   2.784
  2.825   2.841   2.858   2.866   2.893   2.901   2.922   2.933
  2.942   2.964   2.987   3.022   3.050   3.063   3.074   3.101
  3.142   3.149   3.184   3.192   3.205   3.215   3.236   3.244
  3.261   3.289   3.296   3.306   3.321   3.336   3.360   3.361
  3.377   3.386   3.407   3.414   3.428   3.439   3.446   3.450
  3.472   3.483   3.515   3.524   3.552   3.563   3.580   3.591
  3.597   3.612   3.627   3.640   3.646   3.663   3.684   3.700
  3.718   3.730   3.735   3.749   3.761   3.768   3.779   3.790
  3.806   3.831   3.861   3.888   3.959   3.981   4.049   4.065
  4.092   4.100   4.144   4.178   4.207   4.257   4.280   4.358
  4.369   4.402   4.430   4.547   4.586   4.626   4.674   4.681
  4.745   4.753   4.820   4.833   4.843   4.851   4.891   5.000
  5.015   5.055   5.099   5.142   5.218   5.261   5.296   5.318
  5.320   5.347   5.350   5.358   5.363   5.366   5.424   5.475
  5.500   5.542   5.601   5.694   5.696   5.702   5.718   5.722
  5.774   5.779   5.945   5.988   5.990   6.064   6.125   6.220
  6.232   6.262   6.300   6.300   6.323   6.330   6.399   6.597
  6.613   6.623   6.635   6.655   6.674   6.696   6.719   6.747
  6.757   6.768   6.774   6.795   6.906   6.927   6.945   6.969
  6.980   7.005   7.028   7.053   7.064   7.070   7.221   7.253
  7.262   7.351   7.364   7.371   7.410   7.421   7.430   7.514
  7.635   8.291  22.605  22.805  22.840  23.694  23.751  44.205
 44.363  44.398  44.402  44.464  44.673
 --------------------------------------------------------------
 
          Ground-State Mulliken Net Atomic Charges

     Atom                 Charge (a.u.)
  ----------------------------------------
      1 C                    -0.592738
      2 H                     0.152101
      3 H                     0.216954
      4 H                     0.222857
      5 C                     0.457127
      6 C                    -0.287675
      7 H                     0.166978
      8 H                     0.197781
      9 C                     0.023408
     10 H                     0.215453
     11 C                     0.266492
     12 O                    -0.719215
     13 O                    -0.704098
     14 O                    -0.736032
     15 O                    -0.693423
     16 H                     0.061487
     17 O                    -0.239122
     18 O                    -0.424840
     19 H                     0.416506
  ----------------------------------------
  Sum of atomic charges =    -2.000000

 -----------------------------------------------------------------
                    Cartesian Multipole Moments
 -----------------------------------------------------------------
[...]
 IR Active:          YES                    YES                    YES
 IR Intens:       50.349                 22.495                 14.264
 Raman Active:       YES                    YES                    YES
               X      Y      Z        X      Y      Z        X      Y      Z
 C          0.000 -0.000  0.000    0.000  0.000 -0.000   -0.000  0.000 -0.000
 H         -0.001  0.001  0.000    0.000 -0.001  0.000    0.000 -0.001  0.000
 H          0.000 -0.002 -0.000    0.000 -0.001  0.000    0.000 -0.000 -0.000
 H         -0.000 -0.001 -0.000   -0.001  0.000  0.000   -0.000 -0.001 -0.000
 C         -0.001 -0.000 -0.001   -0.000  0.000  0.000   -0.000  0.000 -0.000
 C         -0.140  0.001 -0.211   -0.183  0.202  0.086   -0.026 -0.053 -0.079
 H         -0.431 -0.274  0.005   -0.024  0.614 -0.139   -0.415  0.131 -0.063
 H          0.081  0.380  0.179   -0.327  0.070 -0.133    0.067  0.000  0.032
 C          0.059  0.085  0.136   -0.009 -0.197 -0.094   -0.007  0.012  0.008
 H         -0.347 -0.167  0.388    0.110 -0.295 -0.101    0.133  0.625 -0.296
 C         -0.087 -0.070 -0.120    0.051  0.045  0.045    0.027  0.034  0.054
 O          0.000  0.000 -0.000    0.000  0.000 -0.000   -0.000 -0.000 -0.000
 O         -0.000  0.000  0.000   -0.000  0.000 -0.000   -0.000  0.000 -0.000
 O          0.028  0.007  0.016   -0.009 -0.009 -0.005    0.011 -0.009 -0.018
 O          0.012  0.017  0.023   -0.009  0.010 -0.022   -0.003 -0.015 -0.003
 H          0.048  0.034 -0.273   -0.044 -0.317  0.212   -0.124 -0.448  0.263
 O          0.186 -0.045  0.040    0.203 -0.052 -0.086    0.022  0.009  0.045
 O         -0.052  0.011  0.047   -0.056  0.013  0.100   -0.002 -0.001 -0.009
 H         -0.117 -0.017  0.024   -0.084 -0.075 -0.047   -0.016  0.022  0.036
 TransDip  -0.210  0.059 -0.063   -0.118  0.089 -0.034   -0.111  0.049  0.005

 Mode:                31                     32                     33
 Frequency:      1291.12                1352.43                1357.61
 Force Cnst:      1.1761                 1.8287                 1.5191
 Red. Mass:       1.1975                 1.6969                 1.3989
 IR Active:          YES                    YES                    YES
 IR Intens:        7.681                 37.691                 10.122
 Raman Active:       YES                    YES                    YES
               X      Y      Z        X      Y      Z        X      Y      Z
 C          0.000 -0.000 -0.000    0.001 -0.003 -0.000    0.054 -0.117 -0.014
 H          0.000 -0.000  0.000   -0.011  0.012 -0.003   -0.420  0.411 -0.089
 H          0.001 -0.001  0.000   -0.001  0.014 -0.000   -0.038  0.535 -0.015
 H          0.000 -0.000 -0.000   -0.004  0.013  0.008   -0.164  0.471  0.277
 C         -0.001  0.000  0.000    0.001 -0.003 -0.000    0.042 -0.081 -0.013
 C          0.029  0.040 -0.036    0.037  0.001 -0.019   -0.001  0.001  0.000
 H         -0.406  0.419 -0.092    0.059 -0.088  0.023    0.001 -0.001 -0.000
 H          0.480 -0.370  0.131   -0.302  0.501 -0.050    0.010 -0.014  0.002
 C         -0.022 -0.080  0.002   -0.038 -0.138  0.073    0.001  0.003 -0.001
 H          0.098 -0.098 -0.044    0.097  0.441 -0.213    0.001 -0.008  0.003
 C          0.009 -0.008 -0.003   -0.063 -0.045  0.095    0.002  0.001 -0.002
 O         -0.000 -0.000  0.000    0.000  0.001 -0.001    0.013  0.049 -0.032
 O         -0.000  0.000 -0.001   -0.001  0.000  0.001   -0.046  0.010  0.042
 O         -0.009  0.001  0.006    0.065 -0.027 -0.037   -0.002  0.001  0.001
 O         -0.006  0.019 -0.008   -0.026  0.079 -0.032    0.001 -0.002  0.001
 H          0.099  0.386 -0.262    0.125  0.514 -0.234   -0.003 -0.014  0.003
 O         -0.008 -0.006  0.062    0.010 -0.001 -0.019   -0.000 -0.000  0.001
 O         -0.002 -0.001 -0.016   -0.001 -0.001  0.007   -0.000  0.000 -0.000
 H         -0.039  0.013  0.034    0.018  0.018 -0.029   -0.000 -0.001  0.000
 TransDip   0.053 -0.035 -0.063   -0.106 -0.053  0.156    0.073 -0.067 -0.023

 Mode:                34                     35                     36
 Frequency:      1392.15                1430.04                1431.10
 Force Cnst:      1.7108                 1.3895                 3.9893
 Red. Mass:       1.4982                 1.1532                 3.3060
 IR Active:          YES                    YES                    YES
 IR Intens:       10.479                 78.928                360.625
 Raman Active:       YES                    YES                    YES
               X      Y      Z        X      Y      Z        X      Y      Z
 C          0.001 -0.002 -0.000   -0.000 -0.005 -0.000    0.020 -0.134 -0.000
 H         -0.005  0.005 -0.001   -0.008  0.019 -0.021   -0.179  0.407 -0.418
 H          0.000  0.005  0.000    0.008 -0.006  0.013    0.087  0.002  0.104
 H         -0.001  0.005  0.003    0.028  0.023  0.007    0.373  0.472  0.206
 C         -0.001  0.001  0.001   -0.006  0.012  0.001   -0.151  0.300  0.009
 C          0.087 -0.134  0.049    0.010 -0.002  0.006   -0.002  0.002 -0.001
 H         -0.443  0.577 -0.138   -0.046 -0.056  0.045    0.010 -0.002 -0.003
 H         -0.367  0.337 -0.095   -0.135  0.066 -0.077    0.018 -0.010  0.009
 C         -0.009  0.082 -0.054   -0.054  0.031  0.070    0.007 -0.006 -0.008
 H         -0.053 -0.352  0.143    0.653 -0.175 -0.146   -0.083  0.028  0.017
 C         -0.056 -0.017  0.029    0.043  0.005 -0.026   -0.003 -0.001  0.002
 O         -0.000 -0.000  0.000   -0.001 -0.006  0.004   -0.034 -0.151  0.098
 O          0.000  0.000 -0.001    0.005 -0.001 -0.004    0.114 -0.029 -0.097
 O          0.031 -0.008 -0.017   -0.027  0.008  0.013    0.002 -0.001 -0.001
 O          0.000  0.006  0.001   -0.001 -0.005  0.003    0.000  0.000 -0.000
 H         -0.027  0.023  0.027   -0.102 -0.301 -0.608    0.013  0.039  0.079
 O          0.006  0.020  0.000    0.005  0.001 -0.006   -0.001 -0.000  0.001
 O          0.002 -0.005  0.001   -0.000  0.001  0.002   -0.000 -0.000 -0.000
 H          0.000  0.034  0.022    0.005 -0.010  0.002   -0.001  0.001  0.000
 TransDip  -0.051 -0.059  0.068    0.198 -0.091 -0.183   -0.193  0.577 -0.001

 Mode:                37                     38                     39
 Frequency:      1443.27                1451.64                1464.57
 Force Cnst:      3.6464                 1.4551                 1.4771
 Red. Mass:       2.9711                 1.1720                 1.1688
 IR Active:          YES                    YES                    YES
 IR Intens:      251.136                120.189                 52.016
 Raman Active:       YES                    YES                    YES
               X      Y      Z        X      Y      Z        X      Y      Z
 C         -0.002  0.000 -0.000    0.037 -0.012 -0.055    0.000 -0.000  0.000
 H          0.001  0.005 -0.009   -0.378 -0.146  0.594    0.004 -0.000 -0.004
 H          0.005 -0.010  0.007    0.181  0.415  0.311   -0.003 -0.002 -0.006
 H          0.016  0.006 -0.000   -0.185 -0.337 -0.141   -0.003  0.002  0.002
 C         -0.000 -0.000  0.001   -0.060  0.041  0.031   -0.000 -0.000  0.001
 C         -0.094  0.011  0.005   -0.001 -0.000 -0.000   -0.043 -0.071 -0.013
 H          0.394  0.029 -0.129    0.006  0.000 -0.002    0.476  0.366 -0.345
 H          0.423 -0.282  0.289    0.003  0.002  0.004    0.250  0.433  0.501
 C          0.057  0.106 -0.061   -0.000  0.000  0.000   -0.018 -0.010  0.019
 H          0.234 -0.236 -0.007    0.004  0.000 -0.001    0.034  0.051 -0.026
 C         -0.211 -0.073  0.216   -0.000  0.000  0.000    0.046  0.015 -0.043
 O         -0.000 -0.000 -0.000   -0.000 -0.010  0.005    0.000  0.000 -0.000
 O         -0.000 -0.000 -0.001    0.042 -0.007 -0.035    0.000  0.000 -0.000
 O          0.147 -0.052 -0.083    0.000 -0.000 -0.000   -0.030  0.010  0.017
 O         -0.019  0.084 -0.037   -0.000  0.000 -0.000    0.003 -0.017  0.008
 H         -0.047 -0.391 -0.228   -0.001 -0.003 -0.004   -0.018  0.006 -0.015
 O         -0.005 -0.007  0.006   -0.000 -0.000 -0.000   -0.012  0.003  0.001
 O          0.001 -0.006 -0.001    0.000 -0.000 -0.000    0.004  0.001 -0.004
 H         -0.003  0.053 -0.006   -0.000  0.000  0.000    0.001 -0.017 -0.015
 TransDip  -0.412  0.077  0.287   -0.236  0.051  0.255    0.215  0.017 -0.083

 Mode:                40                     41                     42
 Frequency:      1471.93                1583.40                1583.54
 Force Cnst:      1.4476                 8.5306                 6.2614
 Red. Mass:       1.1340                 5.7749                 4.2380
 IR Active:          YES                    YES                    YES
 IR Intens:       35.701               1236.134               1325.474
 Raman Active:       YES                    YES                    YES
               X      Y      Z        X      Y      Z        X      Y      Z
 C         -0.060  0.016 -0.024    0.014  0.012 -0.019   -0.008 -0.007  0.011
 H         -0.223  0.187 -0.015    0.043  0.111 -0.179   -0.023 -0.063  0.098
 H          0.314 -0.172  0.574    0.026 -0.296 -0.039   -0.015  0.165  0.020
 H          0.652  0.036 -0.142    0.037  0.248  0.092   -0.020 -0.138 -0.051
 C          0.020 -0.059 -0.028   -0.273 -0.192  0.345    0.154  0.109 -0.195
 C          0.000 -0.001 -0.000   -0.003  0.007  0.007   -0.004  0.008  0.009
 H          0.000  0.004 -0.002    0.034 -0.016  0.009    0.045 -0.010  0.006
 H          0.000  0.004  0.002   -0.011  0.007  0.001   -0.010  0.013  0.008
 C          0.000 -0.001 -0.001    0.003 -0.037  0.017    0.004 -0.048  0.023
 H         -0.011  0.004  0.002    0.034  0.025 -0.020    0.054  0.027 -0.028
 C          0.001  0.001 -0.001   -0.145  0.230 -0.031   -0.190  0.299 -0.040
 O          0.006  0.022 -0.011    0.058  0.130 -0.110   -0.032 -0.074  0.062
 O         -0.022  0.007  0.024    0.130  0.001 -0.126   -0.073 -0.001  0.071
 O         -0.001  0.000  0.000    0.047 -0.022 -0.025    0.062 -0.029 -0.033
 O          0.000 -0.001  0.000    0.056 -0.128  0.036    0.073 -0.166  0.047
 H          0.002  0.007  0.011    0.033  0.101 -0.120    0.042  0.129 -0.170
 O         -0.000  0.000  0.000    0.003  0.017 -0.022    0.004  0.022 -0.028
 O          0.000  0.000 -0.000    0.018 -0.037 -0.003    0.024 -0.048 -0.004
 H         -0.000 -0.000  0.000   -0.364  0.204  0.434   -0.474  0.264  0.564
 TransDip   0.168 -0.092  0.006   -0.901  0.148  0.659   -0.195  1.044 -0.481

 Mode:                43                     44                     45
 Frequency:      1658.79                2857.15                3054.39
 Force Cnst:      2.1974                 5.2103                 5.8508
 Red. Mass:       1.3554                 1.0833                 1.0644
 IR Active:          YES                    YES                    YES
 IR Intens:      134.484               1999.528                 17.547
 Raman Active:       YES                    YES                    YES
               X      Y      Z        X      Y      Z        X      Y      Z
 C         -0.000  0.000 -0.000   -0.000  0.000 -0.000    0.000 -0.003 -0.001
 H         -0.000  0.000  0.000    0.000  0.000 -0.000    0.024  0.025  0.021
 H         -0.000  0.000  0.000   -0.000 -0.000 -0.000   -0.024 -0.003  0.014
 H         -0.000 -0.000 -0.000    0.000 -0.000  0.000   -0.005  0.010 -0.025
 C          0.000 -0.000 -0.000    0.000  0.000 -0.000   -0.000  0.000  0.000
 C         -0.000  0.003  0.004   -0.002  0.003 -0.001   -0.011 -0.007  0.007
 H          0.031 -0.015  0.002   -0.004 -0.009 -0.015    0.009  0.017  0.042
 H         -0.002  0.007 -0.000   -0.000 -0.012  0.012    0.118  0.068 -0.134
 C         -0.002  0.011 -0.005   -0.001  0.000  0.001    0.013 -0.033 -0.060
 H         -0.018 -0.004  0.007   -0.003 -0.002  0.001    0.310  0.298  0.745
 C          0.075 -0.113  0.011    0.014 -0.007 -0.007   -0.000 -0.001  0.000
 O         -0.000  0.000 -0.000   -0.000 -0.000  0.000   -0.000 -0.000  0.000
 O         -0.000  0.000  0.000   -0.000 -0.000  0.000    0.000 -0.000 -0.000
 O         -0.020  0.022  0.000   -0.008  0.006  0.003   -0.000  0.000 -0.000
 O         -0.026  0.058 -0.016   -0.004  0.005  0.000   -0.000  0.000 -0.000
 H         -0.011 -0.042  0.057    0.004 -0.008  0.005   -0.449  0.100 -0.025
 O          0.003  0.026 -0.029    0.003 -0.001 -0.001   -0.000  0.000  0.000
 O          0.028 -0.041 -0.011    0.004 -0.062  0.028    0.000 -0.000  0.000
 H         -0.644  0.208  0.712   -0.033  0.915 -0.395   -0.001  0.007 -0.003
 TransDip   0.126 -0.311  0.159   -0.200  1.311 -0.541   -0.000 -0.098 -0.091

 Mode:                46                     47                     48
 Frequency:      3055.89                3056.47                3110.05
 Force Cnst:      5.7252                 5.8123                 6.2691
 Red. Mass:       1.0406                 1.0560                 1.1001
 IR Active:          YES                    YES                    YES
 IR Intens:       19.999                 28.796                 27.876
 Raman Active:       YES                    YES                    YES
               X      Y      Z        X      Y      Z        X      Y      Z
 C         -0.010  0.045  0.008   -0.004  0.020  0.004    0.001 -0.000  0.001
 H         -0.372 -0.383 -0.316   -0.167 -0.171 -0.141   -0.004 -0.004 -0.003
 H          0.391  0.056 -0.224    0.174  0.025 -0.100   -0.002 -0.000  0.002
 H          0.083 -0.191  0.449    0.036 -0.083  0.196   -0.002  0.004 -0.009
 C          0.001 -0.002 -0.000    0.001 -0.001 -0.000   -0.000 -0.000 -0.000
 C          0.017  0.018  0.008   -0.041 -0.042 -0.018   -0.022 -0.006  0.060
 H         -0.070 -0.121 -0.270    0.161  0.280  0.624   -0.089 -0.153 -0.325
 H         -0.141 -0.085  0.165    0.340  0.205 -0.398    0.344  0.215 -0.394
 C         -0.002 -0.004 -0.008    0.006  0.005  0.011   -0.063  0.006 -0.018
 H          0.041  0.040  0.101   -0.051 -0.049 -0.127    0.081  0.088  0.220
 C         -0.000 -0.000  0.000    0.001  0.000 -0.001   -0.001  0.002 -0.001
 O          0.000  0.000 -0.000   -0.000  0.000 -0.000    0.000  0.000 -0.000
 O         -0.000  0.000  0.000   -0.000  0.000  0.000    0.000 -0.000  0.000
 O          0.000 -0.000 -0.000   -0.000  0.000  0.000    0.000 -0.000 -0.000
 O          0.000  0.000 -0.000   -0.000 -0.000  0.000    0.000 -0.000  0.000
 H         -0.015  0.005 -0.002   -0.022  0.001  0.001    0.668 -0.159  0.017
 O          0.001 -0.000  0.000   -0.001  0.000 -0.001   -0.000  0.000  0.000
 O         -0.000  0.000 -0.000    0.000 -0.001  0.001    0.000 -0.000 -0.001
 H          0.000 -0.007  0.004   -0.001  0.017 -0.009    0.003 -0.003  0.000
 TransDip   0.024  0.140  0.018   -0.168 -0.037 -0.008   -0.139 -0.009  0.096

 Mode:                49                     50                     51
 Frequency:      3112.50                3126.20                3148.05
 Force Cnst:      6.3080                 6.3330                 6.4519
 Red. Mass:       1.1052                 1.0998                 1.1050
 IR Active:          YES                    YES                    YES
 IR Intens:       25.237                 28.502                 41.002
 Raman Active:       YES                    YES                    YES
               X      Y      Z        X      Y      Z        X      Y      Z
 C          0.001  0.000  0.001   -0.062 -0.016 -0.065   -0.059 -0.033  0.065
 H         -0.005 -0.005 -0.004    0.414  0.446  0.351    0.095  0.104  0.102
 H         -0.002 -0.000  0.001    0.227  0.026 -0.149    0.711  0.087 -0.407
 H         -0.002  0.005 -0.010    0.099 -0.270  0.584   -0.099  0.210 -0.477
 C          0.000  0.000 -0.000   -0.000 -0.001 -0.001   -0.001 -0.002  0.002
 C          0.016 -0.001 -0.068   -0.000 -0.000 -0.000    0.000  0.000  0.000
 H          0.120  0.211  0.448    0.001  0.002  0.004   -0.001 -0.001 -0.002
 H         -0.313 -0.195  0.361    0.001  0.001 -0.001   -0.000 -0.000  0.000
 C         -0.056 -0.000 -0.029   -0.001  0.000 -0.000    0.000 -0.000  0.000
 H          0.128  0.137  0.334    0.001  0.002  0.004   -0.000 -0.000 -0.000
 C         -0.001  0.000 -0.001    0.000  0.000 -0.000    0.000 -0.000 -0.000
 O         -0.000 -0.000  0.000    0.000  0.000 -0.000    0.001  0.000 -0.001
 O         -0.000  0.000 -0.000   -0.000  0.000  0.000    0.000  0.000 -0.000
 O          0.000 -0.000 -0.000   -0.000 -0.000  0.000   -0.000 -0.000 -0.000
 O          0.000 -0.000  0.000    0.000 -0.000  0.000   -0.000  0.000 -0.000
 H          0.549 -0.131  0.014    0.017 -0.004  0.001   -0.003  0.001 -0.000
 O          0.000 -0.000 -0.000   -0.000  0.000  0.000    0.000  0.000 -0.000
 O         -0.000  0.000  0.001    0.000  0.000 -0.000   -0.000 -0.000  0.000
 H         -0.002 -0.002  0.000    0.000 -0.000  0.000    0.000  0.000 -0.000
 TransDip  -0.079 -0.007 -0.140   -0.128 -0.001 -0.113   -0.137 -0.052  0.144

 STANDARD THERMODYNAMIC QUANTITIES AT   298.15 K  AND     1.00 ATM

   This Molecule has  2 Imaginary Frequencies
   Zero point vibrational energy:       85.415 kcal/mol

   Atom    1 Element C  Has Mass   12.00000
   Atom    2 Element H  Has Mass    1.00783
   Atom    3 Element H  Has Mass    1.00783
   Atom    4 Element H  Has Mass    1.00783
   Atom    5 Element C  Has Mass   12.00000
   Atom    6 Element C  Has Mass   12.00000
   Atom    7 Element H  Has Mass    1.00783
   Atom    8 Element H  Has Mass    1.00783
   Atom    9 Element C  Has Mass   12.00000
   Atom   10 Element H  Has Mass    1.00783
   Atom   11 Element C  Has Mass   12.00000
   Atom   12 Element O  Has Mass   15.99491
   Atom   13 Element O  Has Mass   15.99491
   Atom   14 Element O  Has Mass   15.99491
   Atom   15 Element O  Has Mass   15.99491
   Atom   16 Element H  Has Mass    1.00783
   Atom   17 Element O  Has Mass   15.99491
   Atom   18 Element O  Has Mass   15.99491
   Atom   19 Element H  Has Mass    1.00783
   Molecular Mass:   164.032100 amu
   Principal axes and moments of inertia in amu*Bohr^2:
                             1           2           3
    Eigenvalues --     1301.85006  3217.01235  3902.13146
          X               0.95700     0.15771    -0.24347
          Y              -0.07822     0.94851     0.30695
          Z               0.27934    -0.27471     0.92006
   Rotational Symmetry Number is   1
   The Molecule is an Asymmetric Top
   Translational Enthalpy:        0.889 kcal/mol
   Rotational Enthalpy:           0.889 kcal/mol
   Vibrational Enthalpy:         91.025 kcal/mol
   gas constant (RT):             0.592 kcal/mol
   Translational Entropy:        41.193  cal/mol.K
   Rotational Entropy:           31.169  cal/mol.K
   Vibrational Entropy:          45.862  cal/mol.K

   Total Enthalpy:               93.395 kcal/mol
   Total Entropy:               118.224  cal/mol.K
Archival summary:
1\1\c5-66\FREQ\ProcedureUnspecified\BasisUnspecified\658(2-,1)\leeping\SatMar2111:44:552020SatMar2111:44:552020\0\\#,FREQ,ProcedureUnspecified,BasisUnspecified,\\-2,1\O\C,1,1.27163\O,2,1.24808,1,124.377\C,2,1.53331,1,118.453,3,-177.925,0\H,4,1.09485,2,108.438,1,-151.406,0\H,4,1.09797,2,106.528,1,94.1302,0\C,4,1.52408,2,118.178,1,-27.9464,0\H,7,1.09537,4,108.745,2,-172.157,0\H,7,1.09624,4,112.103,2,-52.4391,0\O,7,1.42795,4,114.089,2,71.7694,0\O,10,1.43167,7,109.344,4,-87.634,0\H,11,1.01401,10,101.302,7,53.4913,0\H,5,2.72051,4,149.836,2,18.1029,0\C,13,1.0954,5,118.937,4,93.9053,0\H,14,1.09161,13,108.736,5,107.408,0\H,14,1.09323,13,107.366,5,-133.899,0\C,14,1.5312,13,108.863,5,-14.4295,0\O,17,1.25947,14,116.792,13,-76.5767,0\O,17,1.26033,14,117.747,13,103.279,0\\\@

 Total job time:  46560.94s(wall), 646712.14s(cpu) 
 Sat Mar 21 11:44:55 2020

        *************************************************************
        *                                                           *
        *  Thank you very much for using Q-Chem.  Have a nice day.  *
        *                                                           *
        *************************************************************


