19   
From 3-product-freq.out: Frame 1 / 115, Energy=    -646.9974091484
C       -3.0173326172    0.9468029420   -0.8881706017
H       -2.3696574069    1.6346606289   -0.3338487058
H       -3.9589066870    0.8385387149   -0.3465764470
H       -3.2040574406    1.3930567201   -1.8685476250
C       -2.2969399451   -0.3955070006   -1.0424946701
C        0.9894418269   -1.1283818327    1.0303786280
H        0.7235250493   -1.5727513925    0.0641666167
H        0.3200348419   -1.5392848456    1.7938501019
C        0.8493293654    0.3892156224    1.0216244120
H        1.2378197698    0.7772849972    1.9724263365
C        1.5538793463    1.1749948170   -0.0906744217
O       -2.6584584537   -1.3446681348   -0.2962783330
O       -1.3853046819   -0.4541696767   -1.9095287040
O        2.6060000814    0.6821460753   -0.6075802987
O        1.0680448783    2.2818808987   -0.4012800579
H       -0.2176473688    0.6332851091    0.9955395870
O        2.2861750299   -1.5917957012    1.4082183159
O        3.1206304393   -1.6647068174    0.2471636956
H        3.0224823217   -0.7274824088   -0.1272692672
