
Running Job 1 of 1 qchem.in
qchem qchem.in_23797.0 ./qchem.d/ 1
/home/leeping/opt/qchem/5.0.2-openmp/exe/qcprog.exe_s qchem.in_23797.0 ./qchem.d/
Check license passed

                  Welcome to Q-Chem
     A Quantum Leap Into The Future Of Chemistry


 Q-Chem 5.0, Q-Chem, Inc., Pleasanton, CA (2017)

 Yihan Shao,  Zhengting Gan,  E. Epifanovsky,  A. T. B. Gilbert,  M. Wormit,  
 J. Kussmann,  A. W. Lange,  A. Behn,  Jia Deng,  Xintian Feng,  D. Ghosh,  
 M. Goldey,  P. R. Horn,  L. D. Jacobson,  I. Kaliman,  T. Kus,  A. Landau,  
 Jie Liu,  E. I. Proynov,  R. M. Richard,  R. P. Steele,  E. J. Sundstrom,  
 H. L. Woodcock III,  P. M. Zimmerman,  D. Zuev,  B. Albrecht,  E. Alguire,  
 S. A. Baeppler,  D. Barton,  Z. Benda,  Y. A. Bernard,  E. J. Berquist,  
 K. B. Bravaya,  H. Burton,  D. Casanova,  Chun-Min Chang,  Yunqing Chen,  
 A. Chien,  K. D. Closser,  M. P. Coons,  S. Dasgupta,  A. L. Dempwolff,  
 M. Diedenhofen,  Hainam Do,  R. G. Edgar,  Po-Tung Fang,  S. Fatehi,  
 Qingguo Feng,  J. Fosso-Tande,  Qinghui Ge,  A. Ghysels,  G. Gidofalvi,  
 J. Gomes,  J. Gonthier,  A. Gunina,  M. W. D. Hanson-Heine,  
 P. H. P. Harbach,  A. W. Hauser,  J. E. Herr,  E. G. Hohenstein,  
 Z. C. Holden,  Kerwin Hui,  T.-C. Jagau,  Hyunjun Ji,  B. Kaduk,  
 K. Khistyaev,  Jaehoon Kim,  P. Klunzinger,  K. Koh,  D. Kosenkov,  
 L. Koulias,  T. Kowalczyk,  C. M. Krauter,  A. Kunitsa,  Ka Un Lao,  
 A. Laurent,  K. V. Lawler,  Joonho Lee,  D. Lefrancois,  S. Lehtola,  
 D. S. Levine,  Yi-Pei Li,  You-Sheng Lin,  Fenglai Liu,  E. Livshits,  
 A. Luenser,  P. Manohar,  E. Mansoor,  S. F. Manzer,  Shan-Ping Mao,  
 Yuezhi Mao,  N. Mardirossian,  A. V. Marenich,  T. Markovich,  
 L. A. Martinez-Martinez,  S. A. Maurer,  N. J. Mayhall,  S. C. McKenzie,  
 J.-M. Mewes,  A. F. Morrison,  J. W. Mullinax,  K. Nanda,  
 T. S. Nguyen-Beck,  R. Olivares-Amaya,  J. A. Parkhill,  T. M. Perrine,  
 F. Plasser,  S. Prager,  A. Prociuk,  E. Ramos,  D. R. Rehn,  F. Rob,  
 M. Schneider,  N. Sergueev,  S. M. Sharada,  S. Sharma,  D. W. Small,  
 T. Stauch,  T. Stein,  Yu-Chuan Su,  A. J. W. Thom,  A. Tkatchenko,  
 T. Tsuchimochi,  L. Vogt,  O. Vydrov,  M. A. Watson,  J. Wenzel,  
 M. de Wergifosse,  T. A. Wesolowski,  A. White,  J. Witte,  A. Yamada,  
 Jun Yang,  K. Yao,  S. Yeganeh,  S. R. Yost,  Zhi-Qiang You,  A. Zech,  
 Igor Ying Zhang,  Xing Zhang,  Yan Zhao,  Ying Zhu,  B. R. Brooks,  
 G. K. L. Chan,  C. J. Cramer,  M. S. Gordon,  W. J. Hehre,  A. Klamt,  
 M. W. Schmidt,  C. D. Sherrill,  D. G. Truhlar,  A. Aspuru-Guzik,  R. Baer,  
 A. T. Bell,  N. A. Besley,  Jeng-Da Chai,  R. A. DiStasio Jr.,  A. Dreuw,  
 B. D. Dunietz,  T. R. Furlani,  Chao-Ping Hsu,  Yousung Jung,  Jing Kong,  
 D. S. Lambrecht,  WanZhen Liang,  C. Ochsenfeld,  V. A. Rassolov,  
 L. V. Slipchenko,  J. E. Subotnik,  T. Van Voorhis,  J. M. Herbert,  
 A. I. Krylov,  P. M. W. Gill,  M. Head-Gordon

 Contributors to earlier versions of Q-Chem not listed above: 
 R. D. Adamson,  B. Austin,  J. Baker,  G. J. O. Beran,  K. Brandhorst,  
 S. T. Brown,  E. F. C. Byrd,  A. K. Chakraborty,  C.-L. Cheng,  
 Siu Hung Chien,  D. M. Chipman,  D. L. Crittenden,  H. Dachsel,  
 R. J. Doerksen,  A. D. Dutoi,  L. Fusti-Molnar,  W. A. Goddard III,  
 A. Golubeva-Zadorozhnaya,  S. R. Gwaltney,  G. Hawkins,  A. Heyden,  
 S. Hirata,  G. Kedziora,  F. J. Keil,  C. Kelley,  Jihan Kim,  R. A. King,  
 R. Z. Khaliullin,  P. P. Korambath,  W. Kurlancheek,  A. M. Lee,  M. S. Lee,  
 S. V. Levchenko,  Ching Yeh Lin,  D. Liotard,  R. C. Lochan,  I. Lotan,  
 P. E. Maslen,  N. Nair,  D. P. O'Neill,  D. Neuhauser,  E. Neuscamman,  
 C. M. Oana,  R. Olson,  B. Peters,  R. Peverati,  P. A. Pieniazek,  
 Y. M. Rhee,  J. Ritchie,  M. A. Rohrdanz,  E. Rosta,  N. J. Russ,  
 H. F. Schaefer III,  N. E. Schultz,  N. Shenvi,  A. C. Simmonett,  A. Sodt,  
 D. Stuck,  K. S. Thanthiriwatte,  V. Vanovschi,  Tao Wang,  A. Warshel,  
 C. F. Williams,  Q. Wu,  X. Xu,  W. Zhang

 Please cite Q-Chem as follows:
 Y. Shao et al., Mol. Phys. 113, 184-215 (2015)
 DOI: 10.1080/00268976.2014.952696

 Q-Chem 5.0.2 for Intel X86 EM64T Linux

 Parts of Q-Chem use Armadillo 5.200.1 (Boston Tea Smuggler).
 http://arma.sourceforge.net/

 Q-Chem begins on Sun Apr 21 07:24:03 2019  

Host: 
0

     Scratch files written to ./qchem.d//
 Dec517 15110_ 26548  26544 5633   
Processing $rem in /home/leeping/opt/qchem/5.0.2-openmp/config/preferences.
 MEM_STATIC 2000
 MEM_TOTAL  8000
 SYMMETRY   OFF
 SYM_IGNORE TRUE 
Symmetry turned off for PCM/SM12/SMD calculation

Checking the input file for inconsistencies... 	...done.

--------------------------------------------------------------
User input:
--------------------------------------------------------------
$molecule
-3 1
C        0.0419821171    0.8003944009   -1.8234001406
C        0.3426798993    0.9748480439   -3.3211962284
O        0.0818877966    2.1103022940   -3.8096214806
O        0.8059829744    0.0010116675   -3.9685743309
C        0.5482132115   -0.4902201761   -1.1885252473
H       -1.0473033432    0.8794160415   -1.7208851867
H        0.4540161237    1.6720837245   -1.3044971239
H        1.6310711312   -0.5772805451   -1.3326156524
H        0.0901414571   -1.3521610599   -1.6881704982
C        0.2902628250   -0.6758488962    0.3291518812
C       -1.2160013599   -0.6114876526    0.6474536995
H       -1.6607038716    0.3481123830    0.3635379005
H       -1.3562403740   -0.7540880064    1.7227448493
H       -1.7454893413   -1.4120830982    0.1182315786
O        0.8415423414   -1.8326495073    0.7844409701
O        0.9353452673    0.4754292411    0.9302377390
O        1.1964523849   -0.0951238611    2.6224434994
H        1.1653693858   -1.0068507851    2.2095782615
H       -0.0305211272    0.2150959747    3.5198819388
O       -0.7883892504    0.4547970681    4.1640133589
O       -1.0940106710    1.7664146920    3.8659609795
$end

$rem
jobtype               sp
method                wb97x-v
basis                 def2-tzvpd
symmetry              off
sym_ignore            true
incdft                false
incfock               0
!scf_algorithm         diis_gdm
scf_convergence       8
scf_print             1
thresh                14
unrestricted          true
!purecart             112
max_scf_cycles        1000
geom_opt_max_cycles   500
geom_opt_dmax         100
geom_opt_tol_gradient 10
solvent_method        pcm
!ideriv                1
rpath_tol_displacement 1000
rpath_max_cycles      100
rpath_direction       1
!scf_guess            read
cdftci                true
$end

$cdft
2
1 1 18
0
1 1 18 s
---
0
1 0 0
0
1 0 0 s
---
1
1 1 9
1
1 1 9 s
---
1
1 1 9
-1
1 1 9 s
---
3
1 1 18
1
1 1 18 s
---
3
1 1 18
-1
1 1 18 s
---
2
1 1 16
1
1 1 16 s
---
2
1 1 16
-1
1 1 16 s
$end

$pcm
theory              cosmo
method              iswig
Radii               bondi
vdwScale            1.20
hpoints             110
heavypoints         110
$end

$solvent
dielectric 78.400000
$end

--------------------------------------------------------------
 ----------------------------------------------------------------
             Standard Nuclear Orientation (Angstroms)
    I     Atom           X                Y                Z
 ----------------------------------------------------------------
    1      C       0.0419821171     0.8003944009    -1.8234001406
    2      C       0.3426798993     0.9748480439    -3.3211962284
    3      O       0.0818877966     2.1103022940    -3.8096214806
    4      O       0.8059829744     0.0010116675    -3.9685743309
    5      C       0.5482132115    -0.4902201761    -1.1885252473
    6      H      -1.0473033432     0.8794160415    -1.7208851867
    7      H       0.4540161237     1.6720837245    -1.3044971239
    8      H       1.6310711312    -0.5772805451    -1.3326156524
    9      H       0.0901414571    -1.3521610599    -1.6881704982
   10      C       0.2902628250    -0.6758488962     0.3291518812
   11      C      -1.2160013599    -0.6114876526     0.6474536995
   12      H      -1.6607038716     0.3481123830     0.3635379005
   13      H      -1.3562403740    -0.7540880064     1.7227448493
   14      H      -1.7454893413    -1.4120830982     0.1182315786
   15      O       0.8415423414    -1.8326495073     0.7844409701
   16      O       0.9353452673     0.4754292411     0.9302377390
   17      O       1.1964523849    -0.0951238611     2.6224434994
   18      H       1.1653693858    -1.0068507851     2.2095782615
   19      H      -0.0305211272     0.2150959747     3.5198819388
   20      O      -0.7883892504     0.4547970681     4.1640133589
   21      O      -1.0940106710     1.7664146920     3.8659609795
 ----------------------------------------------------------------
 Nuclear Repulsion Energy =   716.9788510535 hartrees
 There are       49 alpha and       49 beta electrons
 Requested basis set is def2-TZVPD
 There are 208 shells and 546 basis functions

 Total QAlloc Memory Limit   8000 MB
 Mega-Array Size      1956 MB
 MEM_STATIC part      2000 MB
 Discretize the solute cavity surface with Lebedev spheres
	Using 110 Lebedev grid points for each H atom
	Using 110 Lebedev grid points for other atoms
	Atomic van der Waals radii will be scaled by 1.20
 Remove points where switching function is < 1.0e-08
 Keep 1252 surface tesserae and discard 1058 interior tesserae
 Molecular Surface Area = 230.194 Angst**2
 A cutoff of  1.0D-14 yielded  18785 shell pairs
 There are    128035 function pairs (    162158 Cartesian)
 
 -------------------------------------------------------
 OpenMP Integral Computing Module                       
 Release: version 1.0, May 2013, Q-Chem Inc. Pittsburgh 
 -------------------------------------------------------
 Integral Job Info:
 Integral job number is                      11
 Integral operator is                         1
 short-range coefficients              16700000
 long-range coefficients              100000000
 Omega coefficients                         300
 if combine SR and LR in K                    1
 Integral screening is                        0
 Integral computing path is                   2
 max size of driver memory is            800000
 size of driver memory is                776718
 size of scratch memory is              4473992
 max col of scratch BK array              10000
 max len of scratch array in speh3          662
 max len of scratch index in speh4           32
 max int batch size is                      520
 min int batch size is                       52
 fixed nKL is                                52
 max L of basis functions is                  3
 order of int derivative is                   0
 number of shells is                        208
 number of basis is                         618
 number of cartesian basis is               618
 number of contracted shell pairs         18785
 number of primitive shell pairs          37155
 maxK2 (contraction) of shell pair           36
 max number of K2 of shell pair               1
 max number of CS2 of shell pair           3200
 max number of PS2 of shell pair           4170
 mem total for path MDJ                  852508
 -------------------------------------------------------
 Smallest overlap matrix eigenvalue = 2.39E-06

 Scale SEOQF with 1.000000e-01/1.000000e-01/1.000000e-01

 Standard Electronic Orientation quadrupole field applied
 Nucleus-field energy     =    -0.0000000637 hartrees
 Guess from superposition of atomic densities
 Warning:  Energy on first SCF cycle will be non-variational
 SAD guess density has 95.000000 electrons


Starting CDFT-CI Calculation



Starting CDFT-CI SCF calculation on state 1 ...

 Smallest overlap matrix eigenvalue = 2.39E-06
 Smallest overlap matrix eigenvalue = 2.39E-06
 Long-range K will be added via erf
 Coulomb attenuation parameter = 0.3 bohr**(-1)
 An unrestricted hybrid HF-DFT SCF calculation will be
 performed using Pulay DIIS extrapolation
 Polarizable Continuum solvation model will be applied
 Exchange:     0.1670 Hartree-Fock + 1.0000 Constrained DFT (Becke Weights) + 1.0000 wB97X-V + LR-HF
 Correlation:  1.0000 wB97X-V
 Using SG-2 standard quadrature grid
 Nonlocal Correlation:  VV10 with C = 0.0100 and b = 6.00
 Grid used for NLC:  SG-1 standard quadrature
 SCF converges when DIIS error is below 1.0E-08
 Maximum number of SCF iterations = 1000
CDFT-CI forcing SAD guess for promolecules
 Guess from superposition of atomic densities
 Warning:  Energy on first SCF cycle will be non-variational
 SAD guess density has 95.000000 electrons
 using 16 threads for integral computing
 -------------------------------------------------------
 OpenMP Integral computing Module                
 -------------------------------------------------------
 using 16 threads for integral computing
 -------------------------------------------------------
 OpenMP Integral computing Module                
 -------------------------------------------------------
 -------------------------------------------------------
 OpenMP BLAS3 based DFT computing Module                
 -------------------------------------------------------
 Inaccurate integrated density:
   Number of electrons =    98
   Numerical integral  =    94.994987714248
   Relative error      =    -3.0663390671 %
 -------------------------------------------------------
 OpenMP BLAS3 based DFT computing Module                
 -------------------------------------------------------
 Inaccurate integrated density:
   Number of electrons =    98
   Numerical integral  =    94.999980226967
   Relative error      =    -3.0612446664 %
 -------------------------------------------------------
 OpenMP BLAS3 based DFT computing Module                
 -------------------------------------------------------
 Number of grid points used for NLC = 59651
 Inaccurate integrated density:
   Number of electrons =    98
   Numerical integral  =    94.999980226967
   Relative error      =    -3.0612446664 %
 One-Electron    Energy = -2109.0942604346
 Total Coulomb   Energy =   905.3960092470
 Alpha Exchange  Energy =   -13.4876700047
 Beta  Exchange  Energy =   -13.4876700047
 DFT   Exchange  Energy =   -58.2660621357
 DFT Correlation Energy =    -3.6665093527
 Kinetic         Energy = -1544.0962617714
 Nuclear Repu.   Energy =   568.5983224597
 Nuclear Attr.   Energy =  -564.9979986632
 Ewald QM/MM     Energy =     0.0000000000
 Poisson Solv.   Energy =     0.0000000000
 ---------------------------------------
  Cycle       Energy         DIIS Error
 ---------------------------------------
    1    -724.0078402257      2.86E-01  Gap = 1.31 eV 
 Number of grid points used for NLC = 59557
 One-Electron    Energy = -2124.8812742924
 Total Coulomb   Energy =   964.0892400781
 Alpha Exchange  Energy =   -13.8612625648
 Beta  Exchange  Energy =   -13.8612625648
 DFT   Exchange  Energy =   -60.8965175669
 DFT Correlation Energy =    -3.8328406247
 Kinetic         Energy = -1541.3926054944
 Nuclear Repu.   Energy =   568.5983224597
 Nuclear Attr.   Energy =  -583.4886687980
 Ewald QM/MM     Energy =     0.0000000000
 Poisson Solv.   Energy =     0.0000000000
    2    -684.6455950760      2.98E-02  Gap = 2.12 eV 
 Inaccurate integrated density:
   Number of electrons =    98
   Numerical integral  =    97.946621166919
   Relative error      =    -0.0544681970 %
 Number of grid points used for NLC = 60648
 One-Electron    Energy = -2099.4271628495
 Total Coulomb   Energy =   935.4265437596
 Alpha Exchange  Energy =   -13.4833372340
 Beta  Exchange  Energy =   -13.4833372340
 DFT   Exchange  Energy =   -58.3886259122
 DFT Correlation Energy =    -3.7355876700
 Kinetic         Energy = -1531.3408733805
 Nuclear Repu.   Energy =   568.5983224597
 Nuclear Attr.   Energy =  -568.0862894690
 Ewald QM/MM     Energy =     0.0000000000
 Poisson Solv.   Energy =     0.0000000000
    3    -684.4931846806      3.80E-02  Gap = 7.69 eV 
 Inaccurate integrated density:
   Number of electrons =    98
   Numerical integral  =    97.982676568409
   Relative error      =    -0.0176769710 %
 Number of grid points used for NLC = 60257
 One-Electron    Energy = -2111.8610548889
 Total Coulomb   Energy =   948.7624307848
 Alpha Exchange  Energy =   -13.6786998277
 Beta  Exchange  Energy =   -13.6786998277
 DFT   Exchange  Energy =   -59.6386548638
 DFT Correlation Energy =    -3.7793608453
 Kinetic         Energy = -1534.3901592369
 Nuclear Repu.   Energy =   568.5983224597
 Nuclear Attr.   Energy =  -577.4708956520
 Ewald QM/MM     Energy =     0.0000000000
 Poisson Solv.   Energy =     0.0000000000
    4    -685.2757170089      4.22E-03  Gap = 6.44 eV 
 Inaccurate integrated density:
   Number of electrons =    98
   Numerical integral  =    97.980279563232
   Relative error      =    -0.0201228947 %
 Number of grid points used for NLC = 60262
 One-Electron    Energy = -2112.4972313136
 Total Coulomb   Energy =   949.5758940717
 Alpha Exchange  Energy =   -13.6782513962
 Beta  Exchange  Energy =   -13.6782513962
 DFT   Exchange  Energy =   -59.6522815849
 DFT Correlation Energy =    -3.7791304630
 Kinetic         Energy = -1536.0682195608
 Nuclear Repu.   Energy =   568.5983224597
 Nuclear Attr.   Energy =  -576.4290117527
 Ewald QM/MM     Energy =     0.0000000000
 Poisson Solv.   Energy =     0.0000000000
    5    -685.1109296225      6.23E-03  Gap = 6.86 eV 
 Inaccurate integrated density:
   Number of electrons =    98
   Numerical integral  =    97.980722291520
   Relative error      =    -0.0196711311 %
 Number of grid points used for NLC = 60257
 One-Electron    Energy = -2112.0045352312
 Total Coulomb   Energy =   948.9481354408
 Alpha Exchange  Energy =   -13.6752559845
 Beta  Exchange  Energy =   -13.6752559845
 DFT   Exchange  Energy =   -59.6253123190
 DFT Correlation Energy =    -3.7780588420
 Kinetic         Energy = -1535.4586385716
 Nuclear Repu.   Energy =   568.5983224597
 Nuclear Attr.   Energy =  -576.5458966596
 Ewald QM/MM     Energy =     0.0000000000
 Poisson Solv.   Energy =     0.0000000000
    6    -685.2119604606      1.73E-03  Gap = 7.50 eV 
 Inaccurate integrated density:
   Number of electrons =    98
   Numerical integral  =    97.981892190736
   Relative error      =    -0.0184773564 %
 Number of grid points used for NLC = 60227
 One-Electron    Energy = -2112.7010653360
 Total Coulomb   Energy =   949.7054984792
 Alpha Exchange  Energy =   -13.6874783523
 Beta  Exchange  Energy =   -13.6874783523
 DFT   Exchange  Energy =   -59.7066124393
 DFT Correlation Energy =    -3.7802285053
 Kinetic         Energy = -1535.4391594503
 Nuclear Repu.   Energy =   568.5983224597
 Nuclear Attr.   Energy =  -577.2619058857
 Ewald QM/MM     Energy =     0.0000000000
 Poisson Solv.   Energy =     0.0000000000
    7    -685.2590420464      7.11E-04  Gap = 7.39 eV 
 Inaccurate integrated density:
   Number of electrons =    98
   Numerical integral  =    97.981530977125
   Relative error      =    -0.0188459417 %
 Number of grid points used for NLC = 60235
 One-Electron    Energy = -2112.5471042211
 Total Coulomb   Energy =   949.5299168854
 Alpha Exchange  Energy =   -13.6850270989
 Beta  Exchange  Energy =   -13.6850270989
 DFT   Exchange  Energy =   -59.6900353078
 DFT Correlation Energy =    -3.7797005377
 Kinetic         Energy = -1535.3900213702
 Nuclear Repu.   Energy =   568.5983224597
 Nuclear Attr.   Energy =  -577.1570828508
 Ewald QM/MM     Energy =     0.0000000000
 Poisson Solv.   Energy =     0.0000000000
    8    -685.2586549193      2.43E-04  Gap = 7.36 eV 
 Inaccurate integrated density:
   Number of electrons =    98
   Numerical integral  =    97.981461962776
   Relative error      =    -0.0189163645 %
 Number of grid points used for NLC = 60233
 One-Electron    Energy = -2112.6166108694
 Total Coulomb   Energy =   949.6104488632
 Alpha Exchange  Energy =   -13.6857712493
 Beta  Exchange  Energy =   -13.6857712493
 DFT   Exchange  Energy =   -59.6951664897
 DFT Correlation Energy =    -3.7798333136
 Kinetic         Energy = -1535.4861399860
 Nuclear Repu.   Energy =   568.5983224597
 Nuclear Attr.   Energy =  -577.1304708835
 Ewald QM/MM     Energy =     0.0000000000
 Poisson Solv.   Energy =     0.0000000000
    9    -685.2543818484      1.31E-04  Gap = 7.36 eV 
 Inaccurate integrated density:
   Number of electrons =    98
   Numerical integral  =    97.981411817979
   Relative error      =    -0.0189675327 %
 Number of grid points used for NLC = 60236
 One-Electron    Energy = -2112.5954772558
 Total Coulomb   Energy =   949.5847204189
 Alpha Exchange  Energy =   -13.6855165892
 Beta  Exchange  Energy =   -13.6855165892
 DFT   Exchange  Energy =   -59.6932274173
 DFT Correlation Energy =    -3.7797599701
 Kinetic         Energy = -1535.4682064694
 Nuclear Repu.   Energy =   568.5983224597
 Nuclear Attr.   Energy =  -577.1272707864
 Ewald QM/MM     Energy =     0.0000000000
 Poisson Solv.   Energy =     0.0000000000
   10    -685.2564549431      6.86E-05  Gap = 7.36 eV 
 Inaccurate integrated density:
   Number of electrons =    98
   Numerical integral  =    97.981392151974
   Relative error      =    -0.0189876000 %
 Number of grid points used for NLC = 60236
 One-Electron    Energy = -2112.5952113129
 Total Coulomb   Energy =   949.5839512699
 Alpha Exchange  Energy =   -13.6855681253
 Beta  Exchange  Energy =   -13.6855681253
 DFT   Exchange  Energy =   -59.6934142066
 DFT Correlation Energy =    -3.7797472892
 Kinetic         Energy = -1535.4654615050
 Nuclear Repu.   Energy =   568.5983224597
 Nuclear Attr.   Energy =  -577.1297498080
 Ewald QM/MM     Energy =     0.0000000000
 Poisson Solv.   Energy =     0.0000000000
   11    -685.2572353298      4.37E-05  Gap = 7.35 eV 
 Inaccurate integrated density:
   Number of electrons =    98
   Numerical integral  =    97.981370693012
   Relative error      =    -0.0190094969 %
 Number of grid points used for NLC = 60237
 One-Electron    Energy = -2112.5952362791
 Total Coulomb   Energy =   949.5833701314
 Alpha Exchange  Energy =   -13.6855658890
 Beta  Exchange  Energy =   -13.6855658890
 DFT   Exchange  Energy =   -59.6931889394
 DFT Correlation Energy =    -3.7797399200
 Kinetic         Energy = -1535.4718588422
 Nuclear Repu.   Energy =   568.5983224597
 Nuclear Attr.   Energy =  -577.1233774369
 Ewald QM/MM     Energy =     0.0000000000
 Poisson Solv.   Energy =     0.0000000000
   12    -685.2576043253      2.09E-05  Gap = 7.36 eV 
 Inaccurate integrated density:
   Number of electrons =    98
   Numerical integral  =    97.981374069376
   Relative error      =    -0.0190060517 %
 Number of grid points used for NLC = 60237
 One-Electron    Energy = -2112.5920776025
 Total Coulomb   Energy =   949.5797875865
 Alpha Exchange  Energy =   -13.6855399859
 Beta  Exchange  Energy =   -13.6855399859
 DFT   Exchange  Energy =   -59.6929532994
 DFT Correlation Energy =    -3.7797307072
 Kinetic         Energy = -1535.4665482251
 Nuclear Repu.   Energy =   568.5983224597
 Nuclear Attr.   Energy =  -577.1255293774
 Ewald QM/MM     Energy =     0.0000000000
 Poisson Solv.   Energy =     0.0000000000
   13    -685.2577315348      1.07E-05  Gap = 7.35 eV 
 Inaccurate integrated density:
   Number of electrons =    98
   Numerical integral  =    97.981374603051
   Relative error      =    -0.0190055071 %
 Number of grid points used for NLC = 60236
 One-Electron    Energy = -2112.5911501442
 Total Coulomb   Energy =   949.5787250445
 Alpha Exchange  Energy =   -13.6855432110
 Beta  Exchange  Energy =   -13.6855432110
 DFT   Exchange  Energy =   -59.6929512967
 DFT Correlation Energy =    -3.7797267323
 Kinetic         Energy = -1535.4668663540
 Nuclear Repu.   Energy =   568.5983224597
 Nuclear Attr.   Energy =  -577.1242837902
 Ewald QM/MM     Energy =     0.0000000000
 Poisson Solv.   Energy =     0.0000000000
   14    -685.2578670912      7.85E-06  Gap = 7.35 eV 
 Inaccurate integrated density:
   Number of electrons =    98
   Numerical integral  =    97.981376416918
   Relative error      =    -0.0190036562 %
 Number of grid points used for NLC = 60236
 One-Electron    Energy = -2112.5911339915
 Total Coulomb   Energy =   949.5788439049
 Alpha Exchange  Energy =   -13.6855325955
 Beta  Exchange  Energy =   -13.6855325955
 DFT   Exchange  Energy =   -59.6928669251
 DFT Correlation Energy =    -3.7797274787
 Kinetic         Energy = -1535.4666236806
 Nuclear Repu.   Energy =   568.5983224597
 Nuclear Attr.   Energy =  -577.1245103109
 Ewald QM/MM     Energy =     0.0000000000
 Poisson Solv.   Energy =     0.0000000000
   15    -685.2576272216      3.75E-06  Gap = 7.35 eV 
 Inaccurate integrated density:
   Number of electrons =    98
   Numerical integral  =    97.981375228184
   Relative error      =    -0.0190048692 %
 Number of grid points used for NLC = 60236
 One-Electron    Energy = -2112.5901968174
 Total Coulomb   Energy =   949.5777098361
 Alpha Exchange  Energy =   -13.6855230098
 Beta  Exchange  Energy =   -13.6855230098
 DFT   Exchange  Energy =   -59.6928054971
 DFT Correlation Energy =    -3.7797244546
 Kinetic         Energy = -1535.4662111789
 Nuclear Repu.   Energy =   568.5983224597
 Nuclear Attr.   Energy =  -577.1239856386
 Ewald QM/MM     Energy =     0.0000000000
 Poisson Solv.   Energy =     0.0000000000
   16    -685.2577404928      1.28E-06  Gap = 7.35 eV 
 Inaccurate integrated density:
   Number of electrons =    98
   Numerical integral  =    97.981374926637
   Relative error      =    -0.0190051769 %
 Number of grid points used for NLC = 60236
 One-Electron    Energy = -2112.5903135856
 Total Coulomb   Energy =   949.5778572545
 Alpha Exchange  Energy =   -13.6855224237
 Beta  Exchange  Energy =   -13.6855224237
 DFT   Exchange  Energy =   -59.6928005921
 DFT Correlation Energy =    -3.7797246085
 Kinetic         Energy = -1535.4663392770
 Nuclear Repu.   Energy =   568.5983224597
 Nuclear Attr.   Energy =  -577.1239743086
 Ewald QM/MM     Energy =     0.0000000000
 Poisson Solv.   Energy =     0.0000000000
   17    -685.2577039194      7.35E-07  Gap = 7.35 eV 
 Inaccurate integrated density:
   Number of electrons =    98
   Numerical integral  =    97.981375029574
   Relative error      =    -0.0190050719 %
 Number of grid points used for NLC = 60236
 One-Electron    Energy = -2112.5902668738
 Total Coulomb   Energy =   949.5777885073
 Alpha Exchange  Energy =   -13.6855224617
 Beta  Exchange  Energy =   -13.6855224617
 DFT   Exchange  Energy =   -59.6928008769
 DFT Correlation Energy =    -3.7797246239
 Kinetic         Energy = -1535.4662540312
 Nuclear Repu.   Energy =   568.5983224597
 Nuclear Attr.   Energy =  -577.1240128426
 Ewald QM/MM     Energy =     0.0000000000
 Poisson Solv.   Energy =     0.0000000000
   18    -685.2577263309      2.92E-07  Gap = 7.35 eV 
 Inaccurate integrated density:
   Number of electrons =    98
   Numerical integral  =    97.981375091156
   Relative error      =    -0.0190050090 %
 Number of grid points used for NLC = 60236
 One-Electron    Energy = -2112.5902960015
 Total Coulomb   Energy =   949.5778223946
 Alpha Exchange  Energy =   -13.6855231213
 Beta  Exchange  Energy =   -13.6855231213
 DFT   Exchange  Energy =   -59.6928056171
 DFT Correlation Energy =    -3.7797247032
 Kinetic         Energy = -1535.4662852323
 Nuclear Repu.   Energy =   568.5983224597
 Nuclear Attr.   Energy =  -577.1240107692
 Ewald QM/MM     Energy =     0.0000000000
 Poisson Solv.   Energy =     0.0000000000
   19    -685.2577277101      1.45E-07  Gap = 7.35 eV 
 Inaccurate integrated density:
   Number of electrons =    98
   Numerical integral  =    97.981375095964
   Relative error      =    -0.0190050041 %
 Number of grid points used for NLC = 60236
 One-Electron    Energy = -2112.5902886369
 Total Coulomb   Energy =   949.5778139218
 Alpha Exchange  Energy =   -13.6855227504
 Beta  Exchange  Energy =   -13.6855227504
 DFT   Exchange  Energy =   -59.6928032390
 DFT Correlation Energy =    -3.7797246850
 Kinetic         Energy = -1535.4662860152
 Nuclear Repu.   Energy =   568.5983224597
 Nuclear Attr.   Energy =  -577.1240026217
 Ewald QM/MM     Energy =     0.0000000000
 Poisson Solv.   Energy =     0.0000000000
   20    -685.2577256803      7.08E-08  Gap = 7.35 eV 
 Inaccurate integrated density:
   Number of electrons =    98
   Numerical integral  =    97.981375098229
   Relative error      =    -0.0190050018 %
 Number of grid points used for NLC = 60236
 One-Electron    Energy = -2112.5902751910
 Total Coulomb   Energy =   949.5777983423
 Alpha Exchange  Energy =   -13.6855226304
 Beta  Exchange  Energy =   -13.6855226304
 DFT   Exchange  Energy =   -59.6928023547
 DFT Correlation Energy =    -3.7797246518
 Kinetic         Energy = -1535.4662736189
 Nuclear Repu.   Energy =   568.5983224597
 Nuclear Attr.   Energy =  -577.1240015720
 Ewald QM/MM     Energy =     0.0000000000
 Poisson Solv.   Energy =     0.0000000000
   21    -685.2577266563      2.43E-08  Gap = 7.35 eV 
 Inaccurate integrated density:
   Number of electrons =    98
   Numerical integral  =    97.981375100232
   Relative error      =    -0.0190049998 %
 Number of grid points used for NLC = 60236
 One-Electron    Energy = -2112.5902828315
 Total Coulomb   Energy =   949.5778067516
 Alpha Exchange  Energy =   -13.6855227219
 Beta  Exchange  Energy =   -13.6855227219
 DFT   Exchange  Energy =   -59.6928030331
 DFT Correlation Energy =    -3.7797246719
 Kinetic         Energy = -1535.4662812656
 Nuclear Repu.   Energy =   568.5983224597
 Nuclear Attr.   Energy =  -577.1240015659
 Ewald QM/MM     Energy =     0.0000000000
 Poisson Solv.   Energy =     0.0000000000
CDFTCI weight 0=    79.7523925344
CDFTCI weight 1=     0.0000000000
   22    -685.2577267690      9.97E-09 Convergence criterion met
 ---------------------------------------
 One-Electron    Energy = -2112.5902828315
 Total Coulomb   Energy =   949.5778067516
 Alpha Exchange  Energy =   -13.6855227219
 Beta  Exchange  Energy =   -13.6855227219
 DFT   Exchange  Energy =   -59.6928030331
 DFT Correlation Energy =    -3.7797246719
 Nuclear Repu.   Energy =   568.5983224597
 Nuclear Attr.   Energy =  -577.1240015659
 Kinetic         Energy = -1535.4662812656

************** Final PCM Free Energy Summary **************
 G_electrostatic  =      -0.58835664 hartree =    -369.19936605 kcal/mol
 G_cavitation     =       0.00000000 hartree =       0.00000000 kcal/mol
 G_dispersion     =       0.00000000 hartree =       0.00000000 kcal/mol
 G_repulsion      =       0.00000000 hartree =       0.00000000 kcal/mol
 --------------------------------------------------
 Non-electrostatic Free Energy =       0.00000000 hartree =       0.00000000 kcal/mol
 Total                         =      -0.58835664 hartree =    -369.19936605 kcal/mol
 --------------------------------------------------
 SCF Energy (H0 + V/2)                       =    -685.25772677 
 Solute Internal Energy (H0)                 =    -684.66937013 
 Total Free Energy (H0 + V/2 + non-elec)     =    -685.25772677 hartree
                                             = -430005.71362347 kcal/mol
***********************************************************

 <S^2> = 0.0000
 SCF time:  CPU 5149.10 s  wall 5133.04 s


CDFT-CI fragment calculation complete,
beginning diabatic state SCF calculation.

 Smallest overlap matrix eigenvalue = 2.39E-06
 Guess from superposition of atomic densities
 Warning:  Energy on first SCF cycle will be non-variational
 SAD guess density has 95.000000 electrons
 Long-range K will be added via erf
 Coulomb attenuation parameter = 0.3 bohr**(-1)
 An unrestricted hybrid HF-DFT SCF calculation will be
 performed using Pulay DIIS extrapolation
 Polarizable Continuum solvation model will be applied
 Exchange:     0.1670 Hartree-Fock + 1.0000 Constrained DFT (Becke Weights) + 1.0000 wB97X-V + LR-HF
 Correlation:  1.0000 wB97X-V
 Using SG-2 standard quadrature grid
 Nonlocal Correlation:  VV10 with C = 0.0100 and b = 6.00
 Grid used for NLC:  SG-1 standard quadrature
 SCF converges when DIIS error is below 1.0E-08
 Maximum number of SCF iterations = 1000
CDFT-CI using saved MOs from disk as guess
 using 16 threads for integral computing
 -------------------------------------------------------
 OpenMP Integral computing Module                
 Release: version 1.0, May 2013, Q-Chem Inc. Pittsburgh 
 -------------------------------------------------------
 using 16 threads for integral computing
 -------------------------------------------------------
 OpenMP Integral computing Module                
 Release: version 1.0, May 2013, Q-Chem Inc. Pittsburgh 
 -------------------------------------------------------
 -------------------------------------------------------
 OpenMP BLAS3 based DFT computing Module                
 Release: version 1.0, May 2013, Q-Chem Inc. Pittsburgh 
 -------------------------------------------------------
 -------------------------------------------------------
 OpenMP BLAS3 based DFT computing Module                
 Release: version 1.0, May 2013, Q-Chem Inc. Pittsburgh 
 -------------------------------------------------------
 -------------------------------------------------------
 OpenMP BLAS3 based DFT computing Module                
 Release: version 1.0, May 2013, Q-Chem Inc. Pittsburgh 
 -------------------------------------------------------
 One-Electron    Energy = -2458.1186593297
 Total Coulomb   Energy =  1109.9260961733
 Alpha Exchange  Energy =   -13.6984376350
 Beta  Exchange  Energy =   -13.6984376350
 DFT   Exchange  Energy =   -59.7508956750
 DFT Correlation Energy =    -3.7934508096
 Kinetic         Energy =   719.8007564631
 Nuclear Repu.   Energy =   716.9788509898
 Nuclear Attr.   Energy = -3177.9194157929
 Ewald QM/MM     Energy =     0.0000000000
 Poisson Solv.   Energy =     0.0000000000
 -------------------------------------------------------
 OpenMP BLAS3 based DFT computing Module                
 Release: version 1.0, May 2013, Q-Chem Inc. Pittsburgh 
 -------------------------------------------------------
 -------------------------------------------------------
 OpenMP BLAS3 based DFT computing Module                
 Release: version 1.0, May 2013, Q-Chem Inc. Pittsburgh 
 -------------------------------------------------------
Constraint 0 : 79.7523925344
Constraint 1 : 0.0000000000
 ---------------------------------------
  Cycle       Energy         DIIS Error
 ---------------------------------------
    1    -722.1549339211      3.15E-04  Gap = 3.87 eV 
 One-Electron    Energy = -2456.9546474438
 Total Coulomb   Energy =  1108.0455373363
 Alpha Exchange  Energy =   -13.6806766801
 Beta  Exchange  Energy =   -13.6806766801
 DFT   Exchange  Energy =   -59.6661069744
 DFT Correlation Energy =    -3.7864920916
 Kinetic         Energy =   718.6513372976
 Nuclear Repu.   Energy =   716.9788509898
 Nuclear Attr.   Energy = -3175.6059847414
 Ewald QM/MM     Energy =     0.0000000000
 Poisson Solv.   Energy =     0.0000000000
    2    -722.7442115438      3.78E-04  Gap = 4.90 eV 
 One-Electron    Energy = -2458.1861208841
 Total Coulomb   Energy =  1109.3793808986
 Alpha Exchange  Energy =   -13.6940284779
 Beta  Exchange  Energy =   -13.6940284779
 DFT   Exchange  Energy =   -59.7447549474
 DFT Correlation Energy =    -3.7907833150
 Kinetic         Energy =   719.2843644773
 Nuclear Repu.   Energy =   716.9788509898
 Nuclear Attr.   Energy = -3177.4704853614
 Ewald QM/MM     Energy =     0.0000000000
 Poisson Solv.   Energy =     0.0000000000
    3    -722.7514842139      1.69E-04  Gap = 4.93 eV 
 One-Electron    Energy = -2458.2183899057
 Total Coulomb   Energy =  1109.4015065459
 Alpha Exchange  Energy =   -13.6937678997
 Beta  Exchange  Energy =   -13.6937678997
 DFT   Exchange  Energy =   -59.7359555425
 DFT Correlation Energy =    -3.7911476617
 Kinetic         Energy =   719.1572115614
 Nuclear Repu.   Energy =   716.9788509898
 Nuclear Attr.   Energy = -3177.3756014672
 Ewald QM/MM     Energy =     0.0000000000
 Poisson Solv.   Energy =     0.0000000000
    4    -722.7526713737      1.23E-04  Gap = 4.97 eV 
 One-Electron    Energy = -2458.3461597198
 Total Coulomb   Energy =  1109.5349520093
 Alpha Exchange  Energy =   -13.6950173865
 Beta  Exchange  Energy =   -13.6950173865
 DFT   Exchange  Energy =   -59.7392932046
 DFT Correlation Energy =    -3.7917661544
 Kinetic         Energy =   719.1582422418
 Nuclear Repu.   Energy =   716.9788509898
 Nuclear Attr.   Energy = -3177.5044019617
 Ewald QM/MM     Energy =     0.0000000000
 Poisson Solv.   Energy =     0.0000000000
    5    -722.7534508527      8.86E-05  Gap = 5.00 eV 
 One-Electron    Energy = -2458.5096040468
 Total Coulomb   Energy =  1109.7080272016
 Alpha Exchange  Energy =   -13.6966575760
 Beta  Exchange  Energy =   -13.6966575760
 DFT   Exchange  Energy =   -59.7454758389
 DFT Correlation Energy =    -3.7925138743
 Kinetic         Energy =   719.1888656321
 Nuclear Repu.   Energy =   716.9788509898
 Nuclear Attr.   Energy = -3177.6984696789
 Ewald QM/MM     Energy =     0.0000000000
 Poisson Solv.   Energy =     0.0000000000
    6    -722.7540307205      5.32E-05  Gap = 5.01 eV 
 One-Electron    Energy = -2458.6171335221
 Total Coulomb   Energy =  1109.8198410577
 Alpha Exchange  Energy =   -13.6975041193
 Beta  Exchange  Energy =   -13.6975041193
 DFT   Exchange  Energy =   -59.7478322543
 DFT Correlation Energy =    -3.7929818242
 Kinetic         Energy =   719.1915296516
 Nuclear Repu.   Energy =   716.9788509898
 Nuclear Attr.   Energy = -3177.8086631737
 Ewald QM/MM     Energy =     0.0000000000
 Poisson Solv.   Energy =     0.0000000000
    7    -722.7542637917      2.72E-05  Gap = 5.02 eV 
 One-Electron    Energy = -2458.6675246664
 Total Coulomb   Energy =  1109.8727791182
 Alpha Exchange  Energy =   -13.6979867655
 Beta  Exchange  Energy =   -13.6979867655
 DFT   Exchange  Energy =   -59.7492262409
 DFT Correlation Energy =    -3.7932345431
 Kinetic         Energy =   719.1936596330
 Nuclear Repu.   Energy =   716.9788509898
 Nuclear Attr.   Energy = -3177.8611842994
 Ewald QM/MM     Energy =     0.0000000000
 Poisson Solv.   Energy =     0.0000000000
    8    -722.7543288733      1.26E-05  Gap = 5.03 eV 
 One-Electron    Energy = -2458.7119630721
 Total Coulomb   Energy =  1109.9197574698
 Alpha Exchange  Energy =   -13.6983951614
 Beta  Exchange  Energy =   -13.6983951614
 DFT   Exchange  Energy =   -59.7507722077
 DFT Correlation Energy =    -3.7934296405
 Kinetic         Energy =   719.2009172458
 Nuclear Repu.   Energy =   716.9788509898
 Nuclear Attr.   Energy = -3177.9128803179
 Ewald QM/MM     Energy =     0.0000000000
 Poisson Solv.   Energy =     0.0000000000
    9    -722.7543467834      2.06E-06  Gap = 5.03 eV 
 One-Electron    Energy = -2458.7167879471
 Total Coulomb   Energy =  1109.9247361250
 Alpha Exchange  Energy =   -13.6984187101
 Beta  Exchange  Energy =   -13.6984187101
 DFT   Exchange  Energy =   -59.7508638238
 DFT Correlation Energy =    -3.7934455068
 Kinetic         Energy =   719.2013136334
 Nuclear Repu.   Energy =   716.9788509898
 Nuclear Attr.   Energy = -3177.9181015805
 Ewald QM/MM     Energy =     0.0000000000
 Poisson Solv.   Energy =     0.0000000000
   10    -722.7543475832      8.40E-07  Gap = 5.03 eV 
 One-Electron    Energy = -2458.7174042130
 Total Coulomb   Energy =  1109.9253983216
 Alpha Exchange  Energy =   -13.6984277071
 Beta  Exchange  Energy =   -13.6984277071
 DFT   Exchange  Energy =   -59.7508892693
 DFT Correlation Energy =    -3.7934481158
 Kinetic         Energy =   719.2014004630
 Nuclear Repu.   Energy =   716.9788509898
 Nuclear Attr.   Energy = -3177.9188046761
 Ewald QM/MM     Energy =     0.0000000000
 Poisson Solv.   Energy =     0.0000000000
   11    -722.7543477009      4.07E-07  Gap = 5.03 eV 
 One-Electron    Energy = -2458.7176236638
 Total Coulomb   Energy =  1109.9256020567
 Alpha Exchange  Energy =   -13.6984286828
 Beta  Exchange  Energy =   -13.6984286828
 DFT   Exchange  Energy =   -59.7508704173
 DFT Correlation Energy =    -3.7934493392
 Kinetic         Energy =   719.2011497470
 Nuclear Repu.   Energy =   716.9788509898
 Nuclear Attr.   Energy = -3177.9187734109
 Ewald QM/MM     Energy =     0.0000000000
 Poisson Solv.   Energy =     0.0000000000
   12    -722.7543477395      2.02E-07  Gap = 5.03 eV 
 One-Electron    Energy = -2458.7178272206
 Total Coulomb   Energy =  1109.9258301824
 Alpha Exchange  Energy =   -13.6984329056
 Beta  Exchange  Energy =   -13.6984329056
 DFT   Exchange  Energy =   -59.7508862122
 DFT Correlation Energy =    -3.7934496859
 Kinetic         Energy =   719.2013033086
 Nuclear Repu.   Energy =   716.9788509898
 Nuclear Attr.   Energy = -3177.9191305292
 Ewald QM/MM     Energy =     0.0000000000
 Poisson Solv.   Energy =     0.0000000000
   13    -722.7543477576      1.05E-07  Gap = 5.02 eV 
 One-Electron    Energy = -2458.7179403189
 Total Coulomb   Energy =  1109.9259540912
 Alpha Exchange  Energy =   -13.6984351371
 Beta  Exchange  Energy =   -13.6984351371
 DFT   Exchange  Energy =   -59.7508920233
 DFT Correlation Energy =    -3.7934502283
 Kinetic         Energy =   719.2013380507
 Nuclear Repu.   Energy =   716.9788509898
 Nuclear Attr.   Energy = -3177.9192783695
 Ewald QM/MM     Energy =     0.0000000000
 Poisson Solv.   Energy =     0.0000000000
   14    -722.7543477637      6.89E-08  Gap = 5.02 eV 
 One-Electron    Energy = -2458.7181057290
 Total Coulomb   Energy =  1109.9261284109
 Alpha Exchange  Energy =   -13.6984371271
 Beta  Exchange  Energy =   -13.6984371271
 DFT   Exchange  Energy =   -59.7508962191
 DFT Correlation Energy =    -3.7934509642
 Kinetic         Energy =   719.2013429911
 Nuclear Repu.   Energy =   716.9788509898
 Nuclear Attr.   Energy = -3177.9194487200
 Ewald QM/MM     Energy =     0.0000000000
 Poisson Solv.   Energy =     0.0000000000
   15    -722.7543477658      3.59E-08  Gap = 5.02 eV 
 One-Electron    Energy = -2458.7180554540
 Total Coulomb   Energy =  1109.9260761951
 Alpha Exchange  Energy =   -13.6984373113
 Beta  Exchange  Energy =   -13.6984373113
 DFT   Exchange  Energy =   -59.7508942734
 DFT Correlation Energy =    -3.7934508395
 Kinetic         Energy =   719.2013246989
 Nuclear Repu.   Energy =   716.9788509898
 Nuclear Attr.   Energy = -3177.9193801529
 Ewald QM/MM     Energy =     0.0000000000
 Poisson Solv.   Energy =     0.0000000000
   16    -722.7543480047      2.07E-08  Gap = 5.02 eV 
 One-Electron    Energy = -2458.7180490221
 Total Coulomb   Energy =  1109.9260708942
 Alpha Exchange  Energy =   -13.6984376119
 Beta  Exchange  Energy =   -13.6984376119
 DFT   Exchange  Energy =   -59.7508949372
 DFT Correlation Energy =    -3.7934508399
 Kinetic         Energy =   719.2013312123
 Nuclear Repu.   Energy =   716.9788509898
 Nuclear Attr.   Energy = -3177.9193802343
 Ewald QM/MM     Energy =     0.0000000000
 Poisson Solv.   Energy =     0.0000000000
   17    -722.7543481390      1.26E-08  Gap = 5.02 eV 
 One-Electron    Energy = -2458.7180773808
 Total Coulomb   Energy =  1109.9261002410
 Alpha Exchange  Energy =   -13.6984375621
 Beta  Exchange  Energy =   -13.6984375621
 DFT   Exchange  Energy =   -59.7508956681
 DFT Correlation Energy =    -3.7934508250
 Kinetic         Energy =   719.2013430453
 Nuclear Repu.   Energy =   716.9788509898
 Nuclear Attr.   Energy = -3177.9194204261
 Ewald QM/MM     Energy =     0.0000000000
 Poisson Solv.   Energy =     0.0000000000
   18    -722.7543477672      2.00E-08  Gap = 5.02 eV 
 One-Electron    Energy = -2458.7180852238
 Total Coulomb   Energy =  1109.9261085771
 Alpha Exchange  Energy =   -13.6984375711
 Beta  Exchange  Energy =   -13.6984375711
 DFT   Exchange  Energy =   -59.7508960635
 DFT Correlation Energy =    -3.7934508482
 Kinetic         Energy =   719.2013465010
 Nuclear Repu.   Energy =   716.9788509898
 Nuclear Attr.   Energy = -3177.9194317248
 Ewald QM/MM     Energy =     0.0000000000
 Poisson Solv.   Energy =     0.0000000000
   19    -722.7543477106      1.15E-08  Gap = 5.02 eV 
 One-Electron    Energy = -2458.7180800850
 Total Coulomb   Energy =  1109.9261028301
 Alpha Exchange  Energy =   -13.6984374310
 Beta  Exchange  Energy =   -13.6984374310
 DFT   Exchange  Energy =   -59.7508956543
 DFT Correlation Energy =    -3.7934508205
 Kinetic         Energy =   719.2013433518
 Nuclear Repu.   Energy =   716.9788509898
 Nuclear Attr.   Energy = -3177.9194234368
 Ewald QM/MM     Energy =     0.0000000000
 Poisson Solv.   Energy =     0.0000000000
 Inaccurate integrated density:
   Number of electrons =    98
   Numerical integral  =    97.989494681222
   Relative error      =    -0.0107197130 %
Lam  -0.0475964565178621
Lam   0.0000000000002052
Final Multiplier 1:      79.7524      -0.0475965 
Final Multiplier 2:       0.0000       0.0000000 
   20    -722.7543476018      6.81E-09 Convergence criterion met
 ---------------------------------------
 One-Electron    Energy = -2458.7180800850
 Total Coulomb   Energy =  1109.9261028301
 Alpha Exchange  Energy =   -13.6984374310
 Beta  Exchange  Energy =   -13.6984374310
 DFT   Exchange  Energy =   -59.7508956543
 DFT Correlation Energy =    -3.7934508205
 Nuclear Repu.   Energy =   716.9788509898
 Nuclear Attr.   Energy = -3177.9194234368
 Kinetic         Energy =   719.2013433518

************** Final PCM Free Energy Summary **************
 G_electrostatic  =      -0.59941358 hartree =    -376.13770049 kcal/mol
 G_cavitation     =       0.00000000 hartree =       0.00000000 kcal/mol
 G_dispersion     =       0.00000000 hartree =       0.00000000 kcal/mol
 G_repulsion      =       0.00000000 hartree =       0.00000000 kcal/mol
 --------------------------------------------------
 Non-electrostatic Free Energy =       0.00000000 hartree =       0.00000000 kcal/mol
 Total                         =      -0.59941358 hartree =    -376.13770049 kcal/mol
 --------------------------------------------------
 SCF Energy (H0 + V/2)                       =    -722.75434760 
 Solute Internal Energy (H0)                 =    -722.15493402 
 Total Free Energy (H0 + V/2 + non-elec)     =    -722.75434760 hartree
                                             = -453535.19832654 kcal/mol
***********************************************************

 <S^2> = 0.0000

                  CDFT Becke Populations
----------------------------------------
            Atom  Net Number    Net Spin
       1       C   -0.897067    0.000000
       2       C   -0.307785   -0.000000
       3       O    0.590209   -0.000000
       4       O    0.559806    0.000000
       5       C   -0.913286    0.000000
       6       H    0.493012   -0.000000
       7       H    0.518615   -0.000000
       8       H    0.532297    0.000000
       9       H    0.515033   -0.000000
      10       C   -0.326534    0.000000
      11       C   -1.281876   -0.000000
      12       H    0.480267    0.000000
      13       H    0.502651   -0.000000
      14       H    0.460272    0.000000
      15       O    0.458907    0.000000
      16       O    0.184064    0.000000
      17       O   -0.498730   -0.000000
      18       H    0.682543   -0.000000
      19       H    0.706329    0.000000
      20       O   -0.147458    0.000000
      21       O    0.678226    0.000000
----------------------------------------

 SCF time:  CPU 8977.25 s  wall 645.33 s


Starting CDFT-CI SCF calculation on state 2 ...

 Smallest overlap matrix eigenvalue = 2.39E-06
 Long-range K will be added via erf
 Coulomb attenuation parameter = 0.3 bohr**(-1)
 An unrestricted hybrid HF-DFT SCF calculation will be
 performed using Pulay DIIS extrapolation
 Polarizable Continuum solvation model will be applied
 Exchange:     0.1670 Hartree-Fock + 1.0000 Constrained DFT (Becke Weights) + 1.0000 wB97X-V + LR-HF
 Correlation:  1.0000 wB97X-V
 Using SG-2 standard quadrature grid
 Nonlocal Correlation:  VV10 with C = 0.0100 and b = 6.00
 Grid used for NLC:  SG-1 standard quadrature
 SCF converges when DIIS error is below 1.0E-08
 Maximum number of SCF iterations = 1000
CDFT-CI forcing SAD guess for promolecules
 Guess from superposition of atomic densities
 Warning:  Energy on first SCF cycle will be non-variational
 SAD guess density has 95.000000 electrons
 using 16 threads for integral computing
 -------------------------------------------------------
 OpenMP Integral computing Module                
 -------------------------------------------------------
 using 16 threads for integral computing
 -------------------------------------------------------
 OpenMP Integral computing Module                
 -------------------------------------------------------
 -------------------------------------------------------
 OpenMP BLAS3 based DFT computing Module                
 -------------------------------------------------------
 Inaccurate integrated density:
   Number of electrons =    98
   Numerical integral  =    94.995068678200
   Relative error      =    -3.0662564508 %
 -------------------------------------------------------
 OpenMP BLAS3 based DFT computing Module                
 -------------------------------------------------------
 Inaccurate integrated density:
   Number of electrons =    98
   Numerical integral  =    94.999740248834
   Relative error      =    -3.0614895420 %
 -------------------------------------------------------
 OpenMP BLAS3 based DFT computing Module                
 -------------------------------------------------------
 Number of grid points used for NLC = 60094
 Inaccurate integrated density:
   Number of electrons =    98
   Numerical integral  =    94.999740248834
   Relative error      =    -3.0614895420 %
 One-Electron    Energy = -2405.8048735185
 Total Coulomb   Energy =  1053.6844287909
 Alpha Exchange  Energy =   -13.5221878179
 Beta  Exchange  Energy =   -13.5221878179
 DFT   Exchange  Energy =   -58.2893865200
 DFT Correlation Energy =    -3.6780211403
 Kinetic         Energy =   709.5832289196
 Nuclear Repu.   Energy =   716.9788509898
 Nuclear Attr.   Energy = -3115.3881024382
 Ewald QM/MM     Energy =     0.0000000000
 Poisson Solv.   Energy =     0.0000000000
 ---------------------------------------
  Cycle       Energy         DIIS Error
 ---------------------------------------
    1    -724.1533770338      1.92E-02  Gap = 1.22 eV 
 Number of grid points used for NLC = 60024
 One-Electron    Energy = -2432.1287411851
 Total Coulomb   Energy =  1123.0561768097
 Alpha Exchange  Energy =   -13.8593242525
 Beta  Exchange  Energy =   -13.8593242525
 DFT   Exchange  Energy =   -60.8993213828
 DFT Correlation Energy =    -3.8396957981
 Kinetic         Energy =   766.9726382021
 Nuclear Repu.   Energy =   716.9788509898
 Nuclear Attr.   Energy = -3199.1013793872
 Ewald QM/MM     Energy =     0.0000000000
 Poisson Solv.   Energy =     0.0000000000
    2    -684.5513790714      3.95E-03  Gap = 0.33 eV 
 Inaccurate integrated density:
   Number of electrons =    98
   Numerical integral  =    97.222183896582
   Relative error      =    -0.7936899014 %
 Number of grid points used for NLC = 61540
 One-Electron    Energy = -2400.6725434678
 Total Coulomb   Energy =  1082.1060783955
 Alpha Exchange  Energy =   -13.3336000537
 Beta  Exchange  Energy =   -13.3336000537
 DFT   Exchange  Energy =   -57.9258570167
 DFT Correlation Energy =    -3.6898040444
 Kinetic         Energy =   735.2528047005
 Nuclear Repu.   Energy =   716.9788509898
 Nuclear Attr.   Energy = -3135.9253481683
 Ewald QM/MM     Energy =     0.0000000000
 Poisson Solv.   Energy =     0.0000000000
    3    -689.8704752510      6.99E-03  Gap = 4.50 eV 
 Inaccurate integrated density:
   Number of electrons =    98
   Numerical integral  =    97.987922597348
   Relative error      =    -0.0123238803 %
 Number of grid points used for NLC = 60711
 One-Electron    Energy = -2420.6498449809
 Total Coulomb   Energy =  1109.4020975046
 Alpha Exchange  Energy =   -13.6947156668
 Beta  Exchange  Energy =   -13.6947156668
 DFT   Exchange  Energy =   -59.7418406071
 DFT Correlation Energy =    -3.7958145354
 Kinetic         Energy =   756.2609637425
 Nuclear Repu.   Energy =   716.9788509898
 Nuclear Attr.   Energy = -3176.9108087235
 Ewald QM/MM     Energy =     0.0000000000
 Poisson Solv.   Energy =     0.0000000000
    4    -685.1959829626      2.57E-03  Gap = 5.14 eV 
 Inaccurate integrated density:
   Number of electrons =    98
   Numerical integral  =    97.986204691046
   Relative error      =    -0.0140768459 %
 Number of grid points used for NLC = 60705
 One-Electron    Energy = -2421.2733091512
 Total Coulomb   Energy =  1109.8410367642
 Alpha Exchange  Energy =   -13.7020626834
 Beta  Exchange  Energy =   -13.7020626834
 DFT   Exchange  Energy =   -59.7947483725
 DFT Correlation Energy =    -3.7942774714
 Kinetic         Energy =   756.8019203666
 Nuclear Repu.   Energy =   716.9788509898
 Nuclear Attr.   Energy = -3178.0752295178
 Ewald QM/MM     Energy =     0.0000000000
 Poisson Solv.   Energy =     0.0000000000
    5    -685.4465726079      6.64E-04  Gap = 3.96 eV 
 Inaccurate integrated density:
   Number of electrons =    98
   Numerical integral  =    97.980298755310
   Relative error      =    -0.0201033109 %
 Number of grid points used for NLC = 60765
 One-Electron    Energy = -2420.5416532937
 Total Coulomb   Energy =  1108.8012438021
 Alpha Exchange  Energy =   -13.6876875367
 Beta  Exchange  Energy =   -13.6876875367
 DFT   Exchange  Energy =   -59.7201434160
 DFT Correlation Energy =    -3.7889564979
 Kinetic         Energy =   756.2055813932
 Nuclear Repu.   Energy =   716.9788509898
 Nuclear Attr.   Energy = -3176.7472346869
 Ewald QM/MM     Energy =     0.0000000000
 Poisson Solv.   Energy =     0.0000000000
    6    -685.6460334890      3.04E-04  Gap = 4.17 eV 
 Inaccurate integrated density:
   Number of electrons =    98
   Numerical integral  =    97.977803341025
   Relative error      =    -0.0226496520 %
 Number of grid points used for NLC = 60782
 One-Electron    Energy = -2420.3657681088
 Total Coulomb   Energy =  1108.5452860623
 Alpha Exchange  Energy =   -13.6847736366
 Beta  Exchange  Energy =   -13.6847736366
 DFT   Exchange  Energy =   -59.7063485549
 DFT Correlation Energy =    -3.7874233145
 Kinetic         Energy =   756.0837267070
 Nuclear Repu.   Energy =   716.9788509898
 Nuclear Attr.   Energy = -3176.4494948159
 Ewald QM/MM     Energy =     0.0000000000
 Poisson Solv.   Energy =     0.0000000000
    7    -685.7049501992      1.35E-04  Gap = 4.40 eV 
 Inaccurate integrated density:
   Number of electrons =    98
   Numerical integral  =    97.976078518294
   Relative error      =    -0.0244096752 %
 Number of grid points used for NLC = 60795
 One-Electron    Energy = -2420.2070624991
 Total Coulomb   Energy =  1108.3129896601
 Alpha Exchange  Energy =   -13.6831741134
 Beta  Exchange  Energy =   -13.6831741134
 DFT   Exchange  Energy =   -59.6994886988
 DFT Correlation Energy =    -3.7865814272
 Kinetic         Energy =   755.9822827877
 Nuclear Repu.   Energy =   716.9788509898
 Nuclear Attr.   Energy = -3176.1893452868
 Ewald QM/MM     Energy =     0.0000000000
 Poisson Solv.   Energy =     0.0000000000
    8    -685.7676402021      7.79E-05  Gap = 4.50 eV 
 Inaccurate integrated density:
   Number of electrons =    98
   Numerical integral  =    97.975728612369
   Relative error      =    -0.0247667221 %
 Number of grid points used for NLC = 60797
 One-Electron    Energy = -2420.2859279731
 Total Coulomb   Energy =  1108.4056651468
 Alpha Exchange  Energy =   -13.6835589015
 Beta  Exchange  Energy =   -13.6835589015
 DFT   Exchange  Energy =   -59.7029621262
 DFT Correlation Energy =    -3.7867054719
 Kinetic         Energy =   756.0264119521
 Nuclear Repu.   Energy =   716.9788509898
 Nuclear Attr.   Energy = -3176.3123399252
 Ewald QM/MM     Energy =     0.0000000000
 Poisson Solv.   Energy =     0.0000000000
    9    -685.7581972376      3.53E-05  Gap = 4.57 eV 
 Inaccurate integrated density:
   Number of electrons =    98
   Numerical integral  =    97.975334189152
   Relative error      =    -0.0251691947 %
 Number of grid points used for NLC = 60800
 One-Electron    Energy = -2420.2945825507
 Total Coulomb   Energy =  1108.4043328462
 Alpha Exchange  Energy =   -13.6837189829
 Beta  Exchange  Energy =   -13.6837189829
 DFT   Exchange  Energy =   -59.7044799014
 DFT Correlation Energy =    -3.7866888714
 Kinetic         Energy =   756.0315738056
 Nuclear Repu.   Energy =   716.9788509898
 Nuclear Attr.   Energy = -3176.3261563564
 Ewald QM/MM     Energy =     0.0000000000
 Poisson Solv.   Energy =     0.0000000000
   10    -685.7700054532      1.51E-05  Gap = 4.59 eV 
 Inaccurate integrated density:
   Number of electrons =    98
   Numerical integral  =    97.975074514679
   Relative error      =    -0.0254341687 %
 Number of grid points used for NLC = 60801
 One-Electron    Energy = -2420.2863847748
 Total Coulomb   Energy =  1108.3898323136
 Alpha Exchange  Energy =   -13.6837266155
 Beta  Exchange  Energy =   -13.6837266155
 DFT   Exchange  Energy =   -59.7047096523
 DFT Correlation Energy =    -3.7866175874
 Kinetic         Energy =   756.0281879784
 Nuclear Repu.   Energy =   716.9788509898
 Nuclear Attr.   Energy = -3176.3145727532
 Ewald QM/MM     Energy =     0.0000000000
 Poisson Solv.   Energy =     0.0000000000
   11    -685.7764819421      6.91E-06  Gap = 4.60 eV 
 Inaccurate integrated density:
   Number of electrons =    98
   Numerical integral  =    97.974962357683
   Relative error      =    -0.0255486146 %
 Number of grid points used for NLC = 60802
 One-Electron    Energy = -2420.2928513063
 Total Coulomb   Energy =  1108.3959025534
 Alpha Exchange  Energy =   -13.6838025481
 Beta  Exchange  Energy =   -13.6838025481
 DFT   Exchange  Energy =   -59.7052123421
 DFT Correlation Energy =    -3.7866236445
 Kinetic         Energy =   756.0316347112
 Nuclear Repu.   Energy =   716.9788509898
 Nuclear Attr.   Energy = -3176.3244860175
 Ewald QM/MM     Energy =     0.0000000000
 Poisson Solv.   Energy =     0.0000000000
   12    -685.7775388459      3.62E-06  Gap = 4.60 eV 
 Inaccurate integrated density:
   Number of electrons =    98
   Numerical integral  =    97.974925458327
   Relative error      =    -0.0255862670 %
 Number of grid points used for NLC = 60801
 One-Electron    Energy = -2420.2942915187
 Total Coulomb   Energy =  1108.3969550264
 Alpha Exchange  Energy =   -13.6838341278
 Beta  Exchange  Energy =   -13.6838341278
 DFT   Exchange  Energy =   -59.7054434417
 DFT Correlation Energy =    -3.7866259887
 Kinetic         Energy =   756.0330456413
 Nuclear Repu.   Energy =   716.9788509898
 Nuclear Attr.   Energy = -3176.3273371601
 Ewald QM/MM     Energy =     0.0000000000
 Poisson Solv.   Energy =     0.0000000000
   13    -685.7782231885      1.93E-06  Gap = 4.60 eV 
 Inaccurate integrated density:
   Number of electrons =    98
   Numerical integral  =    97.974930141418
   Relative error      =    -0.0255814883 %
 Number of grid points used for NLC = 60801
 One-Electron    Energy = -2420.2935719166
 Total Coulomb   Energy =  1108.3964681791
 Alpha Exchange  Energy =   -13.6838147039
 Beta  Exchange  Energy =   -13.6838147039
 DFT   Exchange  Energy =   -59.7053520419
 DFT Correlation Energy =    -3.7866232818
 Kinetic         Energy =   756.0324673816
 Nuclear Repu.   Energy =   716.9788509898
 Nuclear Attr.   Energy = -3176.3260392982
 Ewald QM/MM     Energy =     0.0000000000
 Poisson Solv.   Energy =     0.0000000000
   14    -685.7778574791      1.24E-06  Gap = 4.60 eV 
 Inaccurate integrated density:
   Number of electrons =    98
   Numerical integral  =    97.974943997121
   Relative error      =    -0.0255673499 %
 Number of grid points used for NLC = 60802
 One-Electron    Energy = -2420.2940120277
 Total Coulomb   Energy =  1108.3975032774
 Alpha Exchange  Energy =   -13.6837988049
 Beta  Exchange  Energy =   -13.6837988049
 DFT   Exchange  Energy =   -59.7053434117
 DFT Correlation Energy =    -3.7866257421
 Kinetic         Energy =   756.0330788964
 Nuclear Repu.   Energy =   716.9788509898
 Nuclear Attr.   Energy = -3176.3270909241
 Ewald QM/MM     Energy =     0.0000000000
 Poisson Solv.   Energy =     0.0000000000
   15    -685.7772245242      6.92E-07  Gap = 4.60 eV 
 Inaccurate integrated density:
   Number of electrons =    98
   Numerical integral  =    97.974954031558
   Relative error      =    -0.0255571107 %
 Number of grid points used for NLC = 60802
 One-Electron    Energy = -2420.2943551272
 Total Coulomb   Energy =  1108.3982218513
 Alpha Exchange  Energy =   -13.6837823896
 Beta  Exchange  Energy =   -13.6837823896
 DFT   Exchange  Energy =   -59.7053391862
 DFT Correlation Energy =    -3.7866272132
 Kinetic         Energy =   756.0335335143
 Nuclear Repu.   Energy =   716.9788509898
 Nuclear Attr.   Energy = -3176.3278886414
 Ewald QM/MM     Energy =     0.0000000000
 Poisson Solv.   Energy =     0.0000000000
   16    -685.7768134645      5.11E-07  Gap = 4.60 eV 
 Inaccurate integrated density:
   Number of electrons =    98
   Numerical integral  =    97.974960921087
   Relative error      =    -0.0255500805 %
 Number of grid points used for NLC = 60801
 One-Electron    Energy = -2420.2944642987
 Total Coulomb   Energy =  1108.3985942529
 Alpha Exchange  Energy =   -13.6837646188
 Beta  Exchange  Energy =   -13.6837646188
 DFT   Exchange  Energy =   -59.7053257256
 DFT Correlation Energy =    -3.7866275185
 Kinetic         Energy =   756.0337841449
 Nuclear Repu.   Energy =   716.9788509898
 Nuclear Attr.   Energy = -3176.3282484437
 Ewald QM/MM     Energy =     0.0000000000
 Poisson Solv.   Energy =     0.0000000000
   17    -685.7765015377      3.45E-07  Gap = 4.60 eV 
 Inaccurate integrated density:
   Number of electrons =    98
   Numerical integral  =    97.974963512193
   Relative error      =    -0.0255474365 %
 Number of grid points used for NLC = 60801
 One-Electron    Energy = -2420.2946670426
 Total Coulomb   Energy =  1108.3989809902
 Alpha Exchange  Energy =   -13.6837539133
 Beta  Exchange  Energy =   -13.6837539133
 DFT   Exchange  Energy =   -59.7053301142
 DFT Correlation Energy =    -3.7866280662
 Kinetic         Energy =   756.0340771590
 Nuclear Repu.   Energy =   716.9788509898
 Nuclear Attr.   Energy = -3176.3287442016
 Ewald QM/MM     Energy =     0.0000000000
 Poisson Solv.   Energy =     0.0000000000
   18    -685.7763010696      1.87E-07  Gap = 4.60 eV 
 Inaccurate integrated density:
   Number of electrons =    98
   Numerical integral  =    97.974964804523
   Relative error      =    -0.0255461178 %
 Number of grid points used for NLC = 60802
 One-Electron    Energy = -2420.2948771230
 Total Coulomb   Energy =  1108.3992989024
 Alpha Exchange  Energy =   -13.6837484395
 Beta  Exchange  Energy =   -13.6837484395
 DFT   Exchange  Energy =   -59.7053376066
 DFT Correlation Energy =    -3.7866288525
 Kinetic         Energy =   756.0342734412
 Nuclear Repu.   Energy =   716.9788509898
 Nuclear Attr.   Energy = -3176.3291505642
 Ewald QM/MM     Energy =     0.0000000000
 Poisson Solv.   Energy =     0.0000000000
   19    -685.7761905689      5.70E-08  Gap = 4.60 eV 
 Inaccurate integrated density:
   Number of electrons =    98
   Numerical integral  =    97.974965011906
   Relative error      =    -0.0255459062 %
 Number of grid points used for NLC = 60802
 One-Electron    Energy = -2420.2949188108
 Total Coulomb   Energy =  1108.3993566763
 Alpha Exchange  Energy =   -13.6837473098
 Beta  Exchange  Energy =   -13.6837473098
 DFT   Exchange  Energy =   -59.7053396162
 DFT Correlation Energy =    -3.7866289676
 Kinetic         Energy =   756.0343182485
 Nuclear Repu.   Energy =   716.9788509898
 Nuclear Attr.   Energy = -3176.3292370593
 Ewald QM/MM     Energy =     0.0000000000
 Poisson Solv.   Energy =     0.0000000000
   20    -685.7761743482      2.97E-08  Gap = 4.60 eV 
 Inaccurate integrated density:
   Number of electrons =    98
   Numerical integral  =    97.974965121216
   Relative error      =    -0.0255457947 %
 Number of grid points used for NLC = 60802
 One-Electron    Energy = -2420.2948870051
 Total Coulomb   Energy =  1108.3993185912
 Alpha Exchange  Energy =   -13.6837466572
 Beta  Exchange  Energy =   -13.6837466572
 DFT   Exchange  Energy =   -59.7053361916
 DFT Correlation Energy =    -3.7866289138
 Kinetic         Energy =   756.0342815872
 Nuclear Repu.   Energy =   716.9788509898
 Nuclear Attr.   Energy = -3176.3291685923
 Ewald QM/MM     Energy =     0.0000000000
 Poisson Solv.   Energy =     0.0000000000
   21    -685.7761758438      1.82E-08  Gap = 4.60 eV 
 Inaccurate integrated density:
   Number of electrons =    98
   Numerical integral  =    97.974964890069
   Relative error      =    -0.0255460305 %
 Number of grid points used for NLC = 60802
 One-Electron    Energy = -2420.2949006718
 Total Coulomb   Energy =  1108.3993298674
 Alpha Exchange  Energy =   -13.6837468102
 Beta  Exchange  Energy =   -13.6837468102
 DFT   Exchange  Energy =   -59.7053373410
 DFT Correlation Energy =    -3.7866289126
 Kinetic         Energy =   756.0342911984
 Nuclear Repu.   Energy =   716.9788509898
 Nuclear Attr.   Energy = -3176.3291918702
 Ewald QM/MM     Energy =     0.0000000000
 Poisson Solv.   Energy =     0.0000000000
   22    -685.7761796886      1.00E-08  Gap = 4.60 eV 
 Inaccurate integrated density:
   Number of electrons =    98
   Numerical integral  =    97.974964822449
   Relative error      =    -0.0255460995 %
 Number of grid points used for NLC = 60802
 One-Electron    Energy = -2420.2949021241
 Total Coulomb   Energy =  1108.3993280315
 Alpha Exchange  Energy =   -13.6837467962
 Beta  Exchange  Energy =   -13.6837467962
 DFT   Exchange  Energy =   -59.7053374851
 DFT Correlation Energy =    -3.7866289055
 Kinetic         Energy =   756.0342886399
 Nuclear Repu.   Energy =   716.9788509898
 Nuclear Attr.   Energy = -3176.3291907640
 Ewald QM/MM     Energy =     0.0000000000
 Poisson Solv.   Energy =     0.0000000000
CDFTCI weight 0=     0.0000000000
CDFTCI weight 1=     0.0000000000
   23    -685.7761830858      6.57E-09 Convergence criterion met
 ---------------------------------------
 One-Electron    Energy = -2420.2949021241
 Total Coulomb   Energy =  1108.3993280315
 Alpha Exchange  Energy =   -13.6837467962
 Beta  Exchange  Energy =   -13.6837467962
 DFT   Exchange  Energy =   -59.7053374851
 DFT Correlation Energy =    -3.7866289055
 Nuclear Repu.   Energy =   716.9788509898
 Nuclear Attr.   Energy = -3176.3291907640
 Kinetic         Energy =   756.0342886399

************** Final PCM Free Energy Summary **************
 G_electrostatic  =      -0.57771235 hartree =    -362.51996988 kcal/mol
 G_cavitation     =       0.00000000 hartree =       0.00000000 kcal/mol
 G_dispersion     =       0.00000000 hartree =       0.00000000 kcal/mol
 G_repulsion      =       0.00000000 hartree =       0.00000000 kcal/mol
 --------------------------------------------------
 Non-electrostatic Free Energy =       0.00000000 hartree =       0.00000000 kcal/mol
 Total                         =      -0.57771235 hartree =    -362.51996988 kcal/mol
 --------------------------------------------------
 SCF Energy (H0 + V/2)                       =    -685.77618309 
 Solute Internal Energy (H0)                 =    -685.19847074 
 Total Free Energy (H0 + V/2 + non-elec)     =    -685.77618309 hartree
                                             = -430331.04987260 kcal/mol
***********************************************************

 <S^2> = 0.0000
 SCF time:  CPU 8057.19 s  wall 8028.70 s


CDFT-CI fragment calculation complete,
beginning diabatic state SCF calculation.

 Smallest overlap matrix eigenvalue = 2.39E-06
 Guess from superposition of atomic densities
 Warning:  Energy on first SCF cycle will be non-variational
 SAD guess density has 95.000000 electrons
 Long-range K will be added via erf
 Coulomb attenuation parameter = 0.3 bohr**(-1)
 An unrestricted hybrid HF-DFT SCF calculation will be
 performed using Pulay DIIS extrapolation
 Polarizable Continuum solvation model will be applied
 Exchange:     0.1670 Hartree-Fock + 1.0000 Constrained DFT (Becke Weights) + 1.0000 wB97X-V + LR-HF
 Correlation:  1.0000 wB97X-V
 Using SG-2 standard quadrature grid
 Nonlocal Correlation:  VV10 with C = 0.0100 and b = 6.00
 Grid used for NLC:  SG-1 standard quadrature
 SCF converges when DIIS error is below 1.0E-08
 Maximum number of SCF iterations = 1000
CDFT-CI using saved MOs from disk as guess
 using 16 threads for integral computing
 -------------------------------------------------------
 OpenMP Integral computing Module                
 Release: version 1.0, May 2013, Q-Chem Inc. Pittsburgh 
 -------------------------------------------------------
 using 16 threads for integral computing
 -------------------------------------------------------
 OpenMP Integral computing Module                
 Release: version 1.0, May 2013, Q-Chem Inc. Pittsburgh 
 -------------------------------------------------------
 -------------------------------------------------------
 OpenMP BLAS3 based DFT computing Module                
 Release: version 1.0, May 2013, Q-Chem Inc. Pittsburgh 
 -------------------------------------------------------
 -------------------------------------------------------
 OpenMP BLAS3 based DFT computing Module                
 Release: version 1.0, May 2013, Q-Chem Inc. Pittsburgh 
 -------------------------------------------------------
 -------------------------------------------------------
 OpenMP BLAS3 based DFT computing Module                
 Release: version 1.0, May 2013, Q-Chem Inc. Pittsburgh 
 -------------------------------------------------------
 One-Electron    Energy = -2457.9783923185
 Total Coulomb   Energy =  1109.7879161912
 Alpha Exchange  Energy =   -13.6997948930
 Beta  Exchange  Energy =   -13.6997948930
 DFT   Exchange  Energy =   -59.7493862728
 DFT Correlation Energy =    -3.7934376433
 Kinetic         Energy =   719.7717425199
 Nuclear Repu.   Energy =   716.9788509898
 Nuclear Attr.   Energy = -3177.7501348384
 Ewald QM/MM     Energy =     0.0000000000
 Poisson Solv.   Energy =     0.0000000000
 -------------------------------------------------------
 OpenMP BLAS3 based DFT computing Module                
 Release: version 1.0, May 2013, Q-Chem Inc. Pittsburgh 
 -------------------------------------------------------
 -------------------------------------------------------
 OpenMP BLAS3 based DFT computing Module                
 Release: version 1.0, May 2013, Q-Chem Inc. Pittsburgh 
 -------------------------------------------------------
Constraint 0 : 0.0000000000
Constraint 1 : 0.0000000000
 ---------------------------------------
  Cycle       Energy         DIIS Error
 ---------------------------------------
    1    -722.1540388395      3.21E-04  Gap = 3.70 eV 
 One-Electron    Energy = -2456.8705287321
 Total Coulomb   Energy =  1107.9599686135
 Alpha Exchange  Energy =   -13.6813956307
 Beta  Exchange  Energy =   -13.6813956307
 DFT   Exchange  Energy =   -59.6640499028
 DFT Correlation Energy =    -3.7862974211
 Kinetic         Energy =   718.6308960759
 Nuclear Repu.   Energy =   716.9788509898
 Nuclear Attr.   Energy = -3175.5014248080
 Ewald QM/MM     Energy =     0.0000000000
 Poisson Solv.   Energy =     0.0000000000
    2    -722.7448477140      3.85E-04  Gap = 5.36 eV 
 One-Electron    Energy = -2458.0995016183
 Total Coulomb   Energy =  1109.2946125571
 Alpha Exchange  Energy =   -13.6954062666
 Beta  Exchange  Energy =   -13.6954062666
 DFT   Exchange  Energy =   -59.7450216584
 DFT Correlation Energy =    -3.7907831907
 Kinetic         Energy =   719.2748015332
 Nuclear Repu.   Energy =   716.9788509898
 Nuclear Attr.   Energy = -3177.3743031515
 Ewald QM/MM     Energy =     0.0000000000
 Poisson Solv.   Energy =     0.0000000000
    3    -722.7526554538      1.72E-04  Gap = 5.49 eV 
 One-Electron    Energy = -2458.1145289854
 Total Coulomb   Energy =  1109.2981439028
 Alpha Exchange  Energy =   -13.6950282070
 Beta  Exchange  Energy =   -13.6950282070
 DFT   Exchange  Energy =   -59.7352250231
 DFT Correlation Energy =    -3.7911025232
 Kinetic         Energy =   719.1385421023
 Nuclear Repu.   Energy =   716.9788509898
 Nuclear Attr.   Energy = -3177.2530710877
 Ewald QM/MM     Energy =     0.0000000000
 Poisson Solv.   Energy =     0.0000000000
    4    -722.7539180529      1.23E-04  Gap = 5.63 eV 
 One-Electron    Energy = -2458.2164927730
 Total Coulomb   Energy =  1109.4047275819
 Alpha Exchange  Energy =   -13.6961131214
 Beta  Exchange  Energy =   -13.6961131214
 DFT   Exchange  Energy =   -59.7378637711
 DFT Correlation Energy =    -3.7916350742
 Kinetic         Energy =   719.1365300772
 Nuclear Repu.   Energy =   716.9788509898
 Nuclear Attr.   Energy = -3177.3530228501
 Ewald QM/MM     Energy =     0.0000000000
 Poisson Solv.   Energy =     0.0000000000
    5    -722.7546392892      9.43E-05  Gap = 5.72 eV 
 One-Electron    Energy = -2458.2988495750
 Total Coulomb   Energy =  1109.4920355497
 Alpha Exchange  Energy =   -13.6970167091
 Beta  Exchange  Energy =   -13.6970167091
 DFT   Exchange  Energy =   -59.7410002340
 DFT Correlation Energy =    -3.7920437287
 Kinetic         Energy =   719.1498675082
 Nuclear Repu.   Energy =   716.9788509898
 Nuclear Attr.   Energy = -3177.4487170832
 Ewald QM/MM     Energy =     0.0000000000
 Poisson Solv.   Energy =     0.0000000000
    6    -722.7550404164      7.46E-05  Gap = 5.78 eV 
 One-Electron    Energy = -2458.3697609435
 Total Coulomb   Energy =  1109.5663463809
 Alpha Exchange  Energy =   -13.6976925942
 Beta  Exchange  Energy =   -13.6976925942
 DFT   Exchange  Energy =   -59.7429879856
 DFT Correlation Energy =    -3.7923815885
 Kinetic         Energy =   719.1543059717
 Nuclear Repu.   Energy =   716.9788509898
 Nuclear Attr.   Energy = -3177.5240669152
 Ewald QM/MM     Energy =     0.0000000000
 Poisson Solv.   Energy =     0.0000000000
    7    -722.7553183353      5.71E-05  Gap = 5.83 eV 
 One-Electron    Energy = -2458.4163637663
 Total Coulomb   Energy =  1109.6153560877
 Alpha Exchange  Energy =   -13.6981730455
 Beta  Exchange  Energy =   -13.6981730455
 DFT   Exchange  Energy =   -59.7443513745
 DFT Correlation Energy =    -3.7926219597
 Kinetic         Energy =   719.1565930286
 Nuclear Repu.   Energy =   716.9788509898
 Nuclear Attr.   Energy = -3177.5729567949
 Ewald QM/MM     Energy =     0.0000000000
 Poisson Solv.   Energy =     0.0000000000
    8    -722.7554761139      4.43E-05  Gap = 5.87 eV 
 One-Electron    Energy = -2458.4532701568
 Total Coulomb   Energy =  1109.6542966962
 Alpha Exchange  Energy =   -13.6985497368
 Beta  Exchange  Energy =   -13.6985497368
 DFT   Exchange  Energy =   -59.7455421763
 DFT Correlation Energy =    -3.7928051465
 Kinetic         Energy =   719.1601509160
 Nuclear Repu.   Energy =   716.9788509898
 Nuclear Attr.   Energy = -3177.6134210728
 Ewald QM/MM     Energy =     0.0000000000
 Poisson Solv.   Energy =     0.0000000000
    9    -722.7555692672      3.46E-05  Gap = 5.90 eV 
 One-Electron    Energy = -2458.4802435436
 Total Coulomb   Energy =  1109.6827065326
 Alpha Exchange  Energy =   -13.6988151530
 Beta  Exchange  Energy =   -13.6988151530
 DFT   Exchange  Energy =   -59.7463689765
 DFT Correlation Energy =    -3.7929377796
 Kinetic         Energy =   719.1624386952
 Nuclear Repu.   Energy =   716.9788509898
 Nuclear Attr.   Energy = -3177.6426822388
 Ewald QM/MM     Energy =     0.0000000000
 Poisson Solv.   Energy =     0.0000000000
   10    -722.7556230832      2.74E-05  Gap = 5.93 eV 
 One-Electron    Energy = -2458.5085177685
 Total Coulomb   Energy =  1109.7124988425
 Alpha Exchange  Energy =   -13.6990955895
 Beta  Exchange  Energy =   -13.6990955895
 DFT   Exchange  Energy =   -59.7472293587
 DFT Correlation Energy =    -3.7930787475
 Kinetic         Energy =   719.1646315140
 Nuclear Repu.   Energy =   716.9788509898
 Nuclear Attr.   Energy = -3177.6731492825
 Ewald QM/MM     Energy =     0.0000000000
 Poisson Solv.   Energy =     0.0000000000
   11    -722.7556672213      1.98E-05  Gap = 5.95 eV 
 One-Electron    Energy = -2458.5270453259
 Total Coulomb   Energy =  1109.7320188290
 Alpha Exchange  Energy =   -13.6992786191
 Beta  Exchange  Energy =   -13.6992786191
 DFT   Exchange  Energy =   -59.7477840453
 DFT Correlation Energy =    -3.7931719263
 Kinetic         Energy =   719.1659509061
 Nuclear Repu.   Energy =   716.9788509898
 Nuclear Attr.   Energy = -3177.6929962320
 Ewald QM/MM     Energy =     0.0000000000
 Poisson Solv.   Energy =     0.0000000000
   12    -722.7556887169      1.46E-05  Gap = 5.97 eV 
 One-Electron    Energy = -2458.5415044011
 Total Coulomb   Energy =  1109.7472687813
 Alpha Exchange  Energy =   -13.6994212425
 Beta  Exchange  Energy =   -13.6994212425
 DFT   Exchange  Energy =   -59.7482296236
 DFT Correlation Energy =    -3.7932440927
 Kinetic         Energy =   719.1671616997
 Nuclear Repu.   Energy =   716.9788509898
 Nuclear Attr.   Energy = -3177.7086661008
 Ewald QM/MM     Energy =     0.0000000000
 Poisson Solv.   Energy =     0.0000000000
   13    -722.7557008312      1.07E-05  Gap = 5.98 eV 
 One-Electron    Energy = -2458.5507883715
 Total Coulomb   Energy =  1109.7570553329
 Alpha Exchange  Energy =   -13.6995119143
 Beta  Exchange  Energy =   -13.6995119143
 DFT   Exchange  Energy =   -59.7485100367
 DFT Correlation Energy =    -3.7932907338
 Kinetic         Energy =   719.1678737129
 Nuclear Repu.   Energy =   716.9788509898
 Nuclear Attr.   Energy = -3177.7186620844
 Ewald QM/MM     Energy =     0.0000000000
 Poisson Solv.   Energy =     0.0000000000
   14    -722.7557066480      8.12E-06  Gap = 5.99 eV 
 One-Electron    Energy = -2458.5557251078
 Total Coulomb   Energy =  1109.7622594994
 Alpha Exchange  Energy =   -13.6995601138
 Beta  Exchange  Energy =   -13.6995601138
 DFT   Exchange  Energy =   -59.7486586360
 DFT Correlation Energy =    -3.7933156389
 Kinetic         Energy =   719.1682383505
 Nuclear Repu.   Energy =   716.9788509898
 Nuclear Attr.   Energy = -3177.7239634583
 Ewald QM/MM     Energy =     0.0000000000
 Poisson Solv.   Energy =     0.0000000000
   15    -722.7557091209      6.75E-06  Gap = 5.99 eV 
 One-Electron    Energy = -2458.5595325905
 Total Coulomb   Energy =  1109.7662709552
 Alpha Exchange  Energy =   -13.6995967634
 Beta  Exchange  Energy =   -13.6995967634
 DFT   Exchange  Energy =   -59.7487717865
 DFT Correlation Energy =    -3.7933347435
 Kinetic         Energy =   719.1685153253
 Nuclear Repu.   Energy =   716.9788509898
 Nuclear Attr.   Energy = -3177.7280479158
 Ewald QM/MM     Energy =     0.0000000000
 Poisson Solv.   Energy =     0.0000000000
   16    -722.7557107023      5.69E-06  Gap = 6.01 eV 
 One-Electron    Energy = -2458.5800205363
 Total Coulomb   Energy =  1109.7878637365
 Alpha Exchange  Energy =   -13.6997946248
 Beta  Exchange  Energy =   -13.6997946248
 DFT   Exchange  Energy =   -59.7493819661
 DFT Correlation Energy =    -3.7934375771
 Kinetic         Energy =   719.1700238886
 Nuclear Repu.   Energy =   716.9788509898
 Nuclear Attr.   Energy = -3177.7500444249
 Ewald QM/MM     Energy =     0.0000000000
 Poisson Solv.   Energy =     0.0000000000
   17    -722.7557146027      4.52E-08  Gap = 6.01 eV 
 One-Electron    Energy = -2458.5800864051
 Total Coulomb   Energy =  1109.7879362440
 Alpha Exchange  Energy =   -13.6997951732
 Beta  Exchange  Energy =   -13.6997951732
 DFT   Exchange  Energy =   -59.7493873507
 DFT Correlation Energy =    -3.7934377351
 Kinetic         Energy =   719.1700723481
 Nuclear Repu.   Energy =   716.9788509898
 Nuclear Attr.   Energy = -3177.7501587532
 Ewald QM/MM     Energy =     0.0000000000
 Poisson Solv.   Energy =     0.0000000000
   18    -722.7557146035      1.61E-08  Gap = 6.01 eV 
 One-Electron    Energy = -2458.5800802192
 Total Coulomb   Energy =  1109.7879301898
 Alpha Exchange  Energy =   -13.6997951055
 Beta  Exchange  Energy =   -13.6997951055
 DFT   Exchange  Energy =   -59.7493876651
 DFT Correlation Energy =    -3.7934376879
[...]
 G_dispersion     =       0.00000000 hartree =       0.00000000 kcal/mol
 G_repulsion      =       0.00000000 hartree =       0.00000000 kcal/mol
 --------------------------------------------------
 Non-electrostatic Free Energy =       0.00000000 hartree =       0.00000000 kcal/mol
 Total                         =      -0.61356828 hartree =    -385.01990558 kcal/mol
 --------------------------------------------------
 SCF Energy (H0 + V/2)                       =    -722.72604747 
 Solute Internal Energy (H0)                 =    -722.11247919 
 Total Free Energy (H0 + V/2 + non-elec)     =    -722.72604747 hartree
                                             = -453517.43972389 kcal/mol
***********************************************************

 <S^2> = 1.0762

                  CDFT Becke Populations
----------------------------------------
            Atom  Net Number    Net Spin
       1       C   -0.897939   -0.004607
       2       C   -0.307007   -0.000163
       3       O    0.594217   -0.000488
       4       O    0.563450   -0.001810
       5       C   -0.909627   -0.033573
       6       H    0.497012   -0.000556
       7       H    0.529369   -0.011224
       8       H    0.545821   -0.000340
       9       H    0.532623   -0.013932
      10       C   -0.327300   -0.009314
      11       C   -1.285129   -0.009856
      12       H    0.478008   -0.000676
      13       H    0.500705    0.001657
      14       H    0.472113   -0.001148
      15       O    0.463693   -0.129440
      16       O    0.284706   -0.780693
      17       O   -0.137475   -0.070556
      18       H    0.858968    0.065761
      19       H    0.716046    0.009645
      20       O   -0.353674    0.320773
      21       O    0.172049    0.669331
----------------------------------------

 SCF time:  CPU 11342.04 s  wall 826.85 s
CDFT-CI using one-electron coupling
 CDFT-CI overlap matrix
               1               2               3               4
    1    1.0000000000    0.9953729720   -0.7936401656   -0.7936401656
    2    0.9953729720    1.0000000000   -0.7992644875   -0.7992644875
    3   -0.7936401656   -0.7992644875    1.0000000000    0.4516019082
    4   -0.7936401656   -0.7992644875    0.4516019082    1.0000000000
    5    0.2468328733    0.2061245360   -0.1770816572   -0.1398689774
    6    0.2468563578    0.2061454741   -0.1398806018   -0.1771026390
    7    0.1172025023    0.0798867479   -0.0811150484   -0.0377491001
    8   -0.1173690421   -0.0800801451    0.0378634445    0.0813228856
               5               6               7               8
    1    0.2468328733    0.2468563578    0.1172025023   -0.1173690421
    2    0.2061245360    0.2061454741    0.0798867479   -0.0800801451
    3   -0.1770816572   -0.1398806018   -0.0811150484    0.0378634445
    4   -0.1398689774   -0.1771026390   -0.0377491001    0.0813228856
    5    1.0000000000    0.0320402800    0.9175990851   -0.0085020206
    6    0.0320402800    1.0000000000    0.0084702643   -0.9171264845
    7    0.9175990851    0.0084702643    1.0000000000   -0.0015074859
    8   -0.0085020206   -0.9171264845   -0.0015074859    1.0000000000
 CDFT-CI Hamiltonian matrix in non-orthogonal basis
               1               2               3               4
    1 -722.7543476018 -719.4115167142  573.6089034086  573.6089034086
    2 -719.4115167142 -722.7557146035  577.6738364963  577.6738364967
    3  573.6089034086  577.6738364963 -722.6788843694 -326.4247839551
    4  573.6089034086  577.6738364967 -326.4247839551 -722.6788843694
    5 -178.3951147138 -148.9744369180  127.9840058417  101.0888333364
    6 -178.4120882861 -148.9895702443  101.0972350816  127.9991705691
    7  -84.7082196459  -57.7393357045   58.6259854910   27.2845664539
    8   84.8285867102   57.8791117385  -27.3672106162  -58.7761954419
               5               6               7               8
    1 -178.3951147138 -178.4120882861  -84.7082196459   84.8285867102
    2 -148.9744369180 -148.9895702443  -57.7393357045   57.8791117385
    3  127.9840058417  101.0972350816   58.6259854910  -27.3672106162
    4  101.0888333364  127.9991705691   27.2845664539  -58.7761954419
    5 -722.7523866990  -23.1560642507 -663.2010030173    6.1448413819
    6  -23.1560642507 -722.7523868152   -6.1218900608  662.8594298670
    7 -663.2010030173   -6.1218900608 -722.7262556069    1.0896885443
    8    6.1448413819  662.8594298670    1.0896885443 -722.7260474669
 CDFT-CI Hamiltonian matrix in orthogonalized basis
            1           2           3           4           5           6
    1-722.6181651  -0.0637147   0.0574828   0.0574838   0.0051362   0.0051609
    2  -0.0637147-722.5976518   0.0786330   0.0786333  -0.0010377  -0.0010640
    3   0.0574828   0.0786330-722.5538771   0.0122003  -0.0017475  -0.0025896
    4   0.0574838   0.0786333   0.0122003-722.5538768  -0.0026039  -0.0017586
    5   0.0051362  -0.0010377  -0.0017475  -0.0026039-722.6740297  -0.0000825
    6   0.0051609  -0.0010640  -0.0025896  -0.0017586  -0.0000825-722.6742109
    7   0.0128156  -0.0108676   0.0024449  -0.0005684  -0.1097568  -0.0003602
    8  -0.0127887   0.0108346   0.0005856  -0.0024619   0.0003553   0.1096864
            7           8
    1   0.0128156  -0.0127887
    2  -0.0108676   0.0108346
    3   0.0024449   0.0005856
    4  -0.0005684  -0.0024619
    5  -0.1097568   0.0003553
    6  -0.0003602   0.1096864
    7-722.6048222   0.0008860
    8   0.0008860-722.6046727
 dipole x component in nonorthogonal basis
            1           2           3           4           5           6
    1  -1.2380080  -1.0268480   1.0198747   1.0198747  -0.9490880  -0.9491616
    2  -1.0268480  -0.8915332   0.9239022   0.9239022  -0.5007205  -0.5007674
    3   1.0198747   0.9239022  -2.0392549  -0.4912462   0.5213960   0.2420594
    4   1.0198747   0.9239022  -0.4912462  -2.0392549   0.2420449   0.5214604
    5  -0.9490880  -0.5007205   0.5213960   0.2420449  -9.2276858  -0.0356008
    6  -0.9491616  -0.5007674   0.2420594   0.5214604  -0.0356008  -9.2276546
    7  -0.8377094  -0.4333785   0.4753995   0.1570760  -8.9430294  -0.0198688
    8   0.8378756   0.4336364  -0.1572071  -0.4758084   0.0199006   8.9414746
            7           8
    1  -0.8377094   0.8378756
    2  -0.4333785   0.4336364
    3   0.4753995  -0.1572071
    4   0.1570760  -0.4758084
    5  -8.9430294   0.0199006
    6  -0.0198688   8.9414746
    7 -10.1425887   0.0039447
    8   0.0039447 -10.1508786
 dipole y component in nonorthogonal basis
            1           2           3           4           5           6
    1  -9.1977298  -9.3372864   7.4522591   7.4522591  -1.7825876  -1.7827625
    2  -9.3372864  -9.5244434   7.6180903   7.6180903  -1.6770632  -1.6772330
    3   7.4522591   7.6180903  -9.8390750  -4.1416255   1.4112316   1.2066632
    4   7.4522591   7.6180903  -4.1416255  -9.8390750   1.2065612   1.4113946
    5  -1.7825876  -1.6770632   1.4112316   1.2065612  -2.9262860  -0.2715022
    6  -1.7827625  -1.6772330   1.2066632   1.4113946  -0.2715022  -2.9263249
    7  -0.6550657  -0.5470559   0.5557809   0.2832008  -2.4058584  -0.0702322
    8   0.6567665   0.5488918  -0.2842620  -0.5577450   0.0705120   2.4045745
            7           8
    1  -0.6550657   0.6567665
    2  -0.5470559   0.5488918
    3   0.5557809  -0.2842620
    4   0.2832008  -0.5577450
    5  -2.4058584   0.0705120
    6  -0.0702322   2.4045745
    7  -2.5468662   0.0126051
    8   0.0126051  -2.5474905
 dipole z component in nonorthogonal basis
            1           2           3           4           5           6
    1  -6.6299405  -7.0399721   5.5464048   5.5464048  -0.7451876  -0.7452594
    2  -7.0399721  -7.4380529   5.8716357   5.8716357  -0.9669928  -0.9670769
    3   5.5464048   5.8716357  -8.1610889  -3.0815183   0.7848218   0.7492025
    4   5.5464048   5.8716357  -3.0815183  -8.1610889   0.7491490   0.7848982
    5  -0.7451876  -0.9669928   0.7848218   0.7491490   3.1591344  -0.1510870
    6  -0.7452594  -0.9670769   0.7492025   0.7848982  -0.1510870   3.1590461
    7  -0.1623392  -0.2571515   0.2797442   0.1324240   1.4800322  -0.0389256
    8   0.1654963   0.2598216  -0.1338877  -0.2824129   0.0392671  -1.4660472
            7           8
    1  -0.1623392   0.1654963
    2  -0.2571515   0.2598216
    3   0.2797442  -0.1338877
    4   0.1324240  -0.2824129
    5   1.4800322   0.0392671
    6  -0.0389256  -1.4660472
    7  -0.0931050   0.0066560
    8   0.0066560  -0.1225138
 dipole x component in diabatic basis
            1           2           3           4           5           6
    1  -5.6301408   2.6217076  -0.1885508  -0.1886110  -0.1726156  -0.1727304
    2   2.6217076  -2.3877774  -0.9316163  -0.9316261   0.6710956   0.6704835
    3  -0.1885508  -0.9316163  -3.3026104  -0.4894373  -0.1706949  -0.1715192
    4  -0.1886110  -0.9316261  -0.4894373  -3.3025957  -0.1715132  -0.1702514
    5  -0.1726156   0.6710956  -0.1706949  -0.1715132  -8.8819459   0.1391494
    6  -0.1727304   0.6704835  -0.1715192  -0.1702514   0.1391494  -8.8809564
    7  -0.3143065  -0.0108080   0.0547452   0.0585228   0.0353411  -0.0372488
    8   0.3143733   0.0095621  -0.0586991  -0.0537161   0.0370743  -0.0385699
            7           8
    1  -0.3143065   0.3143733
    2  -0.0108080   0.0095621
    3   0.0547452  -0.0586991
    4   0.0585228  -0.0537161
    5   0.0353411   0.0370743
    6  -0.0372488  -0.0385699
    7 -10.7375985  -0.0145797
    8  -0.0145797 -10.7528485
 dipole y component in diabatic basis
            1           2           3           4           5           6
    1  -5.9352871  -1.8535585  -0.4444069  -0.4444076  -0.1740770  -0.1743980
    2  -1.8535585  -9.3648113   0.1242313   0.1242195  -0.0957062  -0.0956336
    3  -0.4444069   0.1242313 -10.2870822   0.1095292   0.0224557   0.0479936
    4  -0.4444076   0.1242195   0.1095292 -10.2870776   0.0477676   0.0226993
    5  -0.1740770  -0.0957062   0.0224557   0.0477676  -3.3627117  -0.0275718
    6  -0.1743980  -0.0956336   0.0479936   0.0226993  -0.0275718  -3.3614441
    7  -0.1718335   0.1175677   0.0751270   0.0012992   0.4868532   0.0338676
    8   0.1717208  -0.1169661  -0.0010293  -0.0752557  -0.0338441  -0.4871415
            7           8
    1  -0.1718335   0.1717208
    2   0.1175677  -0.1169661
    3   0.0751270  -0.0010293
    4   0.0012992  -0.0752557
    5   0.4868532  -0.0338441
    6   0.0338676  -0.4871415
    7  -2.7973425   0.0171980
    8   0.0171980  -2.7991044
 dipole z component in diabatic basis
            1           2           3           4           5           6
    1   0.4322796  -4.0854395  -1.5356812  -1.5356814   0.0798160   0.0799008
    2  -4.0854395  -8.5805563  -0.2463995  -0.2464300  -0.5635775  -0.5625291
    3  -1.5356812  -0.2463995  -9.7340913  -0.4582019   0.0501034   0.1323328
    4  -1.5356814  -0.2464300  -0.4582019  -9.7340811   0.1319772   0.0500197
    5   0.0798160  -0.5635775   0.0501034   0.1319772   6.1609363  -0.0861675
    6   0.0799008  -0.5625291   0.1323328   0.0500197  -0.0861675   6.1669143
    7  -0.1423444   0.0000781   0.0860077   0.0307122   0.1194830   0.0444730
    8   0.1440295   0.0009650  -0.0307912  -0.0860850  -0.0442452  -0.1228712
            7           8
    1  -0.1423444   0.1440295
    2   0.0000781   0.0009650
    3   0.0860077  -0.0307912
    4   0.0307122  -0.0860850
    5   0.1194830  -0.0442452
    6   0.0444730  -0.1228712
    7  -2.9598369   0.0015076
    8   0.0015076  -3.0010649
 dipole x component in adiabatic basis
            1           2           3           4           5           6
    1  -5.3231792   0.0047152   4.1421858  -0.0003220  -0.3385148  -0.0028679
    2   0.0047152  -9.5529259   0.0054435   0.0528825  -0.0020607  -0.8086499
    3   4.1421858   0.0054435  -4.9803817  -0.0002001  -1.0461832   0.0090753
    4  -0.0003220   0.0528825  -0.0002001  -2.8289445  -0.0042525  -0.3285766
    5  -0.3385148  -0.0020607  -1.0461832  -0.0042525  -7.5749979  -0.0052583
    6  -0.0028679  -0.8086499   0.0090753  -0.3285766  -0.0052583 -10.2117431
    7  -0.0282052  -0.0024141  -1.8805083   0.0023939   1.3718866   0.0038941
    8   0.6009801   0.0010336   0.8306875   0.0003077   0.4100893   0.0000386
            7           8
    1  -0.0282052   0.6009801
    2  -0.0024141   0.0010336
    3  -1.8805083   0.8306875
    4   0.0023939   0.0003077
    5   1.3718866   0.4100893
    6   0.0038941   0.0000386
    7  -9.2388936   0.1551761
    8   0.1551761  -4.1654077
 dipole y component in adiabatic basis
            1           2           3           4           5           6
    1  -5.8648376  -0.0039779  -3.4141199   0.0007520   1.1401019  -0.0007881
    2  -0.0039779  -2.7126832  -0.0040051  -0.1054572   0.0006158   0.4061687
    3  -3.4141199  -0.0040051  -6.2576663   0.0005117   0.8377392  -0.0030005
    4   0.0007520  -0.1054572   0.0005117 -10.3870537   0.0045690   0.2440565
    5   1.1401019   0.0006158   0.8377392   0.0045690  -5.2534679   0.0021568
    6  -0.0007881   0.4061687  -0.0030005   0.2440565   0.0021568  -3.4124103
    7   0.3647937   0.0029354   0.9056594  -0.0025007  -1.0080342   0.0020946
    8  -0.1620358  -0.0002566  -0.2024578  -0.0004453  -0.6383975   0.0001424
            7           8
    1   0.3647937  -0.1620358
    2   0.0029354  -0.0002566
    3   0.9056594  -0.2024578
    4  -0.0025007  -0.0004453
    5  -1.0080342  -0.6383975
    6   0.0020946   0.0001424
    7  -4.0954776  -0.2680773
    8  -0.2680773 -10.2112643
 dipole z component in adiabatic basis
            1           2           3           4           5           6
    1  -1.5235454  -0.0060990  -5.1319836  -0.0009490   1.0000438  -0.0201404
    2  -0.0060990   3.1162258  -0.0067903  -0.3316541   0.0045984  -4.3609026
    3  -5.1319836  -0.0067903  -2.8369764   0.0047136   4.2777851   0.0208144
    4  -0.0009490  -0.3316541   0.0047136  -9.2576582   0.0082503   0.4011562
    5   1.0000438   0.0045984   4.2777851   0.0082503   0.8989057  -0.0050195
    6  -0.0201404  -4.3609026   0.0208144   0.4011562  -0.0050195   0.1365566
    7   3.9268861  -0.0098714  -1.1214186  -0.0019121  -0.5234590   0.0185132
    8  -0.5551090  -0.0005970  -0.7757773  -0.0010292  -1.4633252   0.0004414
            7           8
    1   3.9268861  -0.5551090
    2  -0.0098714  -0.0005970
    3  -1.1214186  -0.7757773
    4  -0.0019121  -0.0010292
    5  -0.5234590  -1.4633252
    6   0.0185132   0.0004414
    7  -0.6190970  -0.5626432
    8  -0.5626432 -11.1639114


CDFT-CI Adiabatic States

CDFT-CI Energy state 1:  -722.7620332609
 coefficients of diabatic states
            1           2           3           4           5           6
    1   0.4741209   0.4021707  -0.2724958  -0.2725028  -0.3905244  -0.3907989
            7           8
    1  -0.2827279   0.2824682
 weights of diabatic states
            1           2           3           4           5           6
    1   0.2247906   0.1617413   0.0742540   0.0742578   0.1525093   0.1527237
            7           8
    1   0.0799351   0.0797883
CDFT-CI Energy state 2:  -722.7538368624
 coefficients of diabatic states
            1           2           3           4           5           6
    1   0.0004100   0.0005686  -0.0096081   0.0089766   0.5715691  -0.5708227
            7           8
    1   0.4173338   0.4160882
 weights of diabatic states
            1           2           3           4           5           6
    1   0.0000002   0.0000003   0.0000923   0.0000806   0.3266912   0.3258385
            7           8
    1   0.1741675   0.1731294
CDFT-CI Energy state 3:  -722.7524727951
 coefficients of diabatic states
            1           2           3           4           5           6
    1   0.3519262   0.4603014  -0.2620338  -0.2620567   0.4066179   0.4083236
            7           8
    1   0.3117968  -0.3124927
 weights of diabatic states
            1           2           3           4           5           6
    1   0.1238520   0.2118774   0.0686617   0.0686737   0.1653381   0.1667281
            7           8
    1   0.0972172   0.0976517
CDFT-CI Energy state 4:  -722.5661353974
 coefficients of diabatic states
            1           2           3           4           5           6
    1   0.0004510  -0.0003246  -0.7062140   0.7063565  -0.0264767   0.0271600
            7           8
    1   0.0205863   0.0214364
 weights of diabatic states
            1           2           3           4           5           6
    1   0.0000002   0.0000001   0.4987382   0.4989395   0.0007010   0.0007377
            7           8
    1   0.0004238   0.0004595
CDFT-CI Energy state 5:  -722.5559741968
 coefficients of diabatic states
            1           2           3           4           5           6
    1   0.7051590  -0.5194161   0.1217130   0.1205572   0.2337863   0.2330386
            7           8
    1  -0.2178231   0.2172547
 weights of diabatic states
            1           2           3           4           5           6
    1   0.4972493   0.2697931   0.0148141   0.0145340   0.0546560   0.0543070
            7           8
    1   0.0474469   0.0471996
CDFT-CI Energy state 6:  -722.5240043588
 coefficients of diabatic states
            1           2           3           4           5           6
    1  -0.0008643   0.0007202   0.0326511  -0.0329063  -0.4146633   0.4172307
            7           8
    1   0.5685538   0.5732096
 weights of diabatic states
            1           2           3           4           5           6
    1   0.0000007   0.0000005   0.0010661   0.0010828   0.1719456   0.1740814
            7           8
    1   0.3232535   0.3285693
CDFT-CI Energy state 7:  -722.5168934820
 coefficients of diabatic states
            1           2           3           4           5           6
    1   0.3429342  -0.2598697   0.0729442   0.0733064  -0.3579779  -0.3543619
            7           8
    1   0.5266873  -0.5225411
 weights of diabatic states
            1           2           3           4           5           6
    1   0.1176039   0.0675323   0.0053209   0.0053738   0.1281481   0.1255724
            7           8
    1   0.2773995   0.2730492
CDFT-CI Energy state 8:  -722.4499560124
 coefficients of diabatic states
            1           2           3           4           5           6
    1   0.1910579   0.5376385   0.5805625   0.5805668  -0.0032355  -0.0033389
            7           8
    1  -0.0125113   0.0123706
 weights of diabatic states
            1           2           3           4           5           6
    1   0.0365031   0.2890551   0.3370528   0.3370578   0.0000105   0.0000111
            7           8
    1   0.0001565   0.0001530
CDFT-CI Calculation complete
Archival summary:
1\1\c4-70\SP\ProcedureUnspecified\BasisUnspecified\759(3-,1)\leeping\MonApr2203:37:292019MonApr2203:37:292019\0\\#,ProcedureUnspecified,BasisUnspecified,\\-3,1\O\C,1,1.45013\O,2,1.35992,1,110.869\C,2,1.54087,1,108.425,3,122.417,0\H,4,1.09373,2,108.843,1,-67.1234,0\H,4,1.09508,2,112.335,1,53.0361,0\H,4,1.09608,2,109.997,1,174.111,0\C,2,1.55059,1,103.689,3,-119.452,0\H,8,1.09587,2,106.473,1,65.3157,0\H,8,1.09655,2,106.403,1,179.066,0\C,8,1.5248,2,116.977,1,-57.983,0\H,11,1.09493,8,110.584,2,56.0909,0\H,11,1.09695,8,110.594,2,-60.7523,0\C,11,1.53761,8,115.893,2,178.491,0\O,14,1.25782,11,119.048,8,9.64127,0\O,14,1.26326,11,115.991,8,-171.118,0\H,3,1.67864,2,86.7878,1,29.9528,0\O,17,1.00133,3,143.51,2,-12.8649,0\H,18,1.55148,17,113.329,3,102.535,0\O,19,1.0231,18,175.45,17,139.217,0\O,20,1.37934,19,104.529,18,82.7336,0\\\@

 Total job time:  72805.81s(wall), 147742.37s(cpu) 
 Mon Apr 22 03:37:29 2019

        *************************************************************
        *                                                           *
        *  Thank you very much for using Q-Chem.  Have a nice day.  *
        *                                                           *
        *************************************************************


