
Running Job 1 of 1 qc-3-tshess.in
qchem qc-3-tshess.in_98367.0 /scratch/alotsuki/1165977/qc-3-tshess.d/ 1
/home/leeping/opt/qchem/5.0.2-openmp/exe/qcprog.exe_s qc-3-tshess.in_98367.0 /scratch/alotsuki/1165977/qc-3-tshess.d/
Check license passed

                  Welcome to Q-Chem
     A Quantum Leap Into The Future Of Chemistry


 Q-Chem 5.0, Q-Chem, Inc., Pleasanton, CA (2017)

 Yihan Shao,  Zhengting Gan,  E. Epifanovsky,  A. T. B. Gilbert,  M. Wormit,  
 J. Kussmann,  A. W. Lange,  A. Behn,  Jia Deng,  Xintian Feng,  D. Ghosh,  
 M. Goldey,  P. R. Horn,  L. D. Jacobson,  I. Kaliman,  T. Kus,  A. Landau,  
 Jie Liu,  E. I. Proynov,  R. M. Richard,  R. P. Steele,  E. J. Sundstrom,  
 H. L. Woodcock III,  P. M. Zimmerman,  D. Zuev,  B. Albrecht,  E. Alguire,  
 S. A. Baeppler,  D. Barton,  Z. Benda,  Y. A. Bernard,  E. J. Berquist,  
 K. B. Bravaya,  H. Burton,  D. Casanova,  Chun-Min Chang,  Yunqing Chen,  
 A. Chien,  K. D. Closser,  M. P. Coons,  S. Dasgupta,  A. L. Dempwolff,  
 M. Diedenhofen,  Hainam Do,  R. G. Edgar,  Po-Tung Fang,  S. Fatehi,  
 Qingguo Feng,  J. Fosso-Tande,  Qinghui Ge,  A. Ghysels,  G. Gidofalvi,  
 J. Gomes,  J. Gonthier,  A. Gunina,  M. W. D. Hanson-Heine,  
 P. H. P. Harbach,  A. W. Hauser,  J. E. Herr,  E. G. Hohenstein,  
 Z. C. Holden,  Kerwin Hui,  T.-C. Jagau,  Hyunjun Ji,  B. Kaduk,  
 K. Khistyaev,  Jaehoon Kim,  P. Klunzinger,  K. Koh,  D. Kosenkov,  
 L. Koulias,  T. Kowalczyk,  C. M. Krauter,  A. Kunitsa,  Ka Un Lao,  
 A. Laurent,  K. V. Lawler,  Joonho Lee,  D. Lefrancois,  S. Lehtola,  
 D. S. Levine,  Yi-Pei Li,  You-Sheng Lin,  Fenglai Liu,  E. Livshits,  
 A. Luenser,  P. Manohar,  E. Mansoor,  S. F. Manzer,  Shan-Ping Mao,  
 Yuezhi Mao,  N. Mardirossian,  A. V. Marenich,  T. Markovich,  
 L. A. Martinez-Martinez,  S. A. Maurer,  N. J. Mayhall,  S. C. McKenzie,  
 J.-M. Mewes,  A. F. Morrison,  J. W. Mullinax,  K. Nanda,  
 T. S. Nguyen-Beck,  R. Olivares-Amaya,  J. A. Parkhill,  T. M. Perrine,  
 F. Plasser,  S. Prager,  A. Prociuk,  E. Ramos,  D. R. Rehn,  F. Rob,  
 M. Schneider,  N. Sergueev,  S. M. Sharada,  S. Sharma,  D. W. Small,  
 T. Stauch,  T. Stein,  Yu-Chuan Su,  A. J. W. Thom,  A. Tkatchenko,  
 T. Tsuchimochi,  L. Vogt,  O. Vydrov,  M. A. Watson,  J. Wenzel,  
 M. de Wergifosse,  T. A. Wesolowski,  A. White,  J. Witte,  A. Yamada,  
 Jun Yang,  K. Yao,  S. Yeganeh,  S. R. Yost,  Zhi-Qiang You,  A. Zech,  
 Igor Ying Zhang,  Xing Zhang,  Yan Zhao,  Ying Zhu,  B. R. Brooks,  
 G. K. L. Chan,  C. J. Cramer,  M. S. Gordon,  W. J. Hehre,  A. Klamt,  
 M. W. Schmidt,  C. D. Sherrill,  D. G. Truhlar,  A. Aspuru-Guzik,  R. Baer,  
 A. T. Bell,  N. A. Besley,  Jeng-Da Chai,  R. A. DiStasio Jr.,  A. Dreuw,  
 B. D. Dunietz,  T. R. Furlani,  Chao-Ping Hsu,  Yousung Jung,  Jing Kong,  
 D. S. Lambrecht,  WanZhen Liang,  C. Ochsenfeld,  V. A. Rassolov,  
 L. V. Slipchenko,  J. E. Subotnik,  T. Van Voorhis,  J. M. Herbert,  
 A. I. Krylov,  P. M. W. Gill,  M. Head-Gordon

 Contributors to earlier versions of Q-Chem not listed above: 
 R. D. Adamson,  B. Austin,  J. Baker,  G. J. O. Beran,  K. Brandhorst,  
 S. T. Brown,  E. F. C. Byrd,  A. K. Chakraborty,  C.-L. Cheng,  
 Siu Hung Chien,  D. M. Chipman,  D. L. Crittenden,  H. Dachsel,  
 R. J. Doerksen,  A. D. Dutoi,  L. Fusti-Molnar,  W. A. Goddard III,  
 A. Golubeva-Zadorozhnaya,  S. R. Gwaltney,  G. Hawkins,  A. Heyden,  
 S. Hirata,  G. Kedziora,  F. J. Keil,  C. Kelley,  Jihan Kim,  R. A. King,  
 R. Z. Khaliullin,  P. P. Korambath,  W. Kurlancheek,  A. M. Lee,  M. S. Lee,  
 S. V. Levchenko,  Ching Yeh Lin,  D. Liotard,  R. C. Lochan,  I. Lotan,  
 P. E. Maslen,  N. Nair,  D. P. O'Neill,  D. Neuhauser,  E. Neuscamman,  
 C. M. Oana,  R. Olson,  B. Peters,  R. Peverati,  P. A. Pieniazek,  
 Y. M. Rhee,  J. Ritchie,  M. A. Rohrdanz,  E. Rosta,  N. J. Russ,  
 H. F. Schaefer III,  N. E. Schultz,  N. Shenvi,  A. C. Simmonett,  A. Sodt,  
 D. Stuck,  K. S. Thanthiriwatte,  V. Vanovschi,  Tao Wang,  A. Warshel,  
 C. F. Williams,  Q. Wu,  X. Xu,  W. Zhang

 Please cite Q-Chem as follows:
 Y. Shao et al., Mol. Phys. 113, 184-215 (2015)
 DOI: 10.1080/00268976.2014.952696

 Q-Chem 5.0.2 for Intel X86 EM64T Linux

 Parts of Q-Chem use Armadillo 5.200.1 (Boston Tea Smuggler).
 http://arma.sourceforge.net/

 Q-Chem begins on Tue Apr 17 00:03:17 2018  

Host: 
0

     Scratch files written to /scratch/alotsuki/1165977/qc-3-tshess.d//
 Dec517 15110_ 26548  26544 5633   
Processing $rem in /home/leeping/opt/qchem/5.0.2-openmp/config/preferences.
 MEM_STATIC 2000
 MEM_TOTAL  8000
 SYMMETRY   OFF
 SYM_IGNORE TRUE 
Symmetry turned off for PCM/SM12/SMD calculation

Checking the input file for inconsistencies... 	...done.

--------------------------------------------------------------
User input:
--------------------------------------------------------------
$molecule
-2 1
C        0.4530277633    1.0068478465   -0.1051540902
C       -0.8585537673    0.5803191725   -0.1333268044
H        0.7087700683    1.9436296757   -0.5964551415
H        1.0700343649    0.7629479129    0.7560676032
H       -1.5673577803    1.0412828313   -0.8184094001
C       -1.3177470019   -0.6007685898    0.6087157303
O       -2.5637187525   -0.8478720106    0.6695133891
O       -0.4393765490   -1.3584173040    1.1608319123
O        1.6497111067   -0.0082764295   -1.2018404475
O        1.8437350305   -1.2331167966   -0.4420982281
H        1.0214755173   -1.2865763084    0.1021554768
$end

$rem
jobtype               freq
method                wb97x-v
basis                 def2-tzvpd
symmetry              off
sym_ignore            true
incdft                false
incfock               0
!scf_algorithm        diis_gdm
scf_convergence       8
thresh                14
!purecart             112
max_scf_cycles        1000
geom_opt_max_cycles   500
geom_opt_dmax         100
geom_opt_tol_gradient 10
solvent_method        pcm
ideriv                1
rpath_tol_displacement 1000
rpath_max_cycles      100
rpath_direction       1
!scf_guess            read
scf_guess             read
$end

$pcm
theory              cosmo
method              iswig
Radii               bondi
vdwScale            1.20
hpoints             110
heavypoints         110
$end

$solvent
dielectric 78.400000
$end

--------------------------------------------------------------
 ----------------------------------------------------------------
             Standard Nuclear Orientation (Angstroms)
    I     Atom           X                Y                Z
 ----------------------------------------------------------------
    1      C       0.4530277633     1.0068478465    -0.1051540902
    2      C      -0.8585537673     0.5803191725    -0.1333268044
    3      H       0.7087700683     1.9436296757    -0.5964551415
    4      H       1.0700343649     0.7629479129     0.7560676032
    5      H      -1.5673577803     1.0412828313    -0.8184094001
    6      C      -1.3177470019    -0.6007685898     0.6087157303
    7      O      -2.5637187525    -0.8478720106     0.6695133891
    8      O      -0.4393765490    -1.3584173040     1.1608319123
    9      O       1.6497111067    -0.0082764295    -1.2018404475
   10      O       1.8437350305    -1.2331167966    -0.4420982281
   11      H       1.0214755173    -1.2865763084     0.1021554768
 ----------------------------------------------------------------
 Nuclear Repulsion Energy =   289.5040829893 hartrees
 There are       28 alpha and       28 beta electrons
 Requested basis set is def2-TZVPD
 There are 115 shells and 307 basis functions

 Total QAlloc Memory Limit   8000 MB
 Mega-Array Size      1956 MB
 MEM_STATIC part      2000 MB
 Discretize the solute cavity surface with Lebedev spheres
	Using 110 Lebedev grid points for each H atom
	Using 110 Lebedev grid points for other atoms
	Atomic van der Waals radii will be scaled by 1.20
 Remove points where switching function is < 1.0e-08
 Keep 679 surface tesserae and discard 531 interior tesserae
 Molecular Surface Area = 136.634 Angst**2

                       Distance Matrix (Angstroms)
             C (  1)   C (  2)   H (  3)   H (  4)   H (  5)   C (  6)
   C (  2)  1.379481
   H (  3)  1.088274  2.128287
   H (  4)  1.087146  2.131626  1.831349
   H (  5)  2.142866  1.088223  2.458506  3.084199
   C (  6)  2.495933  1.468487  3.468886  2.753713  2.189823
   O (  7)  3.625032  2.364714  4.483786  3.975726  2.602990  1.271693
   O (  8)  2.827293  2.368387  3.912776  2.634833  3.308821  1.284678
   O (  9)  1.914484  2.789186  2.249844  2.182708  3.405602  3.526325
   O ( 10)  2.658014  3.268984  3.376935  2.453261  4.117045  3.391024
   H ( 11)  2.371899  2.659936  3.319649  2.151862  3.601170  2.489759
             O (  7)   O (  8)   O (  9)   O ( 10)
   O (  8)  2.239393
   O (  9)  4.686137  3.430654
   O ( 10)  4.561770  2.792433  1.454334
   H ( 11)  3.656224  1.805560  1.931097  0.987512
 
 A cutoff of  1.0D-14 yielded   6365 shell pairs
 There are     46001 function pairs (     59435 Cartesian)
 
 -------------------------------------------------------
 OpenMP Integral Computing Module                       
 Release: version 1.0, May 2013, Q-Chem Inc. Pittsburgh 
 -------------------------------------------------------
 Integral Job Info:
 Integral job number is                      11
 Integral operator is                         1
 short-range coefficients              16700000
 long-range coefficients              100000000
 Omega coefficients                         300
 if combine SR and LR in K                    1
 Integral screening is                        0
 Integral computing path is                   2
 max size of driver memory is            800000
 size of driver memory is                776718
 size of scratch memory is              4473992
 max col of scratch BK array              10000
 max len of scratch array in speh3          662
 max len of scratch index in speh4           32
 max int batch size is                      520
 min int batch size is                       52
 fixed nKL is                                52
 max L of basis functions is                  3
 order of int derivative is                   0
 number of shells is                        115
 number of basis is                         349
 number of cartesian basis is               349
 number of contracted shell pairs          6365
 number of primitive shell pairs          13518
 maxK2 (contraction) of shell pair           36
 max number of K2 of shell pair               1
 max number of CS2 of shell pair            954
 max number of PS2 of shell pair           1542
 mem total for path MDJ                  656980
 -------------------------------------------------------
 Smallest overlap matrix eigenvalue = 4.83E-06
 Guess MOs from SCF MO coefficient file
 Reading MOs from coefficient file
 Reading MOs from coefficient file
 Long-range K will be added via erf
 Coulomb attenuation parameter = 0.3 bohr**(-1)
 A restricted hybrid HF-DFT SCF calculation will be
 performed using Pulay DIIS extrapolation
 Polarizable Continuum solvation model will be applied
 Exchange:     0.1670 Hartree-Fock + 1.0000 wB97X-V + LR-HF
 Correlation:  1.0000 wB97X-V
 Using SG-2 standard quadrature grid
 Nonlocal Correlation:  VV10 with C = 0.0100 and b = 6.00
 Grid used for NLC:  SG-1 standard quadrature
 SCF converges when DIIS error is below 1.0E-08
Using Q-Chem read-in guess as SCF_GUESS READ specified.

 using 4 threads for integral computing
 -------------------------------------------------------
 OpenMP Integral computing Module                
 Release: version 1.0, May 2013, Q-Chem Inc. Pittsburgh 
 -------------------------------------------------------
 using 4 threads for integral computing
 -------------------------------------------------------
 OpenMP Integral computing Module                
 Release: version 1.0, May 2013, Q-Chem Inc. Pittsburgh 
 -------------------------------------------------------
 -------------------------------------------------------
 OpenMP BLAS3 based DFT computing Module                
 Release: version 1.0, May 2013, Q-Chem Inc. Pittsburgh 
 -------------------------------------------------------
 -------------------------------------------------------
 OpenMP BLAS3 based DFT computing Module                
 Release: version 1.0, May 2013, Q-Chem Inc. Pittsburgh 
 -------------------------------------------------------
 -------------------------------------------------------
 OpenMP BLAS3 based DFT computing Module                
 Release: version 1.0, May 2013, Q-Chem Inc. Pittsburgh 
 -------------------------------------------------------
 ---------------------------------------
  Cycle       Energy         DIIS Error
 ---------------------------------------
    1    -417.4566278675      4.28E-04
    2    -417.7839914200      4.78E-04
    3    -417.7882950109      2.14E-04
    4    -417.7890165213      1.56E-04
    5    -417.7894057381      1.22E-04
    6    -417.7896359032      9.60E-05
    7    -417.7897934390      7.39E-05
    8    -417.7898867211      5.71E-05
    9    -417.7899453585      4.34E-05
   10    -417.7899766131      3.39E-05
   11    -417.7900012970      2.37E-05
   12    -417.7900123886      1.73E-05
   13    -417.7900181612      1.28E-05
   14    -417.7900210579      9.76E-06
   15    -417.7900221468      8.33E-06
   16    -417.7900229094      7.16E-06
   17    -417.7900250676      9.81E-09 Convergence criterion met
 ---------------------------------------

************** Final PCM Free Energy Summary **************
 G_electrostatic  =      -0.33339720 hartree =    -209.20990316 kcal/mol
 G_cavitation     =       0.00000000 hartree =       0.00000000 kcal/mol
 G_dispersion     =       0.00000000 hartree =       0.00000000 kcal/mol
 G_repulsion      =       0.00000000 hartree =       0.00000000 kcal/mol
 --------------------------------------------------
 Non-electrostatic Free Energy =       0.00000000 hartree =       0.00000000 kcal/mol
 Total                         =      -0.33339720 hartree =    -209.20990316 kcal/mol
 --------------------------------------------------
 SCF Energy (H0 + V/2)                       =    -417.79002507 
 Solute Internal Energy (H0)                 =    -417.45662786 
 Total Free Energy (H0 + V/2 + non-elec)     =    -417.79002507 hartree
                                             = -262167.19761926 kcal/mol
***********************************************************

 SCF time:  CPU 1057.73 s  wall 273.62 s
 SCF   energy in the final basis set = -417.79002507
 Total energy in the final basis set = -417.79002507
 
 --------------------------------------------------------------
 
                    Orbital Energies (a.u.)
 --------------------------------------------------------------
 
 Alpha MOs
 -- Occupied --
-19.198 -19.165 -19.128 -19.125 -10.326 -10.272 -10.199  -1.149
 -1.124  -1.029  -0.906  -0.851  -0.708  -0.590  -0.570  -0.543
 -0.516  -0.485  -0.483  -0.461  -0.453  -0.428  -0.381  -0.338
 -0.334  -0.319  -0.287  -0.249
 -- Virtual --
  0.067   0.083   0.086   0.094   0.109   0.114   0.121   0.128
  0.136   0.145   0.159   0.164   0.174   0.180   0.195   0.204
  0.206   0.212   0.231   0.235   0.242   0.256   0.261   0.279
  0.293   0.304   0.310   0.313   0.334   0.344   0.354   0.360
  0.367   0.374   0.392   0.396   0.398   0.400   0.404   0.417
  0.425   0.439   0.452   0.460   0.469   0.481   0.483   0.490
  0.499   0.511   0.513   0.520   0.527   0.543   0.544   0.562
  0.565   0.570   0.584   0.593   0.599   0.605   0.625   0.645
  0.653   0.659   0.665   0.677   0.688   0.704   0.718   0.726
  0.731   0.737   0.745   0.758   0.772   0.781   0.786   0.802
  0.811   0.828   0.834   0.844   0.848   0.857   0.868   0.886
  0.903   0.917   0.924   0.935   0.947   0.975   0.990   1.017
  1.035   1.050   1.062   1.068   1.103   1.112   1.136   1.163
  1.170   1.182   1.212   1.239   1.268   1.278   1.315   1.353
  1.360   1.379   1.386   1.413   1.456   1.475   1.496   1.536
  1.544   1.567   1.650   1.680   1.707   1.741   1.780   1.834
  1.864   1.870   1.896   1.901   1.937   1.940   1.974   1.987
  1.992   2.034   2.039   2.087   2.114   2.135   2.148   2.177
  2.217   2.247   2.269   2.276   2.305   2.342   2.350   2.372
  2.416   2.461   2.484   2.506   2.509   2.574   2.606   2.615
  2.660   2.688   2.741   2.751   2.759   2.860   2.879   2.887
  2.933   2.942   2.949   2.994   3.002   3.045   3.065   3.101
  3.122   3.134   3.148   3.179   3.210   3.282   3.287   3.317
  3.338   3.363   3.386   3.396   3.429   3.459   3.485   3.493
  3.513   3.554   3.571   3.594   3.604   3.620   3.655   3.671
  3.679   3.720   3.736   3.804   3.826   3.884   3.894   4.042
  4.069   4.195   4.251   4.285   4.317   4.350   4.422   4.506
  4.564   4.755   4.785   4.879   4.926   4.948   4.973   5.017
  5.089   5.160   5.179   5.191   5.251   5.343   5.379   5.392
  5.401   5.485   5.516   5.530   5.558   5.637   5.685   5.721
  5.735   5.793   6.004   6.033   6.066   6.197   6.280   6.290
  6.406   6.569   6.592   6.636   6.651   6.664   6.685   6.730
  6.761   6.771   6.852   6.967   6.970   7.012   7.037   7.084
  7.114   7.283   7.300   7.367   7.389   7.402   7.463   8.235
 22.689  22.997  23.649  43.956  44.320  44.409  44.463
 --------------------------------------------------------------
 
          Ground-State Mulliken Net Atomic Charges

     Atom                 Charge (a.u.)
  ----------------------------------------
      1 C                    -0.587483
      2 C                    -0.274758
      3 H                     0.204117
      4 H                     0.233959
      5 H                     0.290737
      6 C                     0.376663
      7 O                    -0.748472
      8 O                    -0.790755
      9 O                    -0.556723
     10 O                    -0.451374
     11 H                     0.304088
  ----------------------------------------
  Sum of atomic charges =    -2.000000

 -----------------------------------------------------------------
                    Cartesian Multipole Moments
 -----------------------------------------------------------------
    Charge (ESU x 10^10)
                -9.6064
    Dipole Moment (Debye)
         X       2.6908      Y       7.8922      Z      -0.9019
       Tot       8.3869
    Quadrupole Moments (Debye-Ang)
        XX     -86.5956     XY      -3.2435     YY     -58.3115
        XZ      15.7448     YZ       4.7761     ZZ     -58.9839
    Octopole Moments (Debye-Ang^2)
       XXX      55.6079    XXY      45.0794    XYY      14.3214
       YYY      61.4159    XXZ      -5.2883    XYZ     -10.2436
       YYZ     -14.5825    XZZ       3.6543    YZZ      25.7348
       ZZZ      -7.2789
    Hexadecapole Moments (Debye-Ang^3)
      XXXX    -933.9993   XXXY     -60.0213   XXYY    -204.1719
      XYYY     -23.6967   YYYY    -333.8410   XXXZ     182.1290
      XXYZ      26.8424   XYYZ      52.9252   YYYZ      52.3469
      XXZZ    -181.0001   XYZZ     -14.4207   YYZZ    -101.4896
      XZZZ     130.0381   YZZZ      55.9000   ZZZZ    -242.9989
 -----------------------------------------------------------------
 Calculating analytic gradient of the SCF energy
 Gradient of SCF Energy
            1           2           3           4           5           6
    1   0.1006464  -0.0415082  -0.0219766  -0.0609095   0.0246884  -0.0369999
    2  -0.0546869   0.0956921  -0.0687178   0.0359905   0.0110402  -0.0563230
    3  -0.0155173  -0.0181078   0.0389118  -0.0622471   0.0958578   0.0180838
            7           8           9          10          11
    1   0.0582871  -0.0313552   0.0077609  -0.0495032   0.0508698
    2   0.0223305   0.0242418   0.0360301  -0.0558704   0.0102729
    3  -0.0089613  -0.0182308  -0.0497383   0.0686315  -0.0486823
 Max gradient component =       1.006E-01
 RMS gradient           =       4.924E-02
 Computing fast CPCM-ISWIG gradient
 Updating gradient with PCM contributions...
 -- total gradient after adding PCM contribution --
---------------------------------------------------
  Atom         X              Y              Z     
---------------------------------------------------
   1      -0.000008       0.000006       0.000019
   2      -0.000005      -0.000006       0.000005
   3      -0.000014       0.000016       0.000036
   4      -0.000011      -0.000002       0.000019
   5      -0.000005      -0.000001       0.000007
   6       0.000002      -0.000022      -0.000019
   7       0.000004      -0.000035      -0.000030
   8       0.000006      -0.000022      -0.000023
   9       0.000007       0.000035       0.000008
  10       0.000014       0.000024      -0.000008
  11       0.000011       0.000008      -0.000014
---------------------------------------------------
 Number of fixed atoms: 0
 Gradient time:  CPU 222.40 s  wall 57.94 s
 ######################################################
 ######################################################
 # Starting finite difference calculation for IDERIV  #
 Finite diff step size:  1.88973e-03 a.u.
 ----------------------------------------------------------------
             Standard Nuclear Orientation (Angstroms)
    I     Atom           X                Y                Z
 ----------------------------------------------------------------
    1      C       0.4540277633     1.0068478465    -0.1051540902
    2      C      -0.8585537673     0.5803191725    -0.1333268044
    3      H       0.7087700683     1.9436296757    -0.5964551415
    4      H       1.0700343649     0.7629479129     0.7560676032
    5      H      -1.5673577803     1.0412828313    -0.8184094001
    6      C      -1.3177470019    -0.6007685898     0.6087157303
    7      O      -2.5637187525    -0.8478720106     0.6695133891
    8      O      -0.4393765490    -1.3584173040     1.1608319123
    9      O       1.6497111067    -0.0082764295    -1.2018404475
   10      O       1.8437350305    -1.2331167966    -0.4420982281
   11      H       1.0214755173    -1.2865763084     0.1021554768
 ----------------------------------------------------------------
 Nuclear Repulsion Energy =   289.4976402955 hartrees
 There are       28 alpha and       28 beta electrons
 Discretize the solute cavity surface with Lebedev spheres
	Using 110 Lebedev grid points for each H atom
	Using 110 Lebedev grid points for other atoms
	Atomic van der Waals radii will be scaled by 1.20
 Remove points where switching function is < 1.0e-08
 Keep 678 surface tesserae and discard 532 interior tesserae
 Molecular Surface Area = 136.631 Angst**2

                       Distance Matrix (Angstroms)
             C (  1)   C (  2)   H (  3)   H (  4)   H (  5)   C (  6)
   C (  2)  1.380431
   H (  3)  1.088040  2.128287
   H (  4)  1.086579  2.131626  1.831349
   H (  5)  2.143809  1.088223  2.458506  3.084199
   C (  6)  2.496643  1.468487  3.468886  2.753713  2.189823
   O (  7)  3.625864  2.364714  4.483786  3.975726  2.602990  1.271693
   O (  8)  2.827609  2.368387  3.912776  2.634833  3.308821  1.284678
   O (  9)  1.913859  2.789186  2.249844  2.182708  3.405602  3.526325
   O ( 10)  2.657491  3.268984  3.376935  2.453261  4.117045  3.391024
   H ( 11)  2.371659  2.659936  3.319649  2.151862  3.601170  2.489759
             O (  7)   O (  8)   O (  9)   O ( 10)
   O (  8)  2.239393
   O (  9)  4.686137  3.430654
   O ( 10)  4.561770  2.792433  1.454334
   H ( 11)  3.656224  1.805560  1.931097  0.987512
 
 Requested basis set is def2-TZVPD
 There are 115 shells and 307 basis functions
 A cutoff of  1.0D-14 yielded   6365 shell pairs
 There are     46001 function pairs (     59435 Cartesian)
 Smallest overlap matrix eigenvalue = 4.86E-06
 Guess MOs from SCF MO coefficient file
 Reading MOs from coefficient file
 Reading MOs from coefficient file
 Long-range K will be added via erf
 Coulomb attenuation parameter = 0.3 bohr**(-1)
 A restricted hybrid HF-DFT SCF calculation will be
 performed using Pulay DIIS extrapolation
 Polarizable Continuum solvation model will be applied
 Exchange:     0.1670 Hartree-Fock + 1.0000 wB97X-V + LR-HF
 Correlation:  1.0000 wB97X-V
 Using SG-2 standard quadrature grid
 Nonlocal Correlation:  VV10 with C = 0.0100 and b = 6.00
 Grid used for NLC:  SG-1 standard quadrature
 SCF converges when DIIS error is below 1.0E-08
Using Q-Chem read-in guess as SCF_GUESS READ specified.

 using 4 threads for integral computing
 -------------------------------------------------------
 OpenMP Integral computing Module                
 Release: version 1.0, May 2013, Q-Chem Inc. Pittsburgh 
 -------------------------------------------------------
 using 4 threads for integral computing
 -------------------------------------------------------
 OpenMP Integral computing Module                
 Release: version 1.0, May 2013, Q-Chem Inc. Pittsburgh 
 -------------------------------------------------------
 -------------------------------------------------------
 OpenMP BLAS3 based DFT computing Module                
 Release: version 1.0, May 2013, Q-Chem Inc. Pittsburgh 
 -------------------------------------------------------
 -------------------------------------------------------
 OpenMP BLAS3 based DFT computing Module                
 Release: version 1.0, May 2013, Q-Chem Inc. Pittsburgh 
 -------------------------------------------------------
 -------------------------------------------------------
 OpenMP BLAS3 based DFT computing Module                
 Release: version 1.0, May 2013, Q-Chem Inc. Pittsburgh 
 -------------------------------------------------------
 ---------------------------------------
  Cycle       Energy         DIIS Error
 ---------------------------------------
    1    -417.4571588098      4.29E-04
    2    -417.7839904230      4.78E-04
    3    -417.7882948862      2.13E-04
    4    -417.7890169942      1.56E-04
    5    -417.7894091489      1.21E-04
    6    -417.7896528283      9.37E-05
    7    -417.7898292638      6.77E-05
    8    -417.7899382891      4.49E-05
    9    -417.7900038774      2.18E-05
   10    -417.7900216895      7.65E-06
   11    -417.7900241256      1.04E-06
   12    -417.7900241711      1.66E-07
   13    -417.7900241714      1.34E-07
   14    -417.7900241720      6.07E-08
   15    -417.7900241721      2.74E-08
   16    -417.7900241721      9.22E-09 Convergence criterion met
 ---------------------------------------

************** Final PCM Free Energy Summary **************
 G_electrostatic  =      -0.33340226 hartree =    -209.21307850 kcal/mol
 G_cavitation     =       0.00000000 hartree =       0.00000000 kcal/mol
 G_dispersion     =       0.00000000 hartree =       0.00000000 kcal/mol
 G_repulsion      =       0.00000000 hartree =       0.00000000 kcal/mol
 --------------------------------------------------
 Non-electrostatic Free Energy =       0.00000000 hartree =       0.00000000 kcal/mol
 Total                         =      -0.33340226 hartree =    -209.21307850 kcal/mol
 --------------------------------------------------
 SCF Energy (H0 + V/2)                       =    -417.79002417 
 Solute Internal Energy (H0)                 =    -417.45662191 
 Total Free Energy (H0 + V/2 + non-elec)     =    -417.79002417 hartree
                                             = -262167.19705733 kcal/mol
***********************************************************

 SCF time:  CPU 994.88 s  wall 257.22 s
 SCF   energy in the final basis set = -417.79002417
 Total energy in the final basis set = -417.79002417
 
 --------------------------------------------------------------
 
                    Orbital Energies (a.u.)
 --------------------------------------------------------------
 
 Alpha MOs
 -- Occupied --
-19.198 -19.165 -19.128 -19.125 -10.326 -10.272 -10.199  -1.149
 -1.124  -1.029  -0.907  -0.851  -0.708  -0.590  -0.570  -0.543
 -0.516  -0.485  -0.484  -0.461  -0.453  -0.428  -0.381  -0.338
 -0.333  -0.319  -0.288  -0.249
 -- Virtual --
  0.067   0.083   0.086   0.094   0.109   0.114   0.121   0.128
  0.136   0.145   0.159   0.164   0.174   0.180   0.195   0.204
  0.206   0.212   0.231   0.235   0.242   0.256   0.261   0.279
  0.293   0.304   0.310   0.313   0.334   0.344   0.354   0.360
  0.367   0.374   0.392   0.396   0.398   0.400   0.404   0.417
  0.425   0.439   0.452   0.460   0.469   0.481   0.483   0.490
  0.499   0.511   0.513   0.520   0.527   0.543   0.544   0.562
  0.565   0.570   0.584   0.593   0.599   0.605   0.625   0.645
  0.653   0.659   0.665   0.677   0.688   0.704   0.718   0.726
  0.731   0.737   0.745   0.758   0.772   0.781   0.786   0.802
  0.811   0.828   0.834   0.844   0.848   0.857   0.868   0.886
  0.903   0.917   0.924   0.935   0.947   0.975   0.990   1.018
  1.035   1.050   1.062   1.068   1.103   1.112   1.136   1.163
  1.170   1.182   1.212   1.239   1.268   1.278   1.315   1.353
  1.360   1.379   1.386   1.413   1.456   1.475   1.495   1.535
  1.544   1.567   1.650   1.680   1.707   1.741   1.780   1.834
  1.864   1.870   1.896   1.901   1.937   1.940   1.974   1.987
  1.992   2.034   2.039   2.087   2.114   2.135   2.148   2.177
  2.217   2.247   2.269   2.276   2.305   2.342   2.350   2.372
  2.416   2.461   2.484   2.506   2.509   2.574   2.607   2.615
  2.660   2.688   2.741   2.751   2.759   2.860   2.878   2.886
  2.933   2.942   2.949   2.994   3.002   3.045   3.064   3.101
  3.122   3.134   3.148   3.179   3.210   3.282   3.287   3.317
  3.338   3.364   3.386   3.396   3.429   3.459   3.485   3.493
  3.514   3.553   3.570   3.594   3.604   3.620   3.655   3.671
  3.679   3.720   3.736   3.804   3.826   3.884   3.894   4.041
  4.069   4.195   4.251   4.285   4.317   4.350   4.421   4.504
  4.563   4.755   4.786   4.879   4.925   4.948   4.973   5.017
  5.089   5.160   5.179   5.191   5.251   5.343   5.379   5.392
  5.401   5.485   5.516   5.530   5.558   5.637   5.685   5.721
  5.735   5.793   6.004   6.033   6.066   6.197   6.280   6.290
  6.406   6.569   6.592   6.636   6.651   6.664   6.685   6.730
  6.761   6.771   6.852   6.967   6.970   7.012   7.037   7.084
  7.114   7.283   7.300   7.367   7.389   7.402   7.463   8.235
 22.689  22.995  23.648  43.956  44.320  44.409  44.463
 --------------------------------------------------------------
 
          Ground-State Mulliken Net Atomic Charges

     Atom                 Charge (a.u.)
  ----------------------------------------
      1 C                    -0.586701
      2 C                    -0.275912
      3 H                     0.204102
      4 H                     0.234266
      5 H                     0.290816
      6 C                     0.376220
      7 O                    -0.748571
      8 O                    -0.790896
      9 O                    -0.556129
     10 O                    -0.451352
     11 H                     0.304158
  ----------------------------------------
  Sum of atomic charges =    -2.000000

 -----------------------------------------------------------------
                    Cartesian Multipole Moments
 -----------------------------------------------------------------
    Charge (ESU x 10^10)
                -9.6064
    Dipole Moment (Debye)
         X       2.7047      Y       7.8915      Z      -0.9072
       Tot       8.3913
    Quadrupole Moments (Debye-Ang)
        XX     -86.5928     XY      -3.2447     YY     -58.3143
        XZ      15.7392     YZ       4.7768     ZZ     -58.9809
    Octopole Moments (Debye-Ang^2)
       XXX      55.6643    XXY      45.0757    XYY      14.3375
       YYY      61.4126    XXZ      -5.3119    XYZ     -10.2429
       YYZ     -14.5924    XZZ       3.6765    YZZ      25.7355
       ZZZ      -7.3016
    Hexadecapole Moments (Debye-Ang^3)
      XXXX    -934.0140   XXXY     -60.0578   XXYY    -204.1842
      XYYY     -23.7202   YYYY    -333.8530   XXXZ     182.1039
      XXYZ      26.8474   XYYZ      52.9259   YYYZ      52.3496
      XXZZ    -180.9827   XYZZ     -14.4285   YYZZ    -101.4926
      XZZZ     130.0111   YZZZ      55.9096   ZZZZ    -242.9701
 -----------------------------------------------------------------
 Calculating analytic gradient of the SCF energy
 Gradient of SCF Energy
            1           2           3           4           5           6
    1   0.1015782  -0.0423154  -0.0219790  -0.0610537   0.0246141  -0.0369349
    2  -0.0543283   0.0954189  -0.0689014   0.0360089   0.0111606  -0.0563934
    3  -0.0154201  -0.0180223   0.0389464  -0.0626043   0.0960698   0.0180545
            7           8           9          10          11
    1   0.0583151  -0.0313813   0.0077856  -0.0495089   0.0508800
    2   0.0223453   0.0242706   0.0359697  -0.0558324   0.0102816
    3  -0.0089642  -0.0182410  -0.0497419   0.0686119  -0.0486888
 Max gradient component =       1.016E-01
 RMS gradient           =       4.933E-02
 Computing fast CPCM-ISWIG gradient
 Updating gradient with PCM contributions...
 -- total gradient after adding PCM contribution --
---------------------------------------------------
  Atom         X              Y              Z     
---------------------------------------------------
   1       0.000955       0.000379       0.000402
   2      -0.000619      -0.000134      -0.000081
   3      -0.000133      -0.000113       0.000068
   4      -0.000268       0.000034      -0.000254
   5      -0.000033      -0.000021       0.000010
   6      -0.000049      -0.000136       0.000068
   7       0.000048      -0.000011      -0.000043
   8      -0.000033       0.000017      -0.000051
   9       0.000089      -0.000026      -0.000107
  10       0.000009      -0.000005       0.000010
  11       0.000034       0.000016      -0.000023
---------------------------------------------------
 Number of fixed atoms: 0
 Gradient time:  CPU 221.16 s  wall 57.36 s
 ----------------------------------------------------------------
             Standard Nuclear Orientation (Angstroms)
    I     Atom           X                Y                Z
 ----------------------------------------------------------------
    1      C       0.4520277633     1.0068478465    -0.1051540902
    2      C      -0.8585537673     0.5803191725    -0.1333268044
    3      H       0.7087700683     1.9436296757    -0.5964551415
    4      H       1.0700343649     0.7629479129     0.7560676032
    5      H      -1.5673577803     1.0412828313    -0.8184094001
    6      C      -1.3177470019    -0.6007685898     0.6087157303
    7      O      -2.5637187525    -0.8478720106     0.6695133891
    8      O      -0.4393765490    -1.3584173040     1.1608319123
    9      O       1.6497111067    -0.0082764295    -1.2018404475
   10      O       1.8437350305    -1.2331167966    -0.4420982281
   11      H       1.0214755173    -1.2865763084     0.1021554768
 ----------------------------------------------------------------
 Nuclear Repulsion Energy =   289.5105371020 hartrees
 There are       28 alpha and       28 beta electrons
 Discretize the solute cavity surface with Lebedev spheres
	Using 110 Lebedev grid points for each H atom
	Using 110 Lebedev grid points for other atoms
	Atomic van der Waals radii will be scaled by 1.20
 Remove points where switching function is < 1.0e-08
 Keep 679 surface tesserae and discard 531 interior tesserae
 Molecular Surface Area = 136.637 Angst**2

                       Distance Matrix (Angstroms)
             C (  1)   C (  2)   H (  3)   H (  4)   H (  5)   C (  6)
   C (  2)  1.378530
   H (  3)  1.088510  2.128287
   H (  4)  1.087714  2.131626  1.831349
   H (  5)  2.141924  1.088223  2.458506  3.084199
   C (  6)  2.495224  1.468487  3.468886  2.753713  2.189823
   O (  7)  3.624200  2.364714  4.483786  3.975726  2.602990  1.271693
   O (  8)  2.826977  2.368387  3.912776  2.634833  3.308821  1.284678
   O (  9)  1.915109  2.789186  2.249844  2.182708  3.405602  3.526325
   O ( 10)  2.658538  3.268984  3.376935  2.453261  4.117045  3.391024
   H ( 11)  2.372139  2.659936  3.319649  2.151862  3.601170  2.489759
             O (  7)   O (  8)   O (  9)   O ( 10)
   O (  8)  2.239393
   O (  9)  4.686137  3.430654
   O ( 10)  4.561770  2.792433  1.454334
   H ( 11)  3.656224  1.805560  1.931097  0.987512
 
 Requested basis set is def2-TZVPD
 There are 115 shells and 307 basis functions
 A cutoff of  1.0D-14 yielded   6365 shell pairs
 There are     46001 function pairs (     59435 Cartesian)
 Smallest overlap matrix eigenvalue = 4.81E-06
 Guess MOs from SCF MO coefficient file
 Reading MOs from coefficient file
 Reading MOs from coefficient file
 Long-range K will be added via erf
 Coulomb attenuation parameter = 0.3 bohr**(-1)
 A restricted hybrid HF-DFT SCF calculation will be
 performed using Pulay DIIS extrapolation
 Polarizable Continuum solvation model will be applied
 Exchange:     0.1670 Hartree-Fock + 1.0000 wB97X-V + LR-HF
 Correlation:  1.0000 wB97X-V
 Using SG-2 standard quadrature grid
 Nonlocal Correlation:  VV10 with C = 0.0100 and b = 6.00
 Grid used for NLC:  SG-1 standard quadrature
 SCF converges when DIIS error is below 1.0E-08
Using Q-Chem read-in guess as SCF_GUESS READ specified.

 using 4 threads for integral computing
 -------------------------------------------------------
 OpenMP Integral computing Module                
 Release: version 1.0, May 2013, Q-Chem Inc. Pittsburgh 
 -------------------------------------------------------
 using 4 threads for integral computing
 -------------------------------------------------------
 OpenMP Integral computing Module                
 Release: version 1.0, May 2013, Q-Chem Inc. Pittsburgh 
 -------------------------------------------------------
 -------------------------------------------------------
 OpenMP BLAS3 based DFT computing Module                
 Release: version 1.0, May 2013, Q-Chem Inc. Pittsburgh 
 -------------------------------------------------------
 -------------------------------------------------------
 OpenMP BLAS3 based DFT computing Module                
 Release: version 1.0, May 2013, Q-Chem Inc. Pittsburgh 
 -------------------------------------------------------
 -------------------------------------------------------
 OpenMP BLAS3 based DFT computing Module                
 Release: version 1.0, May 2013, Q-Chem Inc. Pittsburgh 
 -------------------------------------------------------
 ---------------------------------------
  Cycle       Energy         DIIS Error
 ---------------------------------------
    1    -417.4555680931      4.32E-04
    2    -417.7839872579      4.78E-04
    3    -417.7883032052      2.13E-04
    4    -417.7890283998      1.55E-04
    5    -417.7894446355      1.18E-04
    6    -417.7897116377      8.60E-05
    7    -417.7899092541      5.19E-05
    8    -417.7899958581      2.56E-05
    9    -417.7900214550      7.85E-06
   10    -417.7900239186      2.24E-06
   11    -417.7900241251      5.44E-07
   12    -417.7900241383      1.59E-07
   13    -417.7900241392      3.82E-08
   14    -417.7900241393      1.50E-08
   15    -417.7900241393      9.75E-09 Convergence criterion met
 ---------------------------------------

************** Final PCM Free Energy Summary **************
 G_electrostatic  =      -0.33339220 hartree =    -209.20676251 kcal/mol
 G_cavitation     =       0.00000000 hartree =       0.00000000 kcal/mol
 G_dispersion     =       0.00000000 hartree =       0.00000000 kcal/mol
 G_repulsion      =       0.00000000 hartree =       0.00000000 kcal/mol
 --------------------------------------------------
 Non-electrostatic Free Energy =       0.00000000 hartree =       0.00000000 kcal/mol
 Total                         =      -0.33339220 hartree =    -209.20676251 kcal/mol
 --------------------------------------------------
 SCF Energy (H0 + V/2)                       =    -417.79002414 
 Solute Internal Energy (H0)                 =    -417.45663194 
 Total Free Energy (H0 + V/2 + non-elec)     =    -417.79002414 hartree
                                             = -262167.19703675 kcal/mol
***********************************************************

 SCF time:  CPU 943.85 s  wall 244.14 s
 SCF   energy in the final basis set = -417.79002414
 Total energy in the final basis set = -417.79002414
 
 --------------------------------------------------------------
 
                    Orbital Energies (a.u.)
 --------------------------------------------------------------
 
 Alpha MOs
 -- Occupied --
-19.198 -19.164 -19.128 -19.125 -10.326 -10.272 -10.199  -1.149
 -1.124  -1.029  -0.906  -0.852  -0.708  -0.590  -0.570  -0.543
 -0.516  -0.485  -0.483  -0.461  -0.453  -0.428  -0.381  -0.338
 -0.334  -0.319  -0.287  -0.249
 -- Virtual --
  0.067   0.083   0.086   0.094   0.109   0.114   0.121   0.128
  0.136   0.145   0.159   0.164   0.174   0.180   0.195   0.204
  0.206   0.212   0.231   0.235   0.242   0.256   0.261   0.279
  0.293   0.304   0.310   0.313   0.334   0.344   0.354   0.360
  0.367   0.374   0.392   0.396   0.398   0.400   0.404   0.417
  0.425   0.439   0.452   0.460   0.469   0.481   0.483   0.490
  0.500   0.511   0.513   0.520   0.527   0.543   0.544   0.562
  0.565   0.570   0.584   0.593   0.599   0.605   0.625   0.645
  0.653   0.659   0.665   0.677   0.688   0.704   0.718   0.726
  0.731   0.737   0.745   0.758   0.772   0.781   0.786   0.802
  0.811   0.828   0.834   0.844   0.848   0.857   0.868   0.886
  0.903   0.917   0.924   0.935   0.947   0.975   0.990   1.017
  1.035   1.050   1.062   1.068   1.103   1.112   1.136   1.163
  1.170   1.182   1.212   1.239   1.268   1.278   1.315   1.353
  1.360   1.379   1.386   1.413   1.456   1.475   1.496   1.536
  1.544   1.567   1.650   1.680   1.707   1.741   1.780   1.834
  1.864   1.870   1.896   1.901   1.937   1.940   1.974   1.987
  1.992   2.034   2.039   2.086   2.114   2.135   2.148   2.177
  2.217   2.246   2.269   2.276   2.305   2.342   2.350   2.372
  2.417   2.461   2.484   2.506   2.509   2.574   2.606   2.615
  2.659   2.688   2.741   2.751   2.760   2.860   2.879   2.887
  2.933   2.943   2.949   2.994   3.002   3.045   3.065   3.101
  3.122   3.134   3.149   3.179   3.210   3.282   3.288   3.317
  3.338   3.363   3.386   3.396   3.429   3.459   3.485   3.493
  3.513   3.554   3.571   3.595   3.604   3.620   3.655   3.671
  3.678   3.720   3.736   3.804   3.826   3.884   3.895   4.042
  4.069   4.195   4.251   4.285   4.318   4.351   4.422   4.507
  4.565   4.755   4.785   4.879   4.926   4.948   4.973   5.017
  5.090   5.160   5.179   5.191   5.251   5.343   5.379   5.392
  5.401   5.485   5.516   5.530   5.558   5.637   5.685   5.721
  5.735   5.793   6.004   6.033   6.066   6.197   6.280   6.290
  6.406   6.569   6.592   6.636   6.651   6.664   6.685   6.730
  6.761   6.771   6.852   6.967   6.970   7.012   7.037   7.084
  7.114   7.283   7.300   7.367   7.389   7.402   7.463   8.236
 22.688  22.999  23.649  43.956  44.320  44.409  44.463
 --------------------------------------------------------------
 
          Ground-State Mulliken Net Atomic Charges

     Atom                 Charge (a.u.)
  ----------------------------------------
      1 C                    -0.588267
      2 C                    -0.273603
      3 H                     0.204132
      4 H                     0.233653
      5 H                     0.290658
      6 C                     0.377106
      7 O                    -0.748371
      8 O                    -0.790612
      9 O                    -0.557316
     10 O                    -0.451395
     11 H                     0.304017
  ----------------------------------------
  Sum of atomic charges =    -2.000000

 -----------------------------------------------------------------
                    Cartesian Multipole Moments
 -----------------------------------------------------------------
    Charge (ESU x 10^10)
                -9.6064
    Dipole Moment (Debye)
         X       2.6770      Y       7.8929      Z      -0.8966
       Tot       8.3826
    Quadrupole Moments (Debye-Ang)
        XX     -86.5984     XY      -3.2424     YY     -58.3086
        XZ      15.7504     YZ       4.7755     ZZ     -58.9870
    Octopole Moments (Debye-Ang^2)
       XXX      55.5511    XXY      45.0831    XYY      14.3053
       YYY      61.4191    XXZ      -5.2646    XYZ     -10.2443
       YYZ     -14.5724    XZZ       3.6320    YZZ      25.7340
       ZZZ      -7.2561
    Hexadecapole Moments (Debye-Ang^3)
      XXXX    -933.9847   XXXY     -59.9849   XXYY    -204.1597
      XYYY     -23.6734   YYYY    -333.8292   XXXZ     182.1543
      XXYZ      26.8374   XYYZ      52.9245   YYYZ      52.3444
      XXZZ    -181.0177   XYZZ     -14.4129   YYZZ    -101.4867
      XZZZ     130.0654   YZZZ      55.8904   ZZZZ    -243.0280
 -----------------------------------------------------------------
 Calculating analytic gradient of the SCF energy
 Gradient of SCF Energy
            1           2           3           4           5           6
    1   0.0997075  -0.0406956  -0.0219738  -0.0607647   0.0247631  -0.0370648
    2  -0.0550459   0.0959662  -0.0685340   0.0359720   0.0109192  -0.0562526
    3  -0.0156114  -0.0181953   0.0388774  -0.0618907   0.0956452   0.0181134
            7           8           9          10          11
    1   0.0582589  -0.0313290   0.0077363  -0.0494973   0.0508593
    2   0.0223158   0.0242132   0.0360902  -0.0559082   0.0102641
    3  -0.0089585  -0.0182208  -0.0497346   0.0686508  -0.0486755
 Max gradient component =       9.971E-02
 RMS gradient           =       4.915E-02
 Computing fast CPCM-ISWIG gradient
 Updating gradient with PCM contributions...
 -- total gradient after adding PCM contribution --
---------------------------------------------------
  Atom         X              Y              Z     
---------------------------------------------------
   1      -0.000975      -0.000370      -0.000363
   2       0.000612       0.000123       0.000090
   3       0.000105       0.000145       0.000003
   4       0.000245      -0.000039       0.000291
   5       0.000024       0.000018       0.000004
   6       0.000053       0.000093      -0.000106
   7      -0.000041      -0.000060      -0.000016
   8       0.000046      -0.000060       0.000006
   9      -0.000076       0.000097       0.000123
  10       0.000019       0.000053      -0.000027
  11      -0.000012      -0.000001      -0.000006
---------------------------------------------------
 Number of fixed atoms: 0
 Gradient time:  CPU 220.02 s  wall 57.22 s
 ----------------------------------------------------------------
             Standard Nuclear Orientation (Angstroms)
    I     Atom           X                Y                Z
 ----------------------------------------------------------------
    1      C       0.4530277633     1.0078478465    -0.1051540902
    2      C      -0.8585537673     0.5803191725    -0.1333268044
    3      H       0.7087700683     1.9436296757    -0.5964551415
    4      H       1.0700343649     0.7629479129     0.7560676032
    5      H      -1.5673577803     1.0412828313    -0.8184094001
    6      C      -1.3177470019    -0.6007685898     0.6087157303
    7      O      -2.5637187525    -0.8478720106     0.6695133891
    8      O      -0.4393765490    -1.3584173040     1.1608319123
    9      O       1.6497111067    -0.0082764295    -1.2018404475
   10      O       1.8437350305    -1.2331167966    -0.4420982281
   11      H       1.0214755173    -1.2865763084     0.1021554768
 ----------------------------------------------------------------
 Nuclear Repulsion Energy =   289.4898358886 hartrees
 There are       28 alpha and       28 beta electrons
 Discretize the solute cavity surface with Lebedev spheres
	Using 110 Lebedev grid points for each H atom
	Using 110 Lebedev grid points for other atoms
	Atomic van der Waals radii will be scaled by 1.20
 Remove points where switching function is < 1.0e-08
 Keep 678 surface tesserae and discard 532 interior tesserae
 Molecular Surface Area = 136.642 Angst**2

                       Distance Matrix (Angstroms)
             C (  1)   C (  2)   H (  3)   H (  4)   H (  5)   C (  6)
   C (  2)  1.379790
   H (  3)  1.087414  2.128287
   H (  4)  1.087371  2.131626  1.831349
   H (  5)  2.142851  1.088223  2.458506  3.084199
   C (  6)  2.496578  1.468487  3.468886  2.753713  2.189823
   O (  7)  3.625543  2.364714  4.483786  3.975726  2.602990  1.271693
   O (  8)  2.828130  2.368387  3.912776  2.634833  3.308821  1.284678
   O (  9)  1.915014  2.789186  2.249844  2.182708  3.405602  3.526325
   O ( 10)  2.658857  3.268984  3.376935  2.453261  4.117045  3.391024
   H ( 11)  2.372866  2.659936  3.319649  2.151862  3.601170  2.489759
             O (  7)   O (  8)   O (  9)   O ( 10)
   O (  8)  2.239393
   O (  9)  4.686137  3.430654
   O ( 10)  4.561770  2.792433  1.454334
   H ( 11)  3.656224  1.805560  1.931097  0.987512
 
 Requested basis set is def2-TZVPD
 There are 115 shells and 307 basis functions
 A cutoff of  1.0D-14 yielded   6365 shell pairs
 There are     46001 function pairs (     59435 Cartesian)
 Smallest overlap matrix eigenvalue = 4.84E-06
 Guess MOs from SCF MO coefficient file
 Reading MOs from coefficient file
 Reading MOs from coefficient file
 Long-range K will be added via erf
 Coulomb attenuation parameter = 0.3 bohr**(-1)
 A restricted hybrid HF-DFT SCF calculation will be
 performed using Pulay DIIS extrapolation
 Polarizable Continuum solvation model will be applied
 Exchange:     0.1670 Hartree-Fock + 1.0000 wB97X-V + LR-HF
 Correlation:  1.0000 wB97X-V
 Using SG-2 standard quadrature grid
 Nonlocal Correlation:  VV10 with C = 0.0100 and b = 6.00
 Grid used for NLC:  SG-1 standard quadrature
 SCF converges when DIIS error is below 1.0E-08
Using Q-Chem read-in guess as SCF_GUESS READ specified.

 using 4 threads for integral computing
 -------------------------------------------------------
 OpenMP Integral computing Module                
 Release: version 1.0, May 2013, Q-Chem Inc. Pittsburgh 
 -------------------------------------------------------
 using 4 threads for integral computing
 -------------------------------------------------------
 OpenMP Integral computing Module                
 Release: version 1.0, May 2013, Q-Chem Inc. Pittsburgh 
 -------------------------------------------------------
 -------------------------------------------------------
 OpenMP BLAS3 based DFT computing Module                
 Release: version 1.0, May 2013, Q-Chem Inc. Pittsburgh 
 -------------------------------------------------------
 -------------------------------------------------------
 OpenMP BLAS3 based DFT computing Module                
 Release: version 1.0, May 2013, Q-Chem Inc. Pittsburgh 
 -------------------------------------------------------
 -------------------------------------------------------
 OpenMP BLAS3 based DFT computing Module                
 Release: version 1.0, May 2013, Q-Chem Inc. Pittsburgh 
 -------------------------------------------------------
 ---------------------------------------
  Cycle       Energy         DIIS Error
 ---------------------------------------
    1    -417.4575661711      4.28E-04
    2    -417.7840102527      4.77E-04
    3    -417.7882991539      2.13E-04
    4    -417.7890187758      1.56E-04
    5    -417.7894134098      1.21E-04
    6    -417.7896660520      9.20E-05
    7    -417.7898554801      6.29E-05
    8    -417.7899642423      3.74E-05
    9    -417.7900149449      1.47E-05
   10    -417.7900234762      4.16E-06
   11    -417.7900242049      5.02E-07
   12    -417.7900242159      1.39E-07
   13    -417.7900242165      6.78E-08
   14    -417.7900242166      2.82E-08
   15    -417.7900242167      1.42E-08
   16    -417.7900242167      3.77E-09 Convergence criterion met
 ---------------------------------------

************** Final PCM Free Energy Summary **************
 G_electrostatic  =      -0.33340785 hartree =    -209.21658060 kcal/mol
 G_cavitation     =       0.00000000 hartree =       0.00000000 kcal/mol
 G_dispersion     =       0.00000000 hartree =       0.00000000 kcal/mol
 G_repulsion      =       0.00000000 hartree =       0.00000000 kcal/mol
 --------------------------------------------------
 Non-electrostatic Free Energy =       0.00000000 hartree =       0.00000000 kcal/mol
 Total                         =      -0.33340785 hartree =    -209.21658060 kcal/mol
 --------------------------------------------------
 SCF Energy (H0 + V/2)                       =    -417.79002422 
 Solute Internal Energy (H0)                 =    -417.45661637 
 Total Free Energy (H0 + V/2 + non-elec)     =    -417.79002422 hartree
                                             = -262167.19708528 kcal/mol
***********************************************************

 SCF time:  CPU 995.43 s  wall 257.25 s
 SCF   energy in the final basis set = -417.79002422
 Total energy in the final basis set = -417.79002422
 
 --------------------------------------------------------------
 
                    Orbital Energies (a.u.)
 --------------------------------------------------------------
 
 Alpha MOs
 -- Occupied --
-19.198 -19.165 -19.128 -19.125 -10.326 -10.272 -10.199  -1.149
 -1.124  -1.029  -0.906  -0.851  -0.708  -0.590  -0.570  -0.543
 -0.516  -0.485  -0.484  -0.461  -0.453  -0.428  -0.381  -0.338
 -0.334  -0.319  -0.287  -0.249
 -- Virtual --
  0.067   0.083   0.086   0.094   0.109   0.114   0.121   0.128
  0.136   0.145   0.159   0.164   0.174   0.180   0.195   0.204
  0.206   0.212   0.231   0.235   0.242   0.256   0.261   0.279
  0.293   0.304   0.310   0.313   0.334   0.344   0.354   0.360
  0.367   0.374   0.392   0.396   0.398   0.400   0.404   0.417
  0.425   0.439   0.452   0.460   0.469   0.481   0.483   0.490
  0.499   0.511   0.513   0.520   0.527   0.543   0.544   0.562
  0.565   0.570   0.584   0.593   0.598   0.605   0.625   0.645
  0.653   0.659   0.665   0.677   0.688   0.704   0.718   0.726
  0.731   0.737   0.745   0.758   0.772   0.781   0.786   0.802
  0.811   0.828   0.834   0.844   0.848   0.857   0.868   0.886
  0.903   0.917   0.924   0.935   0.947   0.975   0.990   1.017
  1.035   1.050   1.062   1.068   1.103   1.112   1.136   1.163
  1.170   1.182   1.212   1.239   1.268   1.278   1.315   1.353
  1.360   1.379   1.386   1.413   1.456   1.475   1.495   1.535
  1.544   1.567   1.650   1.680   1.707   1.741   1.780   1.834
  1.864   1.870   1.896   1.901   1.937   1.940   1.974   1.987
  1.992   2.034   2.039   2.087   2.114   2.135   2.148   2.177
  2.217   2.247   2.269   2.276   2.305   2.342   2.350   2.372
  2.417   2.461   2.484   2.506   2.508   2.574   2.607   2.615
  2.660   2.688   2.741   2.751   2.759   2.860   2.878   2.887
  2.933   2.942   2.949   2.994   3.001   3.045   3.065   3.101
  3.122   3.134   3.148   3.179   3.210   3.282   3.288   3.317
  3.338   3.364   3.386   3.396   3.429   3.458   3.485   3.493
  3.513   3.554   3.570   3.594   3.604   3.620   3.655   3.671
  3.678   3.720   3.736   3.804   3.826   3.884   3.894   4.041
  4.068   4.195   4.251   4.285   4.317   4.350   4.421   4.505
  4.564   4.755   4.786   4.879   4.926   4.948   4.973   5.017
  5.090   5.160   5.179   5.191   5.251   5.343   5.379   5.392
  5.401   5.485   5.516   5.530   5.558   5.637   5.685   5.721
  5.735   5.793   6.004   6.033   6.066   6.197   6.280   6.290
  6.406   6.569   6.592   6.636   6.651   6.664   6.685   6.730
  6.761   6.771   6.852   6.967   6.970   7.012   7.037   7.084
  7.114   7.283   7.300   7.367   7.389   7.402   7.463   8.235
 22.689  22.996  23.649  43.956  44.320  44.409  44.463
 --------------------------------------------------------------
 
          Ground-State Mulliken Net Atomic Charges

     Atom                 Charge (a.u.)
  ----------------------------------------
      1 C                    -0.588023
      2 C                    -0.274305
      3 H                     0.204759
      4 H                     0.233569
      5 H                     0.290801
      6 C                     0.376777
      7 O                    -0.748406
      8 O                    -0.790726
      9 O                    -0.557133
     10 O                    -0.451340
     11 H                     0.304028
  ----------------------------------------
  Sum of atomic charges =    -2.000000

 -----------------------------------------------------------------
                    Cartesian Multipole Moments
 -----------------------------------------------------------------
    Charge (ESU x 10^10)
                -9.6064
    Dipole Moment (Debye)
         X       2.6873      Y       7.8938      Z      -0.9003
       Tot       8.3872
    Quadrupole Moments (Debye-Ang)
        XX     -86.5988     XY      -3.2396     YY     -58.3064
        XZ      15.7465     YZ       4.7726     ZZ     -58.9861
    Octopole Moments (Debye-Ang^2)
       XXX      55.5830    XXY      45.0734    XYY      14.3220
       YYY      61.4117    XXZ      -5.2782    XYZ     -10.2453
       YYZ     -14.5864    XZZ       3.6453    YZZ      25.7305
       ZZZ      -7.2715
    Hexadecapole Moments (Debye-Ang^3)
      XXXX    -934.0202   XXXY     -60.0094   XXYY    -204.1778
      XYYY     -23.6823   YYYY    -333.8663   XXXZ     182.1404
      XXYZ      26.8364   XYYZ      52.9200   YYYZ      52.3299
      XXZZ    -181.0136   XYZZ     -14.4175   YYZZ    -101.4946
      XZZZ     130.0486   YZZZ      55.8892   ZZZZ    -243.0143
 -----------------------------------------------------------------
 Calculating analytic gradient of the SCF energy
 Gradient of SCF Energy
            1           2           3           4           5           6
    1   0.1011190  -0.0417992  -0.0221439  -0.0608353   0.0246668  -0.0370696
    2  -0.0541828   0.0956691  -0.0692066   0.0359944   0.0110509  -0.0563044
    3  -0.0160472  -0.0180703   0.0391955  -0.0620638   0.0958306   0.0181150
            7           8           9          10          11
    1   0.0582822  -0.0313576   0.0077433  -0.0494933   0.0508875
    2   0.0223235   0.0242445   0.0360347  -0.0559018   0.0102784
    3  -0.0089542  -0.0182352  -0.0497278   0.0686295  -0.0486720
 Max gradient component =       1.011E-01
 RMS gradient           =       4.928E-02
 Computing fast CPCM-ISWIG gradient
 Updating gradient with PCM contributions...
 -- total gradient after adding PCM contribution --
---------------------------------------------------
  Atom         X              Y              Z     
---------------------------------------------------
   1       0.000367       0.000895      -0.000411
   2      -0.000259      -0.000263       0.000051
   3      -0.000125      -0.000463       0.000260
   4       0.000050      -0.000120       0.000132
   5       0.000018       0.000010       0.000009
   6      -0.000035      -0.000010      -0.000047
   7      -0.000015      -0.000047      -0.000016
   8       0.000011      -0.000034      -0.000017
   9      -0.000053       0.000025       0.000077
  10       0.000032       0.000004      -0.000028
  11       0.000008       0.000001      -0.000010
---------------------------------------------------
 Number of fixed atoms: 0
 Gradient time:  CPU 221.26 s  wall 57.42 s
 ----------------------------------------------------------------
             Standard Nuclear Orientation (Angstroms)
    I     Atom           X                Y                Z
 ----------------------------------------------------------------
    1      C       0.4530277633     1.0058478465    -0.1051540902
    2      C      -0.8585537673     0.5803191725    -0.1333268044
    3      H       0.7087700683     1.9436296757    -0.5964551415
    4      H       1.0700343649     0.7629479129     0.7560676032
    5      H      -1.5673577803     1.0412828313    -0.8184094001
    6      C      -1.3177470019    -0.6007685898     0.6087157303
    7      O      -2.5637187525    -0.8478720106     0.6695133891
    8      O      -0.4393765490    -1.3584173040     1.1608319123
    9      O       1.6497111067    -0.0082764295    -1.2018404475
   10      O       1.8437350305    -1.2331167966    -0.4420982281
   11      H       1.0214755173    -1.2865763084     0.1021554768
 ----------------------------------------------------------------
 Nuclear Repulsion Energy =   289.5183283195 hartrees
 There are       28 alpha and       28 beta electrons
 Discretize the solute cavity surface with Lebedev spheres
	Using 110 Lebedev grid points for each H atom
	Using 110 Lebedev grid points for other atoms
	Atomic van der Waals radii will be scaled by 1.20
 Remove points where switching function is < 1.0e-08
 Keep 679 surface tesserae and discard 531 interior tesserae
 Molecular Surface Area = 136.627 Angst**2

                       Distance Matrix (Angstroms)
             C (  1)   C (  2)   H (  3)   H (  4)   H (  5)   C (  6)
   C (  2)  1.379172
   H (  3)  1.089135  2.128287
   H (  4)  1.086922  2.131626  1.831349
   H (  5)  2.142883  1.088223  2.458506  3.084199
   C (  6)  2.495290  1.468487  3.468886  2.753713  2.189823
   O (  7)  3.624520  2.364714  4.483786  3.975726  2.602990  1.271693
   O (  8)  2.826456  2.368387  3.912776  2.634833  3.308821  1.284678
   O (  9)  1.913954  2.789186  2.249844  2.182708  3.405602  3.526325
   O ( 10)  2.657172  3.268984  3.376935  2.453261  4.117045  3.391024
   H ( 11)  2.370932  2.659936  3.319649  2.151862  3.601170  2.489759
             O (  7)   O (  8)   O (  9)   O ( 10)
   O (  8)  2.239393
   O (  9)  4.686137  3.430654
   O ( 10)  4.561770  2.792433  1.454334
   H ( 11)  3.656224  1.805560  1.931097  0.987512
 
 Requested basis set is def2-TZVPD
 There are 115 shells and 307 basis functions
 A cutoff of  1.0D-14 yielded   6365 shell pairs
 There are     46001 function pairs (     59435 Cartesian)
 Smallest overlap matrix eigenvalue = 4.83E-06
 Guess MOs from SCF MO coefficient file
 Reading MOs from coefficient file
 Reading MOs from coefficient file
 Long-range K will be added via erf
 Coulomb attenuation parameter = 0.3 bohr**(-1)
 A restricted hybrid HF-DFT SCF calculation will be
 performed using Pulay DIIS extrapolation
 Polarizable Continuum solvation model will be applied
 Exchange:     0.1670 Hartree-Fock + 1.0000 wB97X-V + LR-HF
 Correlation:  1.0000 wB97X-V
 Using SG-2 standard quadrature grid
 Nonlocal Correlation:  VV10 with C = 0.0100 and b = 6.00
 Grid used for NLC:  SG-1 standard quadrature
 SCF converges when DIIS error is below 1.0E-08
Using Q-Chem read-in guess as SCF_GUESS READ specified.

 using 4 threads for integral computing
 -------------------------------------------------------
 OpenMP Integral computing Module                
 Release: version 1.0, May 2013, Q-Chem Inc. Pittsburgh 
 -------------------------------------------------------
 using 4 threads for integral computing
 -------------------------------------------------------
 OpenMP Integral computing Module                
 Release: version 1.0, May 2013, Q-Chem Inc. Pittsburgh 
 -------------------------------------------------------
 -------------------------------------------------------
 OpenMP BLAS3 based DFT computing Module                
 Release: version 1.0, May 2013, Q-Chem Inc. Pittsburgh 
 -------------------------------------------------------
 -------------------------------------------------------
 OpenMP BLAS3 based DFT computing Module                
 Release: version 1.0, May 2013, Q-Chem Inc. Pittsburgh 
 -------------------------------------------------------
 -------------------------------------------------------
 OpenMP BLAS3 based DFT computing Module                
 Release: version 1.0, May 2013, Q-Chem Inc. Pittsburgh 
 -------------------------------------------------------
 ---------------------------------------
  Cycle       Energy         DIIS Error
 ---------------------------------------
    1    -417.4558234205      4.32E-04
    2    -417.7839507830      4.80E-04
    3    -417.7882937700      2.14E-04
    4    -417.7890231955      1.56E-04
    5    -417.7894300910      1.19E-04
    6    -417.7896884848      8.91E-05
    7    -417.7898782909      5.85E-05
    8    -417.7899791344      3.24E-05
    9    -417.7900189392      1.11E-05
   10    -417.7900238769      2.89E-06
   11    -417.7900242330      3.55E-07
   12    -417.7900242390      1.38E-07
   13    -417.7900242393      8.59E-08
   14    -417.7900242396      2.37E-08
   15    -417.7900242397      1.19E-08
   16    -417.7900242397      2.19E-09 Convergence criterion met
 ---------------------------------------

************** Final PCM Free Energy Summary **************
 G_electrostatic  =      -0.33338650 hartree =    -209.20318936 kcal/mol
 G_cavitation     =       0.00000000 hartree =       0.00000000 kcal/mol
 G_dispersion     =       0.00000000 hartree =       0.00000000 kcal/mol
 G_repulsion      =       0.00000000 hartree =       0.00000000 kcal/mol
 --------------------------------------------------
 Non-electrostatic Free Energy =       0.00000000 hartree =       0.00000000 kcal/mol
 Total                         =      -0.33338650 hartree =    -209.20318936 kcal/mol
 --------------------------------------------------
 SCF Energy (H0 + V/2)                       =    -417.79002424 
 Solute Internal Energy (H0)                 =    -417.45663773 
 Total Free Energy (H0 + V/2 + non-elec)     =    -417.79002424 hartree
                                             = -262167.19709971 kcal/mol
***********************************************************

 SCF time:  CPU 996.78 s  wall 257.84 s
 SCF   energy in the final basis set = -417.79002424
 Total energy in the final basis set = -417.79002424
 
 --------------------------------------------------------------
 
                    Orbital Energies (a.u.)
 --------------------------------------------------------------
 
 Alpha MOs
 -- Occupied --
-19.198 -19.165 -19.128 -19.125 -10.326 -10.272 -10.199  -1.149
 -1.124  -1.029  -0.906  -0.852  -0.708  -0.590  -0.570  -0.542
 -0.516  -0.485  -0.483  -0.461  -0.453  -0.428  -0.381  -0.338
 -0.333  -0.319  -0.287  -0.249
 -- Virtual --
  0.067   0.083   0.086   0.094   0.109   0.114   0.121   0.128
  0.136   0.145   0.159   0.164   0.174   0.180   0.195   0.204
  0.206   0.212   0.231   0.235   0.242   0.256   0.261   0.279
  0.293   0.304   0.310   0.313   0.334   0.344   0.354   0.360
  0.367   0.374   0.392   0.396   0.398   0.400   0.404   0.417
  0.425   0.439   0.452   0.460   0.469   0.481   0.483   0.490
  0.499   0.511   0.513   0.520   0.527   0.543   0.544   0.562
  0.565   0.570   0.584   0.593   0.599   0.605   0.625   0.645
  0.653   0.659   0.665   0.677   0.688   0.704   0.718   0.726
  0.731   0.737   0.745   0.758   0.772   0.781   0.786   0.802
  0.811   0.828   0.834   0.844   0.848   0.857   0.868   0.886
  0.903   0.917   0.924   0.935   0.947   0.975   0.990   1.018
  1.035   1.050   1.062   1.068   1.103   1.112   1.136   1.163
  1.171   1.182   1.212   1.239   1.268   1.278   1.315   1.353
  1.360   1.379   1.386   1.413   1.456   1.475   1.496   1.536
  1.544   1.567   1.650   1.680   1.707   1.741   1.780   1.834
  1.864   1.870   1.896   1.901   1.937   1.940   1.974   1.987
  1.993   2.034   2.039   2.087   2.114   2.135   2.148   2.177
  2.217   2.247   2.269   2.276   2.305   2.342   2.350   2.373
  2.416   2.461   2.484   2.506   2.509   2.574   2.606   2.615
  2.660   2.688   2.741   2.751   2.759   2.860   2.879   2.887
  2.933   2.942   2.949   2.994   3.002   3.045   3.064   3.101
  3.122   3.134   3.149   3.179   3.210   3.282   3.287   3.317
  3.339   3.363   3.386   3.396   3.429   3.459   3.485   3.493
  3.513   3.554   3.571   3.595   3.604   3.620   3.655   3.671
  3.679   3.720   3.736   3.804   3.826   3.884   3.894   4.042
  4.069   4.195   4.251   4.285   4.318   4.350   4.422   4.506
  4.564   4.755   4.785   4.879   4.926   4.948   4.973   5.016
  5.089   5.159   5.179   5.191   5.251   5.343   5.379   5.392
  5.401   5.485   5.516   5.530   5.558   5.637   5.685   5.721
  5.735   5.793   6.004   6.033   6.066   6.197   6.280   6.290
  6.406   6.569   6.592   6.636   6.651   6.664   6.685   6.730
  6.761   6.771   6.852   6.967   6.970   7.012   7.037   7.085
  7.114   7.283   7.300   7.367   7.389   7.402   7.463   8.235
 22.688  22.997  23.649  43.956  44.320  44.409  44.463
 --------------------------------------------------------------
 
          Ground-State Mulliken Net Atomic Charges

     Atom                 Charge (a.u.)
  ----------------------------------------
      1 C                    -0.586943
      2 C                    -0.275213
      3 H                     0.203479
      4 H                     0.234348
      5 H                     0.290673
      6 C                     0.376549
      7 O                    -0.748537
      8 O                    -0.790782
      9 O                    -0.556312
     10 O                    -0.451408
     11 H                     0.304147
  ----------------------------------------
  Sum of atomic charges =    -2.000000

 -----------------------------------------------------------------
                    Cartesian Multipole Moments
 -----------------------------------------------------------------
    Charge (ESU x 10^10)
                -9.6064
    Dipole Moment (Debye)
         X       2.6944      Y       7.8906      Z      -0.9034
       Tot       8.3867
    Quadrupole Moments (Debye-Ang)
        XX     -86.5923     XY      -3.2475     YY     -58.3166
        XZ      15.7431     YZ       4.7798     ZZ     -58.9817
    Octopole Moments (Debye-Ang^2)
       XXX      55.6325    XXY      45.0854    XYY      14.3208
       YYY      61.4200    XXZ      -5.2984    XYZ     -10.2419
       YYZ     -14.5785    XZZ       3.6632    YZZ      25.7390
       ZZZ      -7.2861
    Hexadecapole Moments (Debye-Ang^3)
      XXXX    -933.9783   XXXY     -60.0332   XXYY    -204.1661
      XYYY     -23.7113   YYYY    -333.8160   XXXZ     182.1177
      XXYZ      26.8484   XYYZ      52.9304   YYYZ      52.3640
      XXZZ    -180.9867   XYZZ     -14.4239   YYZZ    -101.4847
      XZZZ     130.0278   YZZZ      55.9109   ZZZZ    -242.9837
 -----------------------------------------------------------------
 Calculating analytic gradient of the SCF energy
 Gradient of SCF Energy
            1           2           3           4           5           6
    1   0.1001727  -0.0412162  -0.0218098  -0.0609832   0.0247102  -0.0369306
    2  -0.0551882   0.0957151  -0.0682309   0.0359863   0.0110287  -0.0563419
    3  -0.0149883  -0.0181452   0.0386296  -0.0624303   0.0958841   0.0180531
            7           8           9          10          11
    1   0.0582920  -0.0313527   0.0077786  -0.0495131   0.0508519
    2   0.0223376   0.0242394   0.0360255  -0.0558390   0.0102674
    3  -0.0089685  -0.0182268  -0.0497487   0.0686335  -0.0486924
 Max gradient component =       1.002E-01
 RMS gradient           =       4.920E-02
 Computing fast CPCM-ISWIG gradient
 Updating gradient with PCM contributions...
 -- total gradient after adding PCM contribution --
---------------------------------------------------
  Atom         X              Y              Z     
---------------------------------------------------
   1      -0.000382      -0.000881       0.000448
   2       0.000248       0.000250      -0.000042
   3       0.000095       0.000493      -0.000187
   4      -0.000073       0.000114      -0.000094
   5      -0.000028      -0.000013       0.000006
   6       0.000039      -0.000034       0.000009
   7       0.000022      -0.000023      -0.000043
   8       0.000002      -0.000010      -0.000028
   9       0.000066       0.000046      -0.000060
  10      -0.000003       0.000044       0.000011
  11       0.000014       0.000014      -0.000019
---------------------------------------------------
 Number of fixed atoms: 0
 Gradient time:  CPU 223.45 s  wall 58.11 s
 ----------------------------------------------------------------
             Standard Nuclear Orientation (Angstroms)
    I     Atom           X                Y                Z
 ----------------------------------------------------------------
    1      C       0.4530277633     1.0068478465    -0.1041540902
    2      C      -0.8585537673     0.5803191725    -0.1333268044
    3      H       0.7087700683     1.9436296757    -0.5964551415
    4      H       1.0700343649     0.7629479129     0.7560676032
    5      H      -1.5673577803     1.0412828313    -0.8184094001
    6      C      -1.3177470019    -0.6007685898     0.6087157303
    7      O      -2.5637187525    -0.8478720106     0.6695133891
    8      O      -0.4393765490    -1.3584173040     1.1608319123
    9      O       1.6497111067    -0.0082764295    -1.2018404475
   10      O       1.8437350305    -1.2331167966    -0.4420982281
   11      H       1.0214755173    -1.2865763084     0.1021554768
 ----------------------------------------------------------------
 Nuclear Repulsion Energy =   289.5028957583 hartrees
 There are       28 alpha and       28 beta electrons
 Discretize the solute cavity surface with Lebedev spheres
	Using 110 Lebedev grid points for each H atom
	Using 110 Lebedev grid points for other atoms
	Atomic van der Waals radii will be scaled by 1.20
 Remove points where switching function is < 1.0e-08
 Keep 679 surface tesserae and discard 531 interior tesserae
 Molecular Surface Area = 136.634 Angst**2

                       Distance Matrix (Angstroms)
             C (  1)   C (  2)   H (  3)   H (  4)   H (  5)   C (  6)
   C (  2)  1.379501
   H (  3)  1.088726  2.128287
   H (  4)  1.086354  2.131626  1.831349
   H (  5)  2.143200  1.088223  2.458506  3.084199
   C (  6)  2.495648  1.468487  3.468886  2.753713  2.189823
   O (  7)  3.624818  2.364714  4.483786  3.975726  2.602990  1.271693
   O (  8)  2.826845  2.368387  3.912776  2.634833  3.308821  1.284678
   O (  9)  1.915057  2.789186  2.249844  2.182708  3.405602  3.526325
   O ( 10)  2.658141  3.268984  3.376935  2.453261  4.117045  3.391024
   H ( 11)  2.371812  2.659936  3.319649  2.151862  3.601170  2.489759
             O (  7)   O (  8)   O (  9)   O ( 10)
   O (  8)  2.239393
   O (  9)  4.686137  3.430654
   O ( 10)  4.561770  2.792433  1.454334
   H ( 11)  3.656224  1.805560  1.931097  0.987512
 
 Requested basis set is def2-TZVPD
 There are 115 shells and 307 basis functions
 A cutoff of  1.0D-14 yielded   6365 shell pairs
 There are     46001 function pairs (     59435 Cartesian)
 Smallest overlap matrix eigenvalue = 4.83E-06
 Guess MOs from SCF MO coefficient file
 Reading MOs from coefficient file
 Reading MOs from coefficient file
 Long-range K will be added via erf
 Coulomb attenuation parameter = 0.3 bohr**(-1)
 A restricted hybrid HF-DFT SCF calculation will be
 performed using Pulay DIIS extrapolation
 Polarizable Continuum solvation model will be applied
 Exchange:     0.1670 Hartree-Fock + 1.0000 wB97X-V + LR-HF
 Correlation:  1.0000 wB97X-V
 Using SG-2 standard quadrature grid
 Nonlocal Correlation:  VV10 with C = 0.0100 and b = 6.00
 Grid used for NLC:  SG-1 standard quadrature
 SCF converges when DIIS error is below 1.0E-08
Using Q-Chem read-in guess as SCF_GUESS READ specified.

 using 4 threads for integral computing
 -------------------------------------------------------
 OpenMP Integral computing Module                
 Release: version 1.0, May 2013, Q-Chem Inc. Pittsburgh 
 -------------------------------------------------------
 using 4 threads for integral computing
 -------------------------------------------------------
 OpenMP Integral computing Module                
 Release: version 1.0, May 2013, Q-Chem Inc. Pittsburgh 
 -------------------------------------------------------
 -------------------------------------------------------
 OpenMP BLAS3 based DFT computing Module                
 Release: version 1.0, May 2013, Q-Chem Inc. Pittsburgh 
 -------------------------------------------------------
 -------------------------------------------------------
 OpenMP BLAS3 based DFT computing Module                
 Release: version 1.0, May 2013, Q-Chem Inc. Pittsburgh 
 -------------------------------------------------------
 -------------------------------------------------------
 OpenMP BLAS3 based DFT computing Module                
 Release: version 1.0, May 2013, Q-Chem Inc. Pittsburgh 
 -------------------------------------------------------
 ---------------------------------------
  Cycle       Energy         DIIS Error
 ---------------------------------------
    1    -417.4570783263      4.28E-04
    2    -417.7840115153      4.77E-04
    3    -417.7882988999      2.13E-04
    4    -417.7890182771      1.56E-04
    5    -417.7894139098      1.21E-04
    6    -417.7896583866      9.31E-05
    7    -417.7898409625      6.57E-05
    8    -417.7899495134      4.19E-05
    9    -417.7900085082      1.93E-05
   10    -417.7900223065      6.87E-06
   11    -417.7900242195      1.42E-06
   12    -417.7900243001      3.54E-07
   13    -417.7900243052      5.78E-08
   14    -417.7900243053      1.59E-08
   15    -417.7900243054      1.07E-08
   16    -417.7900243054      2.40E-09 Convergence criterion met
 ---------------------------------------

************** Final PCM Free Energy Summary **************
 G_electrostatic  =      -0.33340132 hartree =    -209.21248552 kcal/mol
 G_cavitation     =       0.00000000 hartree =       0.00000000 kcal/mol
 G_dispersion     =       0.00000000 hartree =       0.00000000 kcal/mol
 G_repulsion      =       0.00000000 hartree =       0.00000000 kcal/mol
 --------------------------------------------------
 Non-electrostatic Free Energy =       0.00000000 hartree =       0.00000000 kcal/mol
 Total                         =      -0.33340132 hartree =    -209.21248552 kcal/mol
 --------------------------------------------------
 SCF Energy (H0 + V/2)                       =    -417.79002431 
 Solute Internal Energy (H0)                 =    -417.45662299 
 Total Free Energy (H0 + V/2 + non-elec)     =    -417.79002431 hartree
                                             = -262167.19714093 kcal/mol
***********************************************************

 SCF time:  CPU 1004.07 s  wall 259.84 s
 SCF   energy in the final basis set = -417.79002431
 Total energy in the final basis set = -417.79002431
 
 --------------------------------------------------------------
 
                    Orbital Energies (a.u.)
 --------------------------------------------------------------
 
 Alpha MOs
 -- Occupied --
-19.198 -19.165 -19.128 -19.125 -10.326 -10.272 -10.199  -1.149
 -1.124  -1.029  -0.906  -0.851  -0.708  -0.590  -0.570  -0.543
 -0.516  -0.485  -0.483  -0.461  -0.453  -0.428  -0.381  -0.338
 -0.334  -0.319  -0.287  -0.249
 -- Virtual --
  0.067   0.083   0.086   0.094   0.109   0.114   0.121   0.128
  0.136   0.145   0.159   0.164   0.174   0.180   0.195   0.204
  0.206   0.212   0.231   0.235   0.242   0.256   0.261   0.279
  0.293   0.304   0.310   0.313   0.334   0.344   0.354   0.360
  0.367   0.374   0.392   0.396   0.398   0.400   0.404   0.417
  0.425   0.439   0.452   0.460   0.469   0.481   0.483   0.490
  0.499   0.511   0.513   0.520   0.527   0.543   0.544   0.562
  0.565   0.570   0.584   0.593   0.599   0.605   0.625   0.645
  0.653   0.659   0.665   0.677   0.688   0.704   0.718   0.726
  0.731   0.737   0.745   0.758   0.772   0.781   0.786   0.802
  0.811   0.828   0.834   0.844   0.848   0.857   0.868   0.886
  0.903   0.917   0.924   0.935   0.947   0.975   0.990   1.017
  1.035   1.050   1.062   1.068   1.103   1.112   1.136   1.163
  1.170   1.182   1.212   1.239   1.268   1.278   1.315   1.353
  1.360   1.379   1.386   1.413   1.456   1.475   1.496   1.535
  1.544   1.567   1.650   1.680   1.707   1.741   1.780   1.834
  1.864   1.870   1.895   1.901   1.937   1.940   1.974   1.987
  1.992   2.034   2.039   2.086   2.114   2.135   2.148   2.177
  2.217   2.247   2.269   2.276   2.305   2.342   2.350   2.372
  2.416   2.461   2.484   2.506   2.508   2.574   2.606   2.615
[...]
    11    1.883393218376075e-01   4.127908952707735e-03  -1.290305095597352e-01


    11 Order 1, Length 33
    Atom      X          Y          Z
     1    1.197373330458108e-02  -1.387274155722992e-03  -5.548494580606623e-03
     2   -4.554105609645058e-03  -5.513061309090853e-03  -1.038795476392364e-04
     3   -7.616865113755368e-04   8.564214184325214e-04   7.679030345321547e-04
     4    6.749681702137610e-06   2.395227094251477e-04   4.409659931110284e-05
     5   -1.633753079510155e-04  -5.396560751010509e-04   6.280060475778588e-04
     6   -1.860555535382466e-02   1.407931987987865e-02  -1.058001139267964e-02
     7    8.851659499116024e-03  -6.382116646757801e-04   3.149851587726833e-03
     8    1.455857232223158e-02  -9.251710032381965e-03  -5.572810033856076e-03
     9    3.866774331730076e-03   1.018961680030109e-02  -4.955174076621052e-03
    10   -3.093919956847294e-01  -7.748213147861838e-03   1.883393218376075e-01
    11    2.941119854865624e-01  -2.821186200457646e-04  -1.661607607417720e-01

Order 1, Length 33
    Atom      X          Y          Z
     1    4.398668844978448e-03  -3.462793020429073e-03   1.271972818417330e-05
     2   -1.976511236627793e-03  -1.308966956028788e-03   9.536606187400306e-04
     3   -5.387830276316481e-04   6.592888750228521e-04  -1.269544914664566e-04
     4   -4.855202402098854e-04  -1.040898914901970e-03  -1.269061757706288e-03
     5   -3.903469490997536e-04   1.417451910285266e-04  -2.578218776423854e-05
     6    2.660415230208436e-03   3.327318043832650e-03  -4.101038485663904e-03
     7   -4.860913749799526e-04  -5.731098053744258e-04   8.839052324181203e-04
     8   -1.766012053611118e-04  -9.275062655186425e-03   2.424947660263752e-03
     9   -2.714586778209401e-02  -1.735617701063638e-02   2.900321650744461e-02
    10    2.440708497423971e-02  -3.537116239758416e-02   4.127908952707735e-03
    11   -2.821186200457646e-04   6.426156456082141e-02  -3.188005435255473e-02

Order 1, Length 33
    Atom      X          Y          Z
     1   -4.353578951646756e-03   2.234783549558259e-03   5.238276646997136e-03
     2    2.269805661545009e-03   2.480604922046582e-03  -1.492250018339802e-03
     3    4.751470926175436e-04  -5.894187322127186e-04  -8.632337401939685e-04
     4   -2.405096693248351e-04  -3.950497712271550e-04  -3.854584294597350e-04
     5    2.118157568175215e-04   1.636437355189139e-04  -5.935332192236371e-04
     6    7.818420696396983e-03  -1.037433415203900e-02   9.206919328076791e-03
     7   -6.056511771047929e-03   1.372448401128049e-03  -2.492429844030046e-03
     8   -1.362302849889389e-02   6.688887236178380e-03  -3.049539288412267e-03
     9    1.494154468158417e-02   3.470604828518927e-03  -1.571111685763832e-02
    10    1.648292641322525e-01   2.682490735248636e-02  -1.290305095597352e-01
    11   -1.661607607417720e-01  -3.188005435255473e-02   1.391711245551450e-01




 # Finishing finite difference calculation for IDERIV #
 ######################################################
 ######################################################
 Requested basis set is def2-TZVPD
 There are 115 shells and 307 basis functions
 **********************************************************************
 **                                                                  **
 **                       VIBRATIONAL ANALYSIS                       **
 **                       --------------------                       **
 **                                                                  **
 **        VIBRATIONAL FREQUENCIES (CM**-1) AND NORMAL MODES         **
 **     FORCE CONSTANTS (mDYN/ANGSTROM) AND REDUCED MASSES (AMU)     **
 **                  INFRARED INTENSITIES (KM/MOL)                   **
 **                                                                  **
 **********************************************************************
 

 Mode:                 1                      2                      3
 Frequency:      -396.13                  58.92                  97.02
 Force Cnst:      1.0412                 0.0228                 0.0597
 Red. Mass:      11.2613                11.1263                10.7626
 IR Active:          YES                    YES                    YES
 IR Intens:     1140.905                  1.260                  5.229
 Raman Active:       YES                    YES                    YES
               X      Y      Z        X      Y      Z        X      Y      Z
 C         -0.427  0.368  0.336    0.003  0.016  0.025   -0.089 -0.075 -0.118
 C         -0.086  0.080  0.042    0.056 -0.138 -0.120   -0.034 -0.245 -0.290
 H         -0.210  0.170  0.116   -0.022  0.009  0.000   -0.147 -0.053 -0.108
 H         -0.101 -0.166 -0.086   -0.101  0.138  0.134   -0.222  0.074  0.021
 H         -0.135 -0.045  0.012    0.111 -0.299 -0.285   -0.034 -0.289 -0.319
 C         -0.052 -0.060  0.079    0.030 -0.023  0.050   -0.080 -0.058 -0.020
 O         -0.020  0.007 -0.006    0.042 -0.123 -0.136   -0.120  0.247  0.428
 O         -0.043  0.019  0.015    0.000  0.187  0.380   -0.076 -0.184 -0.202
 O          0.406 -0.219 -0.333    0.269  0.229  0.152    0.328  0.198  0.162
 O          0.102 -0.105 -0.016   -0.363 -0.181 -0.344    0.049  0.038 -0.032
 H          0.096  0.163 -0.079   -0.227  0.129 -0.122   -0.031  0.033 -0.144
 TransDip  -0.970  0.109  0.467   -0.027  0.018 -0.015   -0.040 -0.029 -0.054

 Mode:                 4                      5                      6
 Frequency:       182.65                 260.73                 366.61
 Force Cnst:      0.1968                 0.2604                 0.2310
 Red. Mass:      10.0128                 6.5010                 2.9171
 IR Active:          YES                    YES                    YES
 IR Intens:       62.643                 21.046                 37.456
 Raman Active:       YES                    YES                    YES
               X      Y      Z        X      Y      Z        X      Y      Z
 C          0.104 -0.196  0.015   -0.083 -0.130  0.096    0.023 -0.136  0.194
 C          0.082 -0.155  0.041   -0.173  0.104 -0.060    0.040 -0.093 -0.165
 H          0.070 -0.127  0.128    0.153 -0.123  0.229    0.216  0.016  0.592
 H          0.123 -0.271 -0.016   -0.302 -0.276  0.211   -0.123 -0.585  0.167
 H          0.110 -0.075  0.064   -0.097  0.195 -0.075    0.085  0.118 -0.064
 C         -0.110 -0.040  0.104   -0.092  0.103 -0.050    0.005 -0.013 -0.085
 O         -0.169  0.123 -0.106   -0.055 -0.092  0.072    0.013  0.005  0.047
 O         -0.294 -0.056  0.356    0.077  0.273 -0.080    0.052  0.103 -0.003
 O         -0.021  0.086 -0.192   -0.054 -0.008  0.183   -0.028 -0.010 -0.114
 O          0.382  0.175 -0.173    0.284 -0.198 -0.184   -0.091  0.102  0.068
 H          0.391 -0.088 -0.250    0.385 -0.318 -0.052   -0.126  0.146  0.026
 TransDip   0.229 -0.070 -0.084    0.122 -0.074 -0.036   -0.148  0.032  0.125

 Mode:                 7                      8                      9
 Frequency:       398.69                 553.07                 649.18
 Force Cnst:      0.4472                 0.5949                 0.4956
 Red. Mass:       4.7748                 3.3010                 1.9958
 IR Active:          YES                    YES                    YES
 IR Intens:        7.742                 19.215                 46.182
 Raman Active:       YES                    YES                    YES
               X      Y      Z        X      Y      Z        X      Y      Z
 C          0.112 -0.206 -0.165   -0.166 -0.156 -0.080    0.018  0.104 -0.050
 C         -0.067  0.131  0.173   -0.164 -0.020  0.040    0.020  0.049 -0.139
 H          0.111 -0.160 -0.080   -0.094 -0.058  0.149    0.038  0.248  0.227
 H          0.196 -0.308 -0.255   -0.197 -0.422 -0.136    0.019 -0.142 -0.121
 H         -0.125  0.443  0.438   -0.465  0.215  0.524   -0.243  0.629  0.529
 C         -0.128  0.046  0.042    0.113 -0.013  0.032    0.035 -0.001 -0.080
 O         -0.094 -0.179  0.049    0.086  0.188 -0.127    0.061 -0.067  0.065
 O         -0.029  0.092 -0.060    0.104 -0.055  0.049   -0.107 -0.052  0.073
 O          0.249  0.025 -0.084    0.031  0.027  0.036   -0.012 -0.002  0.030
 O         -0.067  0.073  0.053   -0.013 -0.005  0.008    0.018 -0.029  0.002
 H         -0.140  0.204 -0.033    0.039  0.037  0.097   -0.047 -0.155 -0.110
 TransDip   0.062  0.016 -0.062   -0.124  0.023  0.061    0.054  0.209 -0.027

 Mode:                10                     11                     12
 Frequency:       664.43                 686.21                 825.58
 Force Cnst:      0.5163                 0.3113                 3.5169
 Red. Mass:       1.9849                 1.1222                 8.7578
 IR Active:          YES                    YES                    YES
 IR Intens:       72.883                 97.593                109.801
 Raman Active:       YES                    YES                    YES
               X      Y      Z        X      Y      Z        X      Y      Z
 C         -0.017 -0.045 -0.025    0.007 -0.006 -0.011   -0.024  0.009  0.037
 C         -0.084  0.175 -0.024   -0.010  0.048 -0.016    0.101 -0.202 -0.235
 H          0.354 -0.096  0.078    0.103 -0.004  0.045    0.112 -0.054 -0.002
 H         -0.274 -0.289  0.088   -0.054 -0.060  0.022   -0.175  0.002  0.146
 H          0.070 -0.373 -0.556    0.020 -0.023 -0.095   -0.213  0.203  0.380
 C          0.055  0.069  0.036    0.008  0.004 -0.015   -0.040  0.429  0.562
 O          0.105 -0.037  0.017    0.018 -0.014  0.017    0.040 -0.124 -0.131
 O         -0.078 -0.085  0.032   -0.041 -0.038  0.005   -0.035 -0.070 -0.170
 O          0.015  0.002 -0.006   -0.004  0.012 -0.010   -0.020 -0.004 -0.003
 O         -0.004  0.031  0.010   -0.009 -0.021 -0.024    0.001  0.004 -0.006
 H         -0.187 -0.189 -0.300    0.442  0.491  0.725    0.056  0.100  0.093
 TransDip  -0.002 -0.178 -0.208    0.132  0.181  0.224   -0.075  0.230  0.232

 Mode:                13                     14                     15
 Frequency:       896.25                 956.18                1016.89
 Force Cnst:      1.4112                 4.1465                 1.1394
 Red. Mass:       2.9817                 7.6976                 1.8702
 IR Active:          YES                    YES                    YES
 IR Intens:       21.302                  6.226                 62.368
 Raman Active:       YES                    YES                    YES
               X      Y      Z        X      Y      Z        X      Y      Z
 C         -0.078 -0.142  0.115   -0.009 -0.025 -0.046   -0.005  0.051 -0.092
 C         -0.008 -0.071  0.054    0.025 -0.064  0.080    0.043 -0.100  0.115
 H         -0.502 -0.338 -0.467   -0.329  0.277  0.352   -0.156  0.426  0.535
 H          0.193  0.421  0.076    0.129 -0.172 -0.202    0.003 -0.344 -0.214
 H          0.101  0.144  0.104    0.063 -0.305 -0.118   -0.126 -0.507  0.017
 C          0.062  0.108 -0.117    0.014  0.057 -0.010    0.018  0.033 -0.016
 O          0.197 -0.012  0.034    0.062 -0.010  0.007    0.049 -0.008  0.009
 O         -0.169  0.056 -0.035   -0.071  0.046 -0.038   -0.082  0.074 -0.055
 O          0.011 -0.020 -0.002   -0.060  0.391 -0.233    0.008 -0.070  0.060
 O         -0.008  0.038 -0.018    0.065 -0.382  0.245   -0.002  0.044 -0.041
 H          0.002  0.038 -0.008   -0.134 -0.157  0.003    0.049 -0.008  0.031
 TransDip  -0.057  0.129 -0.045    0.010  0.056 -0.056    0.233 -0.083 -0.053

 Mode:                16                     17                     18
 Frequency:      1106.96                1123.36                1259.75
 Force Cnst:      0.8878                 0.8898                 1.3003
 Red. Mass:       1.2297                 1.1968                 1.3906
 IR Active:          YES                    YES                    YES
 IR Intens:       12.497                299.390                121.587
 Raman Active:       YES                    YES                    YES
               X      Y      Z        X      Y      Z        X      Y      Z
 C         -0.008  0.061  0.005    0.077 -0.020 -0.017    0.087 -0.002  0.089
 C          0.037 -0.059  0.038   -0.055 -0.009  0.016   -0.105  0.019 -0.069
 H          0.657 -0.329 -0.367   -0.031  0.169  0.274    0.018 -0.018 -0.002
 H         -0.210 -0.148  0.097   -0.430  0.537  0.530    0.626  0.098 -0.273
 H         -0.311 -0.218  0.295   -0.281 -0.131  0.164   -0.543 -0.432  0.074
 C          0.013 -0.037 -0.029    0.013  0.026 -0.032    0.015  0.038 -0.016
 O          0.013  0.002  0.009   -0.009 -0.001  0.002   -0.019 -0.003 -0.000
 O         -0.040  0.046 -0.024    0.002 -0.007  0.008    0.010 -0.016  0.010
 O         -0.013  0.027 -0.006    0.026 -0.022 -0.050    0.005 -0.000  0.000
 O          0.000 -0.008  0.010    0.004 -0.007  0.005   -0.000  0.000 -0.001
 H         -0.012  0.022 -0.017   -0.027  0.035 -0.025    0.010 -0.015  0.024
 TransDip  -0.029 -0.040  0.102    0.491  0.198 -0.165    0.305  0.091 -0.152

 Mode:                19                     20                     21
 Frequency:      1349.73                1406.07                1482.43
 Force Cnst:      2.7695                 3.0783                 5.2249
 Red. Mass:       2.5802                 2.6427                 4.0353
 IR Active:          YES                    YES                    YES
 IR Intens:      245.957                464.660                908.367
 Raman Active:       YES                    YES                    YES
               X      Y      Z        X      Y      Z        X      Y      Z
 C         -0.037 -0.002  0.021   -0.039  0.057 -0.024   -0.131 -0.067 -0.018
 C          0.137  0.037  0.020   -0.123 -0.170  0.094    0.026  0.013  0.004
 H         -0.494 -0.090 -0.338    0.657  0.001  0.222    0.412 -0.035  0.334
 H         -0.325 -0.451  0.076    0.218  0.189 -0.169    0.248  0.465 -0.140
 H         -0.190 -0.303  0.155    0.399  0.261 -0.142    0.192  0.131 -0.045
 C          0.068  0.210 -0.146   -0.068  0.211 -0.139    0.417 -0.011  0.041
 O         -0.136 -0.050  0.025    0.004 -0.012  0.009   -0.206 -0.042  0.011
 O          0.071 -0.081  0.060    0.071 -0.082  0.059   -0.079  0.055 -0.043
 O          0.006  0.004 -0.004    0.017 -0.005 -0.012    0.010  0.006 -0.008
 O         -0.008  0.007 -0.001   -0.001  0.004 -0.002   -0.020  0.013  0.005
 H          0.046 -0.167  0.090    0.013 -0.113  0.062    0.112 -0.292  0.106
 TransDip   0.116  0.419 -0.252    0.100  0.549 -0.406    0.956 -0.048  0.125

 Mode:                22                     23                     24
 Frequency:      1493.27                1544.03                3123.24
 Force Cnst:      1.4805                 3.8732                 6.0809
 Red. Mass:       1.1269                 2.7575                 1.0581
 IR Active:          YES                    YES                    YES
 IR Intens:      131.408                851.465                 82.374
 Raman Active:       YES                    YES                    YES
               X      Y      Z        X      Y      Z        X      Y      Z
 C         -0.027 -0.011 -0.005   -0.198 -0.122 -0.030   -0.051 -0.039 -0.016
 C          0.017  0.003  0.004    0.234  0.119 -0.026   -0.007  0.009 -0.010
 H          0.035 -0.001  0.053    0.328 -0.046  0.417    0.165  0.607 -0.328
 H          0.049  0.023 -0.050    0.215  0.550 -0.155    0.382 -0.163  0.526
 H          0.010 -0.016  0.010   -0.224 -0.287  0.192    0.133 -0.090  0.127
 C          0.036  0.027 -0.019   -0.164  0.004 -0.029   -0.001  0.001 -0.001
 O         -0.026 -0.008  0.004    0.044  0.000  0.005   -0.000 -0.000  0.000
 O          0.004 -0.013  0.009    0.042 -0.023  0.022    0.001 -0.000  0.000
 O         -0.025 -0.014  0.028   -0.007  0.008  0.007    0.001 -0.000 -0.001
 O          0.039 -0.033 -0.001   -0.005  0.009 -0.001   -0.000  0.000  0.000
 H         -0.273  0.853 -0.423    0.020 -0.124  0.040   -0.001 -0.002 -0.000
 TransDip   0.067  0.326 -0.155   -0.915 -0.030  0.189   -0.243 -0.151 -0.054

 Mode:                25                     26                     27
 Frequency:      3156.67                3205.51                3353.15
 Force Cnst:      6.3981                 6.7559                 7.1166
 Red. Mass:       1.0898                 1.1159                 1.0743
 IR Active:          YES                    YES                    YES
 IR Intens:       34.092                 43.370                817.228
 Raman Active:       YES                    YES                    YES
               X      Y      Z        X      Y      Z        X      Y      Z
 C          0.017 -0.001  0.015    0.019 -0.064  0.072    0.003 -0.000 -0.002
 C         -0.055  0.035 -0.051    0.010 -0.006  0.009   -0.002 -0.001 -0.000
 H         -0.010 -0.033  0.017    0.171  0.596 -0.319   -0.003 -0.001  0.005
 H         -0.148  0.059 -0.200   -0.403  0.159 -0.539    0.001  0.000  0.002
 H          0.628 -0.410  0.603   -0.104  0.069 -0.098    0.007 -0.007  0.010
 C         -0.003 -0.003  0.001    0.001  0.000 -0.000   -0.005  0.004 -0.003
 O          0.001  0.000 -0.000   -0.000 -0.000  0.000    0.002 -0.000  0.001
 O          0.000  0.000 -0.000   -0.000 -0.000 -0.000    0.004 -0.002 -0.000
 O         -0.000 -0.000 -0.000   -0.000 -0.000 -0.000   -0.001  0.002  0.000
 O          0.001  0.000 -0.001   -0.000  0.000  0.000   -0.055 -0.004  0.036
 H         -0.010 -0.001  0.007    0.006  0.005 -0.003    0.841  0.043 -0.536
 TransDip  -0.098  0.111 -0.114    0.051 -0.113  0.171    0.752  0.091 -0.514

 STANDARD THERMODYNAMIC QUANTITIES AT   298.15 K  AND     1.00 ATM

   This Molecule has  1 Imaginary Frequencies
   Zero point vibrational energy:       44.626 kcal/mol

   Atom    1 Element C  Has Mass   12.00000
   Atom    2 Element C  Has Mass   12.00000
   Atom    3 Element H  Has Mass    1.00783
   Atom    4 Element H  Has Mass    1.00783
   Atom    5 Element H  Has Mass    1.00783
   Atom    6 Element C  Has Mass   12.00000
   Atom    7 Element O  Has Mass   15.99491
   Atom    8 Element O  Has Mass   15.99491
   Atom    9 Element O  Has Mass   15.99491
   Atom   10 Element O  Has Mass   15.99491
   Atom   11 Element H  Has Mass    1.00783
   Molecular Mass:   104.010960 amu
   Principal axes and moments of inertia in amu*Bohr^2:
                             1           2           3
    Eigenvalues --      359.69547  1054.94934  1299.90768
          X               0.91852    -0.24053     0.31380
          Y               0.10982     0.91764     0.38193
          Z              -0.37982    -0.31635     0.86929
   Rotational Symmetry Number is   1
   The Molecule is an Asymmetric Top
   Translational Enthalpy:        0.889 kcal/mol
   Rotational Enthalpy:           0.889 kcal/mol
   Vibrational Enthalpy:         47.221 kcal/mol
   gas constant (RT):             0.592 kcal/mol
   Translational Entropy:        39.835  cal/mol.K
   Rotational Entropy:           27.691  cal/mol.K
   Vibrational Entropy:          16.362  cal/mol.K

   Total Enthalpy:               49.591 kcal/mol
   Total Entropy:                83.888  cal/mol.K
Archival summary:
1\1\c6-89\FREQ\ProcedureUnspecified\BasisUnspecified\434(2-,1)\alotsuki\TueApr1706:00:082018TueApr1706:00:082018\0\\#,FREQ,ProcedureUnspecified,BasisUnspecified,\\-2,1\O\C,1,1.28468\O,2,1.27169,1,122.327\C,2,1.46849,1,118.535,3,-179.116,0\H,4,1.08822,2,117.073,1,163.056,0\C,4,1.37948,2,122.389,1,-9.15807,0\H,6,1.08715,4,119.106,2,-25.8748,0\H,6,1.08827,4,118.709,2,-174.04,0\H,1,1.80556,2,106.125,3,146.892,0\O,9,0.987512,1,177.437,2,122.47,0\O,10,1.45433,9,102.851,1,-102.822,0\\\@

 Total job time:  21410.47s(wall), 82687.39s(cpu) 
 Tue Apr 17 06:00:08 2018

        *************************************************************
        *                                                           *
        *  Thank you very much for using Q-Chem.  Have a nice day.  *
        *                                                           *
        *************************************************************


