11   
From 2-transition-freq.out: Frame 1 / 67, Energy=    -417.7900250676
C        0.4530277633    1.0068478465   -0.1051540902
C       -0.8585537673    0.5803191725   -0.1333268044
H        0.7087700683    1.9436296757   -0.5964551415
H        1.0700343649    0.7629479129    0.7560676032
H       -1.5673577803    1.0412828313   -0.8184094001
C       -1.3177470019   -0.6007685898    0.6087157303
O       -2.5637187525   -0.8478720106    0.6695133891
O       -0.4393765490   -1.3584173040    1.1608319123
O        1.6497111067   -0.0082764295   -1.2018404475
O        1.8437350305   -1.2331167966   -0.4420982281
H        1.0214755173   -1.2865763084    0.1021554768
