
Running Job 1 of 1 qc-freq2.in
qchem qc-freq2.in_18002.0 /scratch/leeping/1862745/qc-freq2.d/ 1
/home/leeping/opt/qchem/5.0.2-openmp/exe/qcprog.exe_s qc-freq2.in_18002.0 /scratch/leeping/1862745/qc-freq2.d/
Check license passed

                  Welcome to Q-Chem
     A Quantum Leap Into The Future Of Chemistry


 Q-Chem 5.0, Q-Chem, Inc., Pleasanton, CA (2017)

 Yihan Shao,  Zhengting Gan,  E. Epifanovsky,  A. T. B. Gilbert,  M. Wormit,  
 J. Kussmann,  A. W. Lange,  A. Behn,  Jia Deng,  Xintian Feng,  D. Ghosh,  
 M. Goldey,  P. R. Horn,  L. D. Jacobson,  I. Kaliman,  T. Kus,  A. Landau,  
 Jie Liu,  E. I. Proynov,  R. M. Richard,  R. P. Steele,  E. J. Sundstrom,  
 H. L. Woodcock III,  P. M. Zimmerman,  D. Zuev,  B. Albrecht,  E. Alguire,  
 S. A. Baeppler,  D. Barton,  Z. Benda,  Y. A. Bernard,  E. J. Berquist,  
 K. B. Bravaya,  H. Burton,  D. Casanova,  Chun-Min Chang,  Yunqing Chen,  
 A. Chien,  K. D. Closser,  M. P. Coons,  S. Dasgupta,  A. L. Dempwolff,  
 M. Diedenhofen,  Hainam Do,  R. G. Edgar,  Po-Tung Fang,  S. Fatehi,  
 Qingguo Feng,  J. Fosso-Tande,  Qinghui Ge,  A. Ghysels,  G. Gidofalvi,  
 J. Gomes,  J. Gonthier,  A. Gunina,  M. W. D. Hanson-Heine,  
 P. H. P. Harbach,  A. W. Hauser,  J. E. Herr,  E. G. Hohenstein,  
 Z. C. Holden,  Kerwin Hui,  T.-C. Jagau,  Hyunjun Ji,  B. Kaduk,  
 K. Khistyaev,  Jaehoon Kim,  P. Klunzinger,  K. Koh,  D. Kosenkov,  
 L. Koulias,  T. Kowalczyk,  C. M. Krauter,  A. Kunitsa,  Ka Un Lao,  
 A. Laurent,  K. V. Lawler,  Joonho Lee,  D. Lefrancois,  S. Lehtola,  
 D. S. Levine,  Yi-Pei Li,  You-Sheng Lin,  Fenglai Liu,  E. Livshits,  
 A. Luenser,  P. Manohar,  E. Mansoor,  S. F. Manzer,  Shan-Ping Mao,  
 Yuezhi Mao,  N. Mardirossian,  A. V. Marenich,  T. Markovich,  
 L. A. Martinez-Martinez,  S. A. Maurer,  N. J. Mayhall,  S. C. McKenzie,  
 J.-M. Mewes,  A. F. Morrison,  J. W. Mullinax,  K. Nanda,  
 T. S. Nguyen-Beck,  R. Olivares-Amaya,  J. A. Parkhill,  T. M. Perrine,  
 F. Plasser,  S. Prager,  A. Prociuk,  E. Ramos,  D. R. Rehn,  F. Rob,  
 M. Schneider,  N. Sergueev,  S. M. Sharada,  S. Sharma,  D. W. Small,  
 T. Stauch,  T. Stein,  Yu-Chuan Su,  A. J. W. Thom,  A. Tkatchenko,  
 T. Tsuchimochi,  L. Vogt,  O. Vydrov,  M. A. Watson,  J. Wenzel,  
 M. de Wergifosse,  T. A. Wesolowski,  A. White,  J. Witte,  A. Yamada,  
 Jun Yang,  K. Yao,  S. Yeganeh,  S. R. Yost,  Zhi-Qiang You,  A. Zech,  
 Igor Ying Zhang,  Xing Zhang,  Yan Zhao,  Ying Zhu,  B. R. Brooks,  
 G. K. L. Chan,  C. J. Cramer,  M. S. Gordon,  W. J. Hehre,  A. Klamt,  
 M. W. Schmidt,  C. D. Sherrill,  D. G. Truhlar,  A. Aspuru-Guzik,  R. Baer,  
 A. T. Bell,  N. A. Besley,  Jeng-Da Chai,  R. A. DiStasio Jr.,  A. Dreuw,  
 B. D. Dunietz,  T. R. Furlani,  Chao-Ping Hsu,  Yousung Jung,  Jing Kong,  
 D. S. Lambrecht,  WanZhen Liang,  C. Ochsenfeld,  V. A. Rassolov,  
 L. V. Slipchenko,  J. E. Subotnik,  T. Van Voorhis,  J. M. Herbert,  
 A. I. Krylov,  P. M. W. Gill,  M. Head-Gordon

 Contributors to earlier versions of Q-Chem not listed above: 
 R. D. Adamson,  B. Austin,  J. Baker,  G. J. O. Beran,  K. Brandhorst,  
 S. T. Brown,  E. F. C. Byrd,  A. K. Chakraborty,  C.-L. Cheng,  
 Siu Hung Chien,  D. M. Chipman,  D. L. Crittenden,  H. Dachsel,  
 R. J. Doerksen,  A. D. Dutoi,  L. Fusti-Molnar,  W. A. Goddard III,  
 A. Golubeva-Zadorozhnaya,  S. R. Gwaltney,  G. Hawkins,  A. Heyden,  
 S. Hirata,  G. Kedziora,  F. J. Keil,  C. Kelley,  Jihan Kim,  R. A. King,  
 R. Z. Khaliullin,  P. P. Korambath,  W. Kurlancheek,  A. M. Lee,  M. S. Lee,  
 S. V. Levchenko,  Ching Yeh Lin,  D. Liotard,  R. C. Lochan,  I. Lotan,  
 P. E. Maslen,  N. Nair,  D. P. O'Neill,  D. Neuhauser,  E. Neuscamman,  
 C. M. Oana,  R. Olson,  B. Peters,  R. Peverati,  P. A. Pieniazek,  
 Y. M. Rhee,  J. Ritchie,  M. A. Rohrdanz,  E. Rosta,  N. J. Russ,  
 H. F. Schaefer III,  N. E. Schultz,  N. Shenvi,  A. C. Simmonett,  A. Sodt,  
 D. Stuck,  K. S. Thanthiriwatte,  V. Vanovschi,  Tao Wang,  A. Warshel,  
 C. F. Williams,  Q. Wu,  X. Xu,  W. Zhang

 Please cite Q-Chem as follows:
 Y. Shao et al., Mol. Phys. 113, 184-215 (2015)
 DOI: 10.1080/00268976.2014.952696

 Q-Chem 5.0.2 for Intel X86 EM64T Linux

 Parts of Q-Chem use Armadillo 5.200.1 (Boston Tea Smuggler).
 http://arma.sourceforge.net/

 Q-Chem begins on Fri Mar 20 21:37:10 2020  

Host: 
0

     Scratch files written to /scratch/leeping/1862745/qc-freq2.d//
 Dec517 15110_ 26548  26544 5633   
Processing $rem in /home/leeping/opt/qchem/5.0.2-openmp/config/preferences.
 MEM_STATIC 2000
 MEM_TOTAL  8000
 SYMMETRY   OFF
 SYM_IGNORE TRUE 
Symmetry turned off for PCM/SM12/SMD calculation

Checking the input file for inconsistencies... 	...done.

--------------------------------------------------------------
User input:
--------------------------------------------------------------
$molecule
-2 1
C        0.5666024865    0.8900004389   -0.3583157791
C       -0.8355972628    0.5244283024   -0.0686954089
H        0.6278829333    1.8530259529   -0.8786560973
H        1.2044600094    0.9411939556    0.5384487943
H       -1.6327781502    1.0653968478   -0.5751473525
C       -1.1722808678   -0.5821744546    0.7456869715
O       -2.3893429964   -0.8731436534    1.0522543753
O       -0.1949958394   -1.3487470644    1.1960988742
O        1.3069540668    0.0023983392   -1.2723717280
O        1.6380245617   -1.1986257130   -0.5467673913
H        0.8834729656   -1.2788278258    0.1670543139
$end

$rem
jobtype               freq
method                wb97x-v
basis                 def2-tzvpd
symmetry              off
sym_ignore            true
incdft                false
incfock               0
!scf_algorithm        diis_gdm
scf_convergence       8
thresh                14
!purecart             112
max_scf_cycles        1000
geom_opt_max_cycles   500
geom_opt_dmax         100
geom_opt_tol_gradient 10
solvent_method        pcm
ideriv                1
rpath_tol_displacement 1000
rpath_max_cycles      100
rpath_direction       1
!scf_guess            read
scf_guess             read
$end

$pcm
theory              cosmo
method              iswig
Radii               bondi
vdwScale            1.20
hpoints             110
heavypoints         110
$end

$solvent
dielectric 78.400000
$end

--------------------------------------------------------------
 ----------------------------------------------------------------
             Standard Nuclear Orientation (Angstroms)
    I     Atom           X                Y                Z
 ----------------------------------------------------------------
    1      C       0.5666024865     0.8900004389    -0.3583157791
    2      C      -0.8355972628     0.5244283024    -0.0686954089
    3      H       0.6278829333     1.8530259529    -0.8786560973
    4      H       1.2044600094     0.9411939556     0.5384487943
    5      H      -1.6327781502     1.0653968478    -0.5751473525
    6      C      -1.1722808678    -0.5821744546     0.7456869715
    7      O      -2.3893429964    -0.8731436534     1.0522543753
    8      O      -0.1949958394    -1.3487470644     1.1960988742
    9      O       1.3069540668     0.0023983392    -1.2723717280
   10      O       1.6380245617    -1.1986257130    -0.5467673913
   11      H       0.8834729656    -1.2788278258     0.1670543139
 ----------------------------------------------------------------
 Nuclear Repulsion Energy =   299.6923571188 hartrees
 There are       28 alpha and       28 beta electrons
 Requested basis set is def2-TZVPD
 There are 115 shells and 307 basis functions

 Total QAlloc Memory Limit   8000 MB
 Mega-Array Size      1956 MB
 MEM_STATIC part      2000 MB
 Discretize the solute cavity surface with Lebedev spheres
	Using 110 Lebedev grid points for each H atom
	Using 110 Lebedev grid points for other atoms
	Atomic van der Waals radii will be scaled by 1.20
 Remove points where switching function is < 1.0e-08
 Keep 662 surface tesserae and discard 548 interior tesserae
 Molecular Surface Area = 133.299 Angst**2

                       Distance Matrix (Angstroms)
             C (  1)   C (  2)   H (  3)   H (  4)   H (  5)   C (  6)
   C (  2)  1.477730
   H (  3)  1.096325  2.136114
   H (  4)  1.101667  2.168906  1.781029
   H (  5)  2.216992  1.088411  2.413103  3.050482
   C (  6)  2.531765  1.414618  3.436463  2.830635  2.161285
   O (  7)  3.719677  2.371468  4.501563  4.058477  2.641735  1.288366
   O (  8)  2.829881  2.349226  3.902959  2.763116  3.321539  1.321208
   O (  9)  1.473586  2.512345  2.010217  2.042281  3.202829  3.249753
   O ( 10)  2.354956  3.052257  3.231581  2.438135  3.978034  3.154087
   H ( 11)  2.253938  2.502501  3.311698  2.273645  3.518206  2.246389
             O (  7)   O (  8)   O (  9)   O ( 10)
   O (  8)  2.249900
   O (  9)  4.453434  3.189795
   O ( 10)  4.345400  2.533788  1.441724
   H ( 11)  3.414599  1.492286  1.973024  1.041788
 
 A cutoff of  1.0D-14 yielded   6406 shell pairs
 There are     46354 function pairs (     59930 Cartesian)
 
 -------------------------------------------------------
 OpenMP Integral Computing Module                       
 Release: version 1.0, May 2013, Q-Chem Inc. Pittsburgh 
 -------------------------------------------------------
 Integral Job Info:
 Integral job number is                      11
 Integral operator is                         1
 short-range coefficients              16700000
 long-range coefficients              100000000
 Omega coefficients                         300
 if combine SR and LR in K                    1
 Integral screening is                        0
 Integral computing path is                   2
 max size of driver memory is            800000
 size of driver memory is                776718
 size of scratch memory is              4473992
 max col of scratch BK array              10000
 max len of scratch array in speh3          662
 max len of scratch index in speh4           32
 max int batch size is                      520
 min int batch size is                       52
 fixed nKL is                                52
 max L of basis functions is                  3
 order of int derivative is                   0
 number of shells is                        115
 number of basis is                         349
 number of cartesian basis is               349
 number of contracted shell pairs          6406
 number of primitive shell pairs          13685
 maxK2 (contraction) of shell pair           36
 max number of K2 of shell pair               1
 max number of CS2 of shell pair            945
 max number of PS2 of shell pair           1554
 mem total for path MDJ                  661124
 -------------------------------------------------------
 Smallest overlap matrix eigenvalue = 5.56E-06
 Guess MOs from SCF MO coefficient file
 Reading MOs from coefficient file
 Reading MOs from coefficient file
 Long-range K will be added via erf
 Coulomb attenuation parameter = 0.3 bohr**(-1)
 A restricted hybrid HF-DFT SCF calculation will be
 performed using Pulay DIIS extrapolation
 Polarizable Continuum solvation model will be applied
 Exchange:     0.1670 Hartree-Fock + 1.0000 wB97X-V + LR-HF
 Correlation:  1.0000 wB97X-V
 Using SG-2 standard quadrature grid
 Nonlocal Correlation:  VV10 with C = 0.0100 and b = 6.00
 Grid used for NLC:  SG-1 standard quadrature
 SCF converges when DIIS error is below 1.0E-08
Using Q-Chem read-in guess as SCF_GUESS READ specified.

 using 16 threads for integral computing
 -------------------------------------------------------
 OpenMP Integral computing Module                
 Release: version 1.0, May 2013, Q-Chem Inc. Pittsburgh 
 -------------------------------------------------------
 using 16 threads for integral computing
 -------------------------------------------------------
 OpenMP Integral computing Module                
 Release: version 1.0, May 2013, Q-Chem Inc. Pittsburgh 
 -------------------------------------------------------
 -------------------------------------------------------
 OpenMP BLAS3 based DFT computing Module                
 Release: version 1.0, May 2013, Q-Chem Inc. Pittsburgh 
 -------------------------------------------------------
 -------------------------------------------------------
 OpenMP BLAS3 based DFT computing Module                
 Release: version 1.0, May 2013, Q-Chem Inc. Pittsburgh 
 -------------------------------------------------------
 -------------------------------------------------------
 OpenMP BLAS3 based DFT computing Module                
 Release: version 1.0, May 2013, Q-Chem Inc. Pittsburgh 
 -------------------------------------------------------
 ---------------------------------------
  Cycle       Energy         DIIS Error
 ---------------------------------------
    1    -417.4595739669      5.01E-04
    2    -417.7940947843      5.77E-04
    3    -417.8002695597      2.50E-04
    4    -417.8012728579      1.81E-04
    5    -417.8018257750      1.39E-04
    6    -417.8021626381      1.07E-04
    7    -417.8023769045      7.99E-05
    8    -417.8024665924      6.58E-05
    9    -417.8025473913      4.98E-05
   10    -417.8025989862      3.60E-05
   11    -417.8026274957      2.53E-05
   12    -417.8026385734      1.97E-05
   13    -417.8026443498      1.59E-05
   14    -417.8026482946      1.27E-05
   15    -417.8026505317      1.05E-05
   16    -417.8026523903      8.21E-06
   17    -417.8026553016      1.13E-08
   18    -417.8026553016      3.55E-09 Convergence criterion met
 ---------------------------------------

************** Final PCM Free Energy Summary **************
 G_electrostatic  =      -0.34308203 hartree =    -215.28722570 kcal/mol
 G_cavitation     =       0.00000000 hartree =       0.00000000 kcal/mol
 G_dispersion     =       0.00000000 hartree =       0.00000000 kcal/mol
 G_repulsion      =       0.00000000 hartree =       0.00000000 kcal/mol
 --------------------------------------------------
 Non-electrostatic Free Energy =       0.00000000 hartree =       0.00000000 kcal/mol
 Total                         =      -0.34308203 hartree =    -215.28722570 kcal/mol
 --------------------------------------------------
 SCF Energy (H0 + V/2)                       =    -417.80265530 
 Solute Internal Energy (H0)                 =    -417.45957327 
 Total Free Energy (H0 + V/2 + non-elec)     =    -417.80265530 hartree
                                             = -262175.12321071 kcal/mol
***********************************************************

 SCF time:  CPU 1332.70 s  wall 92.86 s
 SCF   energy in the final basis set = -417.80265530
 Total energy in the final basis set = -417.80265530
 
 --------------------------------------------------------------
 
                    Orbital Energies (a.u.)
 --------------------------------------------------------------
 
 Alpha MOs
 -- Occupied --
-19.226 -19.207 -19.120 -19.108 -10.308 -10.282 -10.176  -1.197
 -1.103  -1.011  -0.972  -0.824  -0.717  -0.599  -0.583  -0.555
 -0.526  -0.494  -0.475  -0.467  -0.441  -0.429  -0.410  -0.334
 -0.329  -0.315  -0.300  -0.232
 -- Virtual --
  0.067   0.084   0.086   0.098   0.112   0.116   0.126   0.132
  0.137   0.160   0.161   0.170   0.179   0.181   0.196   0.204
  0.213   0.226   0.235   0.238   0.250   0.263   0.273   0.291
  0.297   0.305   0.311   0.325   0.338   0.352   0.355   0.367
  0.371   0.378   0.391   0.395   0.401   0.413   0.416   0.427
  0.433   0.435   0.447   0.457   0.465   0.469   0.488   0.490
  0.500   0.508   0.514   0.522   0.536   0.549   0.556   0.563
  0.572   0.578   0.584   0.595   0.606   0.627   0.635   0.649
  0.655   0.665   0.669   0.672   0.690   0.707   0.718   0.728
  0.742   0.748   0.751   0.757   0.770   0.786   0.792   0.802
  0.807   0.830   0.837   0.843   0.849   0.867   0.883   0.888
  0.903   0.927   0.932   0.946   0.955   0.989   1.025   1.034
  1.045   1.062   1.074   1.100   1.125   1.128   1.151   1.159
  1.185   1.214   1.232   1.261   1.273   1.307   1.328   1.350
  1.370   1.379   1.393   1.395   1.467   1.476   1.495   1.545
  1.569   1.592   1.648   1.674   1.730   1.751   1.776   1.835
  1.873   1.892   1.913   1.934   1.959   1.970   1.994   2.003
  2.030   2.073   2.088   2.113   2.116   2.172   2.185   2.197
  2.241   2.253   2.282   2.308   2.330   2.359   2.379   2.415
  2.437   2.471   2.486   2.521   2.557   2.571   2.637   2.646
  2.684   2.734   2.777   2.794   2.824   2.865   2.868   2.901
  2.954   2.987   2.999   3.025   3.065   3.078   3.089   3.138
  3.148   3.157   3.201   3.207   3.261   3.297   3.318   3.344
  3.383   3.394   3.435   3.450   3.465   3.490   3.504   3.537
  3.559   3.561   3.589   3.610   3.629   3.652   3.680   3.698
  3.719   3.768   3.821   3.833   3.892   3.947   3.972   4.013
  4.206   4.246   4.285   4.342   4.347   4.424   4.477   4.534
  4.660   4.683   4.835   4.875   4.929   4.957   4.984   5.036
  5.107   5.181   5.223   5.256   5.340   5.364   5.381   5.416
  5.467   5.491   5.546   5.615   5.657   5.692   5.749   5.775
  5.909   5.974   6.072   6.082   6.126   6.211   6.263   6.321
  6.447   6.526   6.613   6.654   6.658   6.697   6.749   6.774
  6.801   6.909   6.931   6.959   7.037   7.062   7.104   7.136
  7.211   7.315   7.366   7.397   7.412   7.490   7.608   8.280
 22.732  22.906  23.566  44.062  44.382  44.412  44.628
 --------------------------------------------------------------
 
          Ground-State Mulliken Net Atomic Charges

     Atom                 Charge (a.u.)
  ----------------------------------------
      1 C                    -0.349724
      2 C                    -0.582733
      3 H                     0.212153
      4 H                     0.143115
      5 H                     0.308574
      6 C                     0.274318
      7 O                    -0.800912
      8 O                    -0.800756
      9 O                    -0.266015
     10 O                    -0.477544
     11 H                     0.339524
  ----------------------------------------
  Sum of atomic charges =    -2.000000

 -----------------------------------------------------------------
                    Cartesian Multipole Moments
 -----------------------------------------------------------------
    Charge (ESU x 10^10)
                -9.6064
    Dipole Moment (Debye)
         X       6.1086      Y       8.0952      Z      -4.0530
       Tot      10.9213
    Quadrupole Moments (Debye-Ang)
        XX     -79.8903     XY      -3.5393     YY     -58.8954
        XZ      15.2891     YZ       6.0392     ZZ     -61.4394
    Octopole Moments (Debye-Ang^2)
       XXX      69.8006    XXY      42.2193    XYY      16.0854
       YYY      62.9343    XXZ     -22.6975    XYZ     -12.5156
       YYZ     -19.0203    XZZ      15.8360    YZZ      30.0464
       ZZZ     -23.6829
    Hexadecapole Moments (Debye-Ang^3)
      XXXX    -759.2975   XXXY     -59.5793   XXYY    -177.6238
      XYYY     -26.5995   YYYY    -325.1434   XXXZ     195.1938
      XXYZ      36.3692   XYYZ      58.2927   YYYZ      67.2335
      XXZZ    -177.5410   XYZZ     -18.2354   YYZZ    -112.6239
      XZZZ     140.2477   YZZZ      74.2922   ZZZZ    -293.2621
 -----------------------------------------------------------------
 Calculating analytic gradient of the SCF energy
 Gradient of SCF Energy
            1           2           3           4           5           6
    1   0.0871153  -0.0807048  -0.0027983  -0.0400302   0.0435361  -0.0155620
    2  -0.0149785   0.0818607  -0.0690112  -0.0018650   0.0320191  -0.0593766
    3  -0.0462303   0.0393489   0.0346254  -0.0675247   0.1279710  -0.0515752
            7           8           9          10          11
    1   0.0491372  -0.0307631  -0.0122706  -0.0193889   0.0217294
    2   0.0171073   0.0097727   0.0306502  -0.0438079   0.0176292
    3  -0.0148063   0.0031952  -0.0330112   0.0538892  -0.0458819
 Max gradient component =       1.280E-01
 RMS gradient           =       4.825E-02
 Computing fast CPCM-ISWIG gradient
 Updating gradient with PCM contributions...
 -- total gradient after adding PCM contribution --
---------------------------------------------------
  Atom         X              Y              Z     
---------------------------------------------------
   1      -0.000144       0.000075       0.000110
   2       0.000009      -0.000018      -0.000020
   3       0.000027       0.000000      -0.000005
   4       0.000003      -0.000005      -0.000012
   5       0.000020       0.000013       0.000015
   6       0.000038      -0.000009       0.000014
   7      -0.000009      -0.000017      -0.000004
   8      -0.000008      -0.000005       0.000003
   9       0.000038      -0.000018      -0.000098
  10       0.000108      -0.000014      -0.000047
  11      -0.000083      -0.000001       0.000043
---------------------------------------------------
 Number of fixed atoms: 0
 Gradient time:  CPU 269.49 s  wall 19.26 s
 ######################################################
 ######################################################
 # Starting finite difference calculation for IDERIV  #
 Finite diff step size:  1.88973e-03 a.u.
 ----------------------------------------------------------------
             Standard Nuclear Orientation (Angstroms)
    I     Atom           X                Y                Z
 ----------------------------------------------------------------
    1      C       0.5676024865     0.8900004389    -0.3583157791
    2      C      -0.8355972628     0.5244283024    -0.0686954089
    3      H       0.6278829333     1.8530259529    -0.8786560973
    4      H       1.2044600094     0.9411939556     0.5384487943
    5      H      -1.6327781502     1.0653968478    -0.5751473525
    6      C      -1.1722808678    -0.5821744546     0.7456869715
    7      O      -2.3893429964    -0.8731436534     1.0522543753
    8      O      -0.1949958394    -1.3487470644     1.1960988742
    9      O       1.3069540668     0.0023983392    -1.2723717280
   10      O       1.6380245617    -1.1986257130    -0.5467673913
   11      H       0.8834729656    -1.2788278258     0.1670543139
 ----------------------------------------------------------------
 Nuclear Repulsion Energy =   299.6887980800 hartrees
 There are       28 alpha and       28 beta electrons
 Discretize the solute cavity surface with Lebedev spheres
	Using 110 Lebedev grid points for each H atom
	Using 110 Lebedev grid points for other atoms
	Atomic van der Waals radii will be scaled by 1.20
 Remove points where switching function is < 1.0e-08
 Keep 662 surface tesserae and discard 548 interior tesserae
 Molecular Surface Area = 133.301 Angst**2

                       Distance Matrix (Angstroms)
             C (  1)   C (  2)   H (  3)   H (  4)   H (  5)   C (  6)
   C (  2)  1.478679
   H (  3)  1.096269  2.136114
   H (  4)  1.101088  2.168906  1.781029
   H (  5)  2.217984  1.088411  2.413103  3.050482
   C (  6)  2.532452  1.414618  3.436463  2.830635  2.161285
   O (  7)  3.720472  2.371468  4.501563  4.058477  2.641735  1.288366
   O (  8)  2.830150  2.349226  3.902959  2.763116  3.321539  1.321208
   O (  9)  1.473084  2.512345  2.010217  2.042281  3.202829  3.249753
   O ( 10)  2.354501  3.052257  3.231581  2.438135  3.978034  3.154087
   H ( 11)  2.253798  2.502501  3.311698  2.273645  3.518206  2.246389
             O (  7)   O (  8)   O (  9)   O ( 10)
   O (  8)  2.249900
   O (  9)  4.453434  3.189795
   O ( 10)  4.345400  2.533788  1.441724
   H ( 11)  3.414599  1.492286  1.973024  1.041788
 
 Requested basis set is def2-TZVPD
 There are 115 shells and 307 basis functions
 A cutoff of  1.0D-14 yielded   6406 shell pairs
 There are     46354 function pairs (     59930 Cartesian)
 Smallest overlap matrix eigenvalue = 5.57E-06
 Guess MOs from SCF MO coefficient file
 Reading MOs from coefficient file
 Reading MOs from coefficient file
 Long-range K will be added via erf
 Coulomb attenuation parameter = 0.3 bohr**(-1)
 A restricted hybrid HF-DFT SCF calculation will be
 performed using Pulay DIIS extrapolation
 Polarizable Continuum solvation model will be applied
 Exchange:     0.1670 Hartree-Fock + 1.0000 wB97X-V + LR-HF
 Correlation:  1.0000 wB97X-V
 Using SG-2 standard quadrature grid
 Nonlocal Correlation:  VV10 with C = 0.0100 and b = 6.00
 Grid used for NLC:  SG-1 standard quadrature
 SCF converges when DIIS error is below 1.0E-08
Using Q-Chem read-in guess as SCF_GUESS READ specified.

 using 16 threads for integral computing
 -------------------------------------------------------
 OpenMP Integral computing Module                
 Release: version 1.0, May 2013, Q-Chem Inc. Pittsburgh 
 -------------------------------------------------------
 using 16 threads for integral computing
 -------------------------------------------------------
 OpenMP Integral computing Module                
 Release: version 1.0, May 2013, Q-Chem Inc. Pittsburgh 
 -------------------------------------------------------
 -------------------------------------------------------
 OpenMP BLAS3 based DFT computing Module                
 Release: version 1.0, May 2013, Q-Chem Inc. Pittsburgh 
 -------------------------------------------------------
 -------------------------------------------------------
 OpenMP BLAS3 based DFT computing Module                
 Release: version 1.0, May 2013, Q-Chem Inc. Pittsburgh 
 -------------------------------------------------------
 -------------------------------------------------------
 OpenMP BLAS3 based DFT computing Module                
 Release: version 1.0, May 2013, Q-Chem Inc. Pittsburgh 
 -------------------------------------------------------
 ---------------------------------------
  Cycle       Energy         DIIS Error
 ---------------------------------------
    1    -417.4600832276      5.01E-04
    2    -417.7940946185      5.76E-04
    3    -417.8002681202      2.50E-04
    4    -417.8012720770      1.81E-04
    5    -417.8018288387      1.39E-04
    6    -417.8021745823      1.05E-04
    7    -417.8024074084      7.52E-05
    8    -417.8025114109      5.72E-05
    9    -417.8026087893      3.24E-05
   10    -417.8026489375      1.16E-05
   11    -417.8026543026      3.24E-06
   12    -417.8026547147      9.07E-07
   13    -417.8026547459      2.51E-07
   14    -417.8026547482      8.13E-08
   15    -417.8026547485      2.33E-08
   16    -417.8026547485      7.43E-09 Convergence criterion met
 ---------------------------------------

************** Final PCM Free Energy Summary **************
 G_electrostatic  =      -0.34310517 hartree =    -215.30174196 kcal/mol
 G_cavitation     =       0.00000000 hartree =       0.00000000 kcal/mol
 G_dispersion     =       0.00000000 hartree =       0.00000000 kcal/mol
 G_repulsion      =       0.00000000 hartree =       0.00000000 kcal/mol
 --------------------------------------------------
 Non-electrostatic Free Energy =       0.00000000 hartree =       0.00000000 kcal/mol
 Total                         =      -0.34310517 hartree =    -215.30174196 kcal/mol
 --------------------------------------------------
 SCF Energy (H0 + V/2)                       =    -417.80265475 
 Solute Internal Energy (H0)                 =    -417.45954958 
 Total Free Energy (H0 + V/2 + non-elec)     =    -417.80265475 hartree
                                             = -262175.12286362 kcal/mol
***********************************************************

 SCF time:  CPU 1186.79 s  wall 82.68 s
 SCF   energy in the final basis set = -417.80265475
 Total energy in the final basis set = -417.80265475
 
 --------------------------------------------------------------
 
                    Orbital Energies (a.u.)
 --------------------------------------------------------------
 
 Alpha MOs
 -- Occupied --
-19.226 -19.207 -19.120 -19.108 -10.308 -10.282 -10.176  -1.198
 -1.103  -1.011  -0.972  -0.824  -0.717  -0.599  -0.583  -0.555
 -0.526  -0.494  -0.475  -0.467  -0.441  -0.429  -0.410  -0.334
 -0.329  -0.315  -0.300  -0.232
 -- Virtual --
  0.067   0.084   0.086   0.098   0.112   0.116   0.126   0.132
  0.137   0.160   0.161   0.170   0.179   0.181   0.196   0.204
  0.213   0.226   0.235   0.238   0.250   0.263   0.273   0.291
  0.297   0.305   0.311   0.325   0.338   0.352   0.355   0.367
  0.371   0.378   0.391   0.395   0.401   0.413   0.416   0.427
  0.433   0.435   0.447   0.457   0.465   0.469   0.488   0.490
  0.500   0.508   0.514   0.522   0.536   0.549   0.556   0.563
  0.572   0.578   0.584   0.595   0.606   0.627   0.635   0.649
  0.655   0.665   0.669   0.672   0.690   0.707   0.718   0.728
  0.742   0.748   0.751   0.757   0.770   0.786   0.792   0.802
  0.807   0.830   0.837   0.843   0.849   0.867   0.883   0.888
  0.903   0.927   0.932   0.946   0.955   0.989   1.025   1.034
  1.045   1.062   1.074   1.100   1.125   1.128   1.151   1.158
  1.185   1.214   1.232   1.261   1.273   1.307   1.328   1.350
  1.370   1.379   1.393   1.395   1.467   1.476   1.495   1.544
  1.569   1.592   1.648   1.674   1.730   1.751   1.776   1.835
  1.873   1.892   1.913   1.934   1.959   1.970   1.994   2.003
  2.030   2.073   2.088   2.114   2.116   2.172   2.185   2.197
  2.241   2.253   2.282   2.308   2.330   2.359   2.379   2.415
  2.438   2.471   2.486   2.520   2.556   2.571   2.637   2.646
  2.685   2.734   2.777   2.794   2.823   2.865   2.868   2.901
  2.954   2.986   2.999   3.025   3.065   3.078   3.089   3.138
  3.148   3.157   3.201   3.207   3.261   3.297   3.318   3.344
  3.383   3.394   3.435   3.450   3.466   3.490   3.504   3.537
  3.559   3.561   3.589   3.610   3.630   3.652   3.680   3.698
  3.719   3.768   3.820   3.833   3.892   3.947   3.972   4.013
  4.206   4.246   4.284   4.342   4.346   4.424   4.477   4.534
  4.660   4.683   4.835   4.874   4.929   4.957   4.984   5.036
  5.107   5.181   5.223   5.256   5.340   5.364   5.381   5.416
  5.467   5.491   5.546   5.615   5.658   5.692   5.749   5.775
  5.910   5.974   6.072   6.082   6.126   6.211   6.263   6.321
  6.447   6.526   6.613   6.654   6.658   6.697   6.749   6.774
  6.801   6.909   6.931   6.959   7.037   7.062   7.104   7.136
  7.211   7.315   7.366   7.397   7.412   7.490   7.608   8.280
 22.732  22.906  23.566  44.062  44.382  44.412  44.628
 --------------------------------------------------------------
 
          Ground-State Mulliken Net Atomic Charges

     Atom                 Charge (a.u.)
  ----------------------------------------
      1 C                    -0.348719
      2 C                    -0.583624
      3 H                     0.211885
      4 H                     0.143368
      5 H                     0.308616
      6 C                     0.274018
      7 O                    -0.800968
      8 O                    -0.800848
      9 O                    -0.265778
     10 O                    -0.477528
     11 H                     0.339577
  ----------------------------------------
  Sum of atomic charges =    -2.000000

 -----------------------------------------------------------------
                    Cartesian Multipole Moments
 -----------------------------------------------------------------
    Charge (ESU x 10^10)
                -9.6064
    Dipole Moment (Debye)
         X       6.1156      Y       8.0954      Z      -4.0556
       Tot      10.9263
    Quadrupole Moments (Debye-Ang)
        XX     -79.8896     XY      -3.5397     YY     -58.8975
        XZ      15.2894     YZ       6.0405     ZZ     -61.4383
    Octopole Moments (Debye-Ang^2)
       XXX      69.8175    XXY      42.2211    XYY      16.0906
       YYY      62.9334    XXZ     -22.7056    XYZ     -12.5145
       YYZ     -19.0256    XZZ      15.8439    YZZ      30.0480
       ZZZ     -23.6963
    Hexadecapole Moments (Debye-Ang^3)
      XXXX    -759.3444   XXXY     -59.6012   XXYY    -177.6359
      XYYY     -26.6181   YYYY    -325.1591   XXXZ     195.2073
      XXYZ      36.3739   XYYZ      58.2990   YYYZ      67.2395
      XXZZ    -177.5465   XYZZ     -18.2403   YYZZ    -112.6262
      XZZZ     140.2511   YZZZ      74.2985   ZZZZ    -293.2506
 -----------------------------------------------------------------
 Calculating analytic gradient of the SCF energy
 Gradient of SCF Energy
            1           2           3           4           5           6
    1   0.0876060  -0.0810795  -0.0027683  -0.0401634   0.0435462  -0.0155212
    2  -0.0147870   0.0816438  -0.0690483  -0.0019539   0.0320906  -0.0593694
    3  -0.0460830   0.0393382   0.0346574  -0.0678739   0.1281401  -0.0515922
            7           8           9          10          11
    1   0.0491510  -0.0307795  -0.0123424  -0.0193903   0.0217413
    2   0.0171126   0.0097876   0.0306700  -0.0437790   0.0176329
    3  -0.0148066   0.0031932  -0.0329624   0.0538835  -0.0458943
 Max gradient component =       1.281E-01
 RMS gradient           =       4.831E-02
 Computing fast CPCM-ISWIG gradient
 Updating gradient with PCM contributions...
 -- total gradient after adding PCM contribution --
---------------------------------------------------
  Atom         X              Y              Z     
---------------------------------------------------
   1       0.000729       0.000185       0.000276
   2      -0.000401      -0.000064      -0.000017
   3      -0.000062      -0.000030      -0.000001
   4      -0.000232      -0.000028      -0.000231
   5      -0.000006      -0.000007       0.000023
   6       0.000014      -0.000075       0.000069
   7       0.000024       0.000000      -0.000016
   8      -0.000036       0.000019      -0.000008
   9      -0.000065       0.000011      -0.000094
  10       0.000096      -0.000014      -0.000031
  11      -0.000060       0.000001       0.000030
---------------------------------------------------
 Number of fixed atoms: 0
 Gradient time:  CPU 265.53 s  wall 18.89 s
 ----------------------------------------------------------------
             Standard Nuclear Orientation (Angstroms)
    I     Atom           X                Y                Z
 ----------------------------------------------------------------
    1      C       0.5656024865     0.8900004389    -0.3583157791
    2      C      -0.8355972628     0.5244283024    -0.0686954089
    3      H       0.6278829333     1.8530259529    -0.8786560973
    4      H       1.2044600094     0.9411939556     0.5384487943
    5      H      -1.6327781502     1.0653968478    -0.5751473525
    6      C      -1.1722808678    -0.5821744546     0.7456869715
    7      O      -2.3893429964    -0.8731436534     1.0522543753
    8      O      -0.1949958394    -1.3487470644     1.1960988742
    9      O       1.3069540668     0.0023983392    -1.2723717280
   10      O       1.6380245617    -1.1986257130    -0.5467673913
   11      H       0.8834729656    -1.2788278258     0.1670543139
 ----------------------------------------------------------------
 Nuclear Repulsion Energy =   299.6959215229 hartrees
 There are       28 alpha and       28 beta electrons
 Discretize the solute cavity surface with Lebedev spheres
	Using 110 Lebedev grid points for each H atom
	Using 110 Lebedev grid points for other atoms
	Atomic van der Waals radii will be scaled by 1.20
 Remove points where switching function is < 1.0e-08
 Keep 662 surface tesserae and discard 548 interior tesserae
 Molecular Surface Area = 133.296 Angst**2

                       Distance Matrix (Angstroms)
             C (  1)   C (  2)   H (  3)   H (  4)   H (  5)   C (  6)
   C (  2)  1.476782
   H (  3)  1.096381  2.136114
   H (  4)  1.102246  2.168906  1.781029
   H (  5)  2.216000  1.088411  2.413103  3.050482
   C (  6)  2.531079  1.414618  3.436463  2.830635  2.161285
   O (  7)  3.718883  2.371468  4.501563  4.058477  2.641735  1.288366
   O (  8)  2.829612  2.349226  3.902959  2.763116  3.321539  1.321208
   O (  9)  1.474089  2.512345  2.010217  2.042281  3.202829  3.249753
   O ( 10)  2.355411  3.052257  3.231581  2.438135  3.978034  3.154087
   H ( 11)  2.254079  2.502501  3.311698  2.273645  3.518206  2.246389
             O (  7)   O (  8)   O (  9)   O ( 10)
   O (  8)  2.249900
   O (  9)  4.453434  3.189795
   O ( 10)  4.345400  2.533788  1.441724
   H ( 11)  3.414599  1.492286  1.973024  1.041788
 
 Requested basis set is def2-TZVPD
 There are 115 shells and 307 basis functions
 A cutoff of  1.0D-14 yielded   6406 shell pairs
 There are     46354 function pairs (     59930 Cartesian)
 Smallest overlap matrix eigenvalue = 5.56E-06
 Guess MOs from SCF MO coefficient file
 Reading MOs from coefficient file
 Reading MOs from coefficient file
 Long-range K will be added via erf
 Coulomb attenuation parameter = 0.3 bohr**(-1)
 A restricted hybrid HF-DFT SCF calculation will be
 performed using Pulay DIIS extrapolation
 Polarizable Continuum solvation model will be applied
 Exchange:     0.1670 Hartree-Fock + 1.0000 wB97X-V + LR-HF
 Correlation:  1.0000 wB97X-V
 Using SG-2 standard quadrature grid
 Nonlocal Correlation:  VV10 with C = 0.0100 and b = 6.00
 Grid used for NLC:  SG-1 standard quadrature
 SCF converges when DIIS error is below 1.0E-08
Using Q-Chem read-in guess as SCF_GUESS READ specified.

 using 16 threads for integral computing
 -------------------------------------------------------
 OpenMP Integral computing Module                
 Release: version 1.0, May 2013, Q-Chem Inc. Pittsburgh 
 -------------------------------------------------------
 using 16 threads for integral computing
 -------------------------------------------------------
 OpenMP Integral computing Module                
 Release: version 1.0, May 2013, Q-Chem Inc. Pittsburgh 
 -------------------------------------------------------
 -------------------------------------------------------
 OpenMP BLAS3 based DFT computing Module                
 Release: version 1.0, May 2013, Q-Chem Inc. Pittsburgh 
 -------------------------------------------------------
 -------------------------------------------------------
 OpenMP BLAS3 based DFT computing Module                
 Release: version 1.0, May 2013, Q-Chem Inc. Pittsburgh 
 -------------------------------------------------------
 -------------------------------------------------------
 OpenMP BLAS3 based DFT computing Module                
 Release: version 1.0, May 2013, Q-Chem Inc. Pittsburgh 
 -------------------------------------------------------
 ---------------------------------------
  Cycle       Energy         DIIS Error
 ---------------------------------------
    1    -417.4585369631      5.04E-04
    2    -417.7940864044      5.78E-04
    3    -417.8002789054      2.50E-04
    4    -417.8012850074      1.81E-04
    5    -417.8018564817      1.37E-04
    6    -417.8022271714      9.92E-05
    7    -417.8024840234      6.22E-05
    8    -417.8025842358      3.98E-05
    9    -417.8026446366      1.46E-05
   10    -417.8026537921      3.05E-06
   11    -417.8026541940      4.92E-07
   12    -417.8026542042      1.27E-07
   13    -417.8026542044      5.17E-08
   14    -417.8026542045      1.58E-08
   15    -417.8026542045      9.96E-09 Convergence criterion met
 ---------------------------------------

************** Final PCM Free Energy Summary **************
 G_electrostatic  =      -0.34305889 hartree =    -215.27270018 kcal/mol
 G_cavitation     =       0.00000000 hartree =       0.00000000 kcal/mol
 G_dispersion     =       0.00000000 hartree =       0.00000000 kcal/mol
 G_repulsion      =       0.00000000 hartree =       0.00000000 kcal/mol
 --------------------------------------------------
 Non-electrostatic Free Energy =       0.00000000 hartree =       0.00000000 kcal/mol
 Total                         =      -0.34305889 hartree =    -215.27270018 kcal/mol
 --------------------------------------------------
 SCF Energy (H0 + V/2)                       =    -417.80265420 
 Solute Internal Energy (H0)                 =    -417.45959532 
 Total Free Energy (H0 + V/2 + non-elec)     =    -417.80265420 hartree
                                             = -262175.12252227 kcal/mol
***********************************************************

 SCF time:  CPU 1115.12 s  wall 77.62 s
 SCF   energy in the final basis set = -417.80265420
 Total energy in the final basis set = -417.80265420
 
 --------------------------------------------------------------
 
                    Orbital Energies (a.u.)
 --------------------------------------------------------------
 
 Alpha MOs
 -- Occupied --
-19.225 -19.207 -19.120 -19.108 -10.308 -10.282 -10.176  -1.197
 -1.103  -1.011  -0.972  -0.824  -0.717  -0.598  -0.583  -0.555
 -0.526  -0.494  -0.474  -0.467  -0.441  -0.429  -0.410  -0.334
 -0.329  -0.315  -0.300  -0.232
 -- Virtual --
  0.067   0.084   0.086   0.098   0.112   0.116   0.126   0.132
  0.137   0.160   0.161   0.170   0.179   0.181   0.196   0.204
  0.213   0.226   0.235   0.238   0.250   0.263   0.273   0.291
  0.297   0.305   0.311   0.325   0.338   0.352   0.355   0.367
  0.371   0.378   0.391   0.395   0.401   0.413   0.416   0.427
  0.433   0.435   0.447   0.457   0.465   0.469   0.488   0.490
  0.500   0.508   0.514   0.522   0.536   0.549   0.556   0.563
  0.572   0.578   0.584   0.595   0.606   0.627   0.635   0.649
  0.655   0.665   0.669   0.672   0.690   0.707   0.718   0.728
  0.742   0.748   0.751   0.757   0.770   0.787   0.792   0.802
  0.807   0.830   0.837   0.843   0.849   0.867   0.883   0.888
  0.903   0.927   0.932   0.946   0.955   0.989   1.025   1.034
  1.045   1.062   1.074   1.100   1.125   1.128   1.151   1.159
  1.185   1.214   1.232   1.261   1.273   1.307   1.328   1.349
  1.370   1.379   1.393   1.395   1.467   1.476   1.495   1.545
  1.569   1.593   1.648   1.674   1.730   1.752   1.776   1.835
  1.873   1.892   1.913   1.934   1.959   1.970   1.994   2.003
  2.030   2.073   2.088   2.113   2.116   2.172   2.185   2.197
  2.241   2.253   2.282   2.308   2.330   2.359   2.379   2.415
  2.437   2.471   2.486   2.521   2.557   2.571   2.637   2.646
  2.684   2.734   2.777   2.794   2.824   2.865   2.868   2.901
  2.954   2.987   2.999   3.025   3.065   3.078   3.089   3.138
  3.148   3.157   3.201   3.207   3.261   3.297   3.317   3.344
  3.383   3.394   3.434   3.450   3.465   3.490   3.504   3.537
  3.559   3.561   3.589   3.610   3.629   3.652   3.680   3.698
  3.719   3.768   3.821   3.833   3.892   3.947   3.972   4.013
  4.207   4.247   4.285   4.342   4.347   4.425   4.477   4.534
  4.660   4.683   4.835   4.875   4.929   4.957   4.984   5.036
  5.107   5.181   5.223   5.255   5.340   5.364   5.381   5.416
  5.467   5.490   5.546   5.615   5.657   5.692   5.749   5.775
  5.909   5.974   6.072   6.081   6.126   6.211   6.263   6.321
  6.447   6.526   6.613   6.654   6.658   6.697   6.749   6.774
  6.801   6.909   6.931   6.959   7.037   7.062   7.104   7.136
  7.211   7.315   7.366   7.397   7.412   7.490   7.608   8.280
 22.732  22.907  23.567  44.061  44.382  44.412  44.628
 --------------------------------------------------------------
 
          Ground-State Mulliken Net Atomic Charges

     Atom                 Charge (a.u.)
  ----------------------------------------
      1 C                    -0.350734
      2 C                    -0.581840
      3 H                     0.212421
      4 H                     0.142864
      5 H                     0.308531
      6 C                     0.274618
      7 O                    -0.800855
      8 O                    -0.800664
      9 O                    -0.266252
     10 O                    -0.477561
     11 H                     0.339471
  ----------------------------------------
  Sum of atomic charges =    -2.000000

 -----------------------------------------------------------------
                    Cartesian Multipole Moments
 -----------------------------------------------------------------
    Charge (ESU x 10^10)
                -9.6064
    Dipole Moment (Debye)
         X       6.1016      Y       8.0950      Z      -4.0504
       Tot      10.9162
    Quadrupole Moments (Debye-Ang)
        XX     -79.8910     XY      -3.5389     YY     -58.8933
        XZ      15.2889     YZ       6.0380     ZZ     -61.4406
    Octopole Moments (Debye-Ang^2)
       XXX      69.7837    XXY      42.2175    XYY      16.0802
       YYY      62.9352    XXZ     -22.6894    XYZ     -12.5167
       YYZ     -19.0150    XZZ      15.8281    YZZ      30.0447
       ZZZ     -23.6695
    Hexadecapole Moments (Debye-Ang^3)
      XXXX    -759.2504   XXXY     -59.5575   XXYY    -177.6118
      XYYY     -26.5808   YYYY    -325.1277   XXXZ     195.1802
      XXYZ      36.3645   XYYZ      58.2865   YYYZ      67.2274
      XXZZ    -177.5354   XYZZ     -18.2305   YYZZ    -112.6215
      XZZZ     140.2443   YZZZ      74.2860   ZZZZ    -293.2735
 -----------------------------------------------------------------
 Calculating analytic gradient of the SCF energy
 Gradient of SCF Energy
            1           2           3           4           5           6
    1   0.0866220  -0.0803280  -0.0028282  -0.0398970   0.0435262  -0.0156028
    2  -0.0151714   0.0820786  -0.0689738  -0.0017764   0.0319480  -0.0593841
    3  -0.0463750   0.0393580   0.0345933  -0.0671768   0.1278027  -0.0515587
            7           8           9          10          11
    1   0.0491236  -0.0307468  -0.0121990  -0.0193875   0.0217176
    2   0.0171021   0.0097578   0.0306307  -0.0438369   0.0176254
    3  -0.0148061   0.0031971  -0.0330600   0.0538951  -0.0458697
 Max gradient component =       1.278E-01
 RMS gradient           =       4.818E-02
 Computing fast CPCM-ISWIG gradient
 Updating gradient with PCM contributions...
 -- total gradient after adding PCM contribution --
---------------------------------------------------
  Atom         X              Y              Z     
---------------------------------------------------
   1      -0.001018      -0.000037      -0.000054
   2       0.000421       0.000029      -0.000022
   3       0.000116       0.000031      -0.000009
   4       0.000237       0.000017       0.000205
   5       0.000047       0.000032       0.000007
   6       0.000063       0.000056      -0.000041
   7      -0.000041      -0.000035       0.000008
   8       0.000021      -0.000030       0.000015
   9       0.000141      -0.000047      -0.000102
  10       0.000120      -0.000014      -0.000063
  11      -0.000106      -0.000003       0.000056
---------------------------------------------------
 Number of fixed atoms: 0
 Gradient time:  CPU 267.40 s  wall 18.99 s
 ----------------------------------------------------------------
             Standard Nuclear Orientation (Angstroms)
    I     Atom           X                Y                Z
 ----------------------------------------------------------------
    1      C       0.5666024865     0.8910004389    -0.3583157791
    2      C      -0.8355972628     0.5244283024    -0.0686954089
    3      H       0.6278829333     1.8530259529    -0.8786560973
    4      H       1.2044600094     0.9411939556     0.5384487943
    5      H      -1.6327781502     1.0653968478    -0.5751473525
    6      C      -1.1722808678    -0.5821744546     0.7456869715
    7      O      -2.3893429964    -0.8731436534     1.0522543753
    8      O      -0.1949958394    -1.3487470644     1.1960988742
    9      O       1.3069540668     0.0023983392    -1.2723717280
   10      O       1.6380245617    -1.1986257130    -0.5467673913
   11      H       0.8834729656    -1.2788278258     0.1670543139
 ----------------------------------------------------------------
 Nuclear Repulsion Energy =   299.6758752327 hartrees
 There are       28 alpha and       28 beta electrons
 Discretize the solute cavity surface with Lebedev spheres
	Using 110 Lebedev grid points for each H atom
	Using 110 Lebedev grid points for other atoms
	Atomic van der Waals radii will be scaled by 1.20
 Remove points where switching function is < 1.0e-08
 Keep 662 surface tesserae and discard 548 interior tesserae
 Molecular Surface Area = 133.303 Angst**2

                       Distance Matrix (Angstroms)
             C (  1)   C (  2)   H (  3)   H (  4)   H (  5)   C (  6)
   C (  2)  1.477978
   H (  3)  1.095446  2.136114
   H (  4)  1.101621  2.168906  1.781029
   H (  5)  2.216913  1.088411  2.413103  3.050482
   C (  6)  2.532347  1.414618  3.436463  2.830635  2.161285
   O (  7)  3.720151  2.371468  4.501563  4.058477  2.641735  1.288366
   O (  8)  2.830672  2.349226  3.902959  2.763116  3.321539  1.321208
   O (  9)  1.474189  2.512345  2.010217  2.042281  3.202829  3.249753
   O ( 10)  2.355843  3.052257  3.231581  2.438135  3.978034  3.154087
   H ( 11)  2.254900  2.502501  3.311698  2.273645  3.518206  2.246389
             O (  7)   O (  8)   O (  9)   O ( 10)
   O (  8)  2.249900
   O (  9)  4.453434  3.189795
   O ( 10)  4.345400  2.533788  1.441724
   H ( 11)  3.414599  1.492286  1.973024  1.041788
 
 Requested basis set is def2-TZVPD
 There are 115 shells and 307 basis functions
 A cutoff of  1.0D-14 yielded   6406 shell pairs
 There are     46354 function pairs (     59930 Cartesian)
 Smallest overlap matrix eigenvalue = 5.56E-06
 Guess MOs from SCF MO coefficient file
 Reading MOs from coefficient file
 Reading MOs from coefficient file
 Long-range K will be added via erf
 Coulomb attenuation parameter = 0.3 bohr**(-1)
 A restricted hybrid HF-DFT SCF calculation will be
 performed using Pulay DIIS extrapolation
 Polarizable Continuum solvation model will be applied
 Exchange:     0.1670 Hartree-Fock + 1.0000 wB97X-V + LR-HF
 Correlation:  1.0000 wB97X-V
 Using SG-2 standard quadrature grid
 Nonlocal Correlation:  VV10 with C = 0.0100 and b = 6.00
 Grid used for NLC:  SG-1 standard quadrature
 SCF converges when DIIS error is below 1.0E-08
Using Q-Chem read-in guess as SCF_GUESS READ specified.

 using 16 threads for integral computing
 -------------------------------------------------------
 OpenMP Integral computing Module                
 Release: version 1.0, May 2013, Q-Chem Inc. Pittsburgh 
 -------------------------------------------------------
 using 16 threads for integral computing
 -------------------------------------------------------
 OpenMP Integral computing Module                
 Release: version 1.0, May 2013, Q-Chem Inc. Pittsburgh 
 -------------------------------------------------------
 -------------------------------------------------------
 OpenMP BLAS3 based DFT computing Module                
 Release: version 1.0, May 2013, Q-Chem Inc. Pittsburgh 
 -------------------------------------------------------
 -------------------------------------------------------
 OpenMP BLAS3 based DFT computing Module                
 Release: version 1.0, May 2013, Q-Chem Inc. Pittsburgh 
 -------------------------------------------------------
 -------------------------------------------------------
 OpenMP BLAS3 based DFT computing Module                
 Release: version 1.0, May 2013, Q-Chem Inc. Pittsburgh 
 -------------------------------------------------------
 ---------------------------------------
  Cycle       Energy         DIIS Error
 ---------------------------------------
    1    -417.4602467204      5.00E-04
    2    -417.7941207057      5.75E-04
    3    -417.8002736180      2.50E-04
    4    -417.8012745204      1.81E-04
    5    -417.8018311439      1.39E-04
    6    -417.8021857110      1.04E-04
    7    -417.8024307239      7.14E-05
    8    -417.8025384147      5.13E-05
    9    -417.8026270214      2.48E-05
   10    -417.8026521342      6.96E-06
   11    -417.8026541407      1.55E-06
   12    -417.8026542372      3.78E-07
   13    -417.8026542425      7.61E-08
   14    -417.8026542427      1.83E-08
   15    -417.8026542427      5.27E-09 Convergence criterion met
 ---------------------------------------

************** Final PCM Free Energy Summary **************
 G_electrostatic  =      -0.34309598 hartree =    -215.29597883 kcal/mol
 G_cavitation     =       0.00000000 hartree =       0.00000000 kcal/mol
 G_dispersion     =       0.00000000 hartree =       0.00000000 kcal/mol
 G_repulsion      =       0.00000000 hartree =       0.00000000 kcal/mol
 --------------------------------------------------
 Non-electrostatic Free Energy =       0.00000000 hartree =       0.00000000 kcal/mol
 Total                         =      -0.34309598 hartree =    -215.29597883 kcal/mol
 --------------------------------------------------
 SCF Energy (H0 + V/2)                       =    -417.80265424 
 Solute Internal Energy (H0)                 =    -417.45955826 
 Total Free Energy (H0 + V/2 + non-elec)     =    -417.80265424 hartree
                                             = -262175.12254625 kcal/mol
***********************************************************

 SCF time:  CPU 1109.80 s  wall 77.36 s
 SCF   energy in the final basis set = -417.80265424
 Total energy in the final basis set = -417.80265424
 
 --------------------------------------------------------------
 
                    Orbital Energies (a.u.)
 --------------------------------------------------------------
 
 Alpha MOs
 -- Occupied --
-19.225 -19.207 -19.120 -19.108 -10.308 -10.282 -10.176  -1.197
 -1.103  -1.011  -0.972  -0.824  -0.717  -0.599  -0.583  -0.555
 -0.526  -0.494  -0.475  -0.467  -0.441  -0.429  -0.410  -0.334
 -0.329  -0.315  -0.300  -0.232
 -- Virtual --
  0.067   0.084   0.086   0.098   0.112   0.116   0.126   0.132
  0.137   0.160   0.161   0.170   0.179   0.181   0.196   0.204
  0.213   0.226   0.235   0.238   0.250   0.263   0.273   0.291
  0.297   0.305   0.311   0.325   0.338   0.352   0.355   0.367
  0.371   0.378   0.391   0.395   0.401   0.413   0.416   0.427
  0.433   0.435   0.447   0.457   0.465   0.469   0.488   0.490
  0.500   0.508   0.514   0.522   0.536   0.549   0.556   0.563
  0.572   0.578   0.584   0.595   0.606   0.627   0.635   0.649
  0.655   0.665   0.669   0.672   0.690   0.707   0.718   0.728
  0.742   0.748   0.751   0.757   0.770   0.787   0.792   0.802
  0.807   0.830   0.837   0.843   0.849   0.867   0.883   0.888
  0.903   0.927   0.932   0.946   0.955   0.989   1.025   1.034
  1.045   1.062   1.074   1.100   1.125   1.128   1.151   1.159
  1.185   1.214   1.232   1.261   1.273   1.307   1.328   1.349
  1.370   1.379   1.393   1.395   1.467   1.476   1.495   1.545
  1.569   1.593   1.648   1.674   1.730   1.751   1.776   1.835
  1.873   1.892   1.913   1.934   1.959   1.970   1.994   2.003
  2.030   2.073   2.088   2.113   2.116   2.172   2.185   2.197
  2.241   2.253   2.282   2.308   2.330   2.359   2.379   2.415
  2.437   2.471   2.486   2.521   2.557   2.571   2.637   2.646
  2.685   2.734   2.777   2.794   2.824   2.865   2.868   2.901
  2.954   2.986   2.999   3.025   3.065   3.078   3.089   3.138
  3.148   3.157   3.201   3.207   3.261   3.297   3.318   3.344
  3.383   3.394   3.435   3.450   3.466   3.490   3.504   3.537
  3.560   3.561   3.589   3.610   3.629   3.652   3.680   3.698
  3.719   3.768   3.820   3.833   3.892   3.947   3.972   4.013
  4.206   4.246   4.285   4.342   4.347   4.424   4.477   4.534
  4.661   4.683   4.835   4.875   4.929   4.957   4.984   5.036
  5.107   5.181   5.223   5.256   5.340   5.364   5.381   5.416
  5.467   5.491   5.546   5.615   5.657   5.692   5.749   5.775
  5.908   5.974   6.072   6.081   6.126   6.211   6.263   6.321
  6.447   6.526   6.613   6.654   6.658   6.697   6.749   6.774
  6.801   6.909   6.930   6.959   7.037   7.062   7.104   7.136
  7.211   7.315   7.366   7.397   7.412   7.490   7.608   8.280
 22.732  22.906  23.566  44.061  44.382  44.412  44.628
 --------------------------------------------------------------
 
          Ground-State Mulliken Net Atomic Charges

     Atom                 Charge (a.u.)
  ----------------------------------------
      1 C                    -0.350507
      2 C                    -0.582230
      3 H                     0.212584
      4 H                     0.143115
      5 H                     0.308609
      6 C                     0.274447
      7 O                    -0.800870
      8 O                    -0.800763
      9 O                    -0.266327
     10 O                    -0.477555
     11 H                     0.339496
  ----------------------------------------
  Sum of atomic charges =    -2.000000

 -----------------------------------------------------------------
                    Cartesian Multipole Moments
 -----------------------------------------------------------------
    Charge (ESU x 10^10)
                -9.6064
    Dipole Moment (Debye)
         X       6.1075      Y       8.0978      Z      -4.0516
       Tot      10.9221
    Quadrupole Moments (Debye-Ang)
        XX     -79.8926     XY      -3.5363     YY     -58.8898
        XZ      15.2909     YZ       6.0359     ZZ     -61.4407
    Octopole Moments (Debye-Ang^2)
       XXX      69.7925    XXY      42.2141    XYY      16.0886
       YYY      62.9332    XXZ     -22.6907    XYZ     -12.5169
       YYZ     -19.0265    XZZ      15.8310    YZZ      30.0459
       ZZZ     -23.6771
    Hexadecapole Moments (Debye-Ang^3)
      XXXX    -759.3131   XXXY     -59.5762   XXYY    -177.6303
      XYYY     -26.5953   YYYY    -325.1587   XXXZ     195.2017
      XXYZ      36.3672   XYYZ      58.2877   YYYZ      67.2216
      XXZZ    -177.5477   XYZZ     -18.2332   YYZZ    -112.6233
      XZZZ     140.2558   YZZZ      74.2863   ZZZZ    -293.2718
 -----------------------------------------------------------------
 Calculating analytic gradient of the SCF energy
 Gradient of SCF Energy
            1           2           3           4           5           6
    1   0.0872666  -0.0807945  -0.0028680  -0.0400410   0.0434887  -0.0155951
    2  -0.0143600   0.0817684  -0.0694815  -0.0018173   0.0319832  -0.0592944
    3  -0.0464635   0.0392732   0.0349306  -0.0674797   0.1278904  -0.0514507
            7           8           9          10          11
    1   0.0491380  -0.0307684  -0.0122061  -0.0193685   0.0217484
    2   0.0171069   0.0097761   0.0305583  -0.0438625   0.0176229
    3  -0.0148038   0.0031861  -0.0330657   0.0538665  -0.0458834
 Max gradient component =       1.279E-01
 RMS gradient           =       4.826E-02
 Computing fast CPCM-ISWIG gradient
 Updating gradient with PCM contributions...
 -- total gradient after adding PCM contribution --
---------------------------------------------------
  Atom         X              Y              Z     
---------------------------------------------------
   1      -0.000033       0.001046      -0.000134
   2      -0.000090      -0.000203       0.000038
   3      -0.000003      -0.000458       0.000215
   4      -0.000006      -0.000097      -0.000017
   5       0.000044       0.000017       0.000006
   6      -0.000007      -0.000015       0.000006
   7      -0.000015      -0.000020       0.000011
   8      -0.000004      -0.000009      -0.000001
   9       0.000056      -0.000169      -0.000094
  10       0.000146      -0.000083      -0.000081
  11      -0.000088      -0.000009       0.000053
---------------------------------------------------
 Number of fixed atoms: 0
 Gradient time:  CPU 267.99 s  wall 19.03 s
 ----------------------------------------------------------------
             Standard Nuclear Orientation (Angstroms)
    I     Atom           X                Y                Z
 ----------------------------------------------------------------
    1      C       0.5666024865     0.8890004389    -0.3583157791
    2      C      -0.8355972628     0.5244283024    -0.0686954089
    3      H       0.6278829333     1.8530259529    -0.8786560973
    4      H       1.2044600094     0.9411939556     0.5384487943
    5      H      -1.6327781502     1.0653968478    -0.5751473525
    6      C      -1.1722808678    -0.5821744546     0.7456869715
    7      O      -2.3893429964    -0.8731436534     1.0522543753
    8      O      -0.1949958394    -1.3487470644     1.1960988742
    9      O       1.3069540668     0.0023983392    -1.2723717280
   10      O       1.6380245617    -1.1986257130    -0.5467673913
   11      H       0.8834729656    -1.2788278258     0.1670543139
 ----------------------------------------------------------------
 Nuclear Repulsion Energy =   299.7088393875 hartrees
 There are       28 alpha and       28 beta electrons
 Discretize the solute cavity surface with Lebedev spheres
	Using 110 Lebedev grid points for each H atom
	Using 110 Lebedev grid points for other atoms
	Atomic van der Waals radii will be scaled by 1.20
 Remove points where switching function is < 1.0e-08
 Keep 662 surface tesserae and discard 548 interior tesserae
 Molecular Surface Area = 133.294 Angst**2

                       Distance Matrix (Angstroms)
             C (  1)   C (  2)   H (  3)   H (  4)   H (  5)   C (  6)
   C (  2)  1.477483
   H (  3)  1.097203  2.136114
   H (  4)  1.101714  2.168906  1.781029
   H (  5)  2.217072  1.088411  2.413103  3.050482
   C (  6)  2.531184  1.414618  3.436463  2.830635  2.161285
   O (  7)  3.719203  2.371468  4.501563  4.058477  2.641735  1.288366
   O (  8)  2.829090  2.349226  3.902959  2.763116  3.321539  1.321208
   O (  9)  1.472984  2.512345  2.010217  2.042281  3.202829  3.249753
   O ( 10)  2.354069  3.052257  3.231581  2.438135  3.978034  3.154087
   H ( 11)  2.252976  2.502501  3.311698  2.273645  3.518206  2.246389
             O (  7)   O (  8)   O (  9)   O ( 10)
   O (  8)  2.249900
   O (  9)  4.453434  3.189795
   O ( 10)  4.345400  2.533788  1.441724
   H ( 11)  3.414599  1.492286  1.973024  1.041788
 
 Requested basis set is def2-TZVPD
 There are 115 shells and 307 basis functions
 A cutoff of  1.0D-14 yielded   6406 shell pairs
 There are     46354 function pairs (     59930 Cartesian)
 Smallest overlap matrix eigenvalue = 5.56E-06
 Guess MOs from SCF MO coefficient file
 Reading MOs from coefficient file
 Reading MOs from coefficient file
 Long-range K will be added via erf
 Coulomb attenuation parameter = 0.3 bohr**(-1)
 A restricted hybrid HF-DFT SCF calculation will be
 performed using Pulay DIIS extrapolation
 Polarizable Continuum solvation model will be applied
 Exchange:     0.1670 Hartree-Fock + 1.0000 wB97X-V + LR-HF
 Correlation:  1.0000 wB97X-V
 Using SG-2 standard quadrature grid
 Nonlocal Correlation:  VV10 with C = 0.0100 and b = 6.00
 Grid used for NLC:  SG-1 standard quadrature
 SCF converges when DIIS error is below 1.0E-08
Using Q-Chem read-in guess as SCF_GUESS READ specified.

 using 16 threads for integral computing
 -------------------------------------------------------
 OpenMP Integral computing Module                
 Release: version 1.0, May 2013, Q-Chem Inc. Pittsburgh 
 -------------------------------------------------------
 using 16 threads for integral computing
 -------------------------------------------------------
 OpenMP Integral computing Module                
 Release: version 1.0, May 2013, Q-Chem Inc. Pittsburgh 
 -------------------------------------------------------
 -------------------------------------------------------
 OpenMP BLAS3 based DFT computing Module                
 Release: version 1.0, May 2013, Q-Chem Inc. Pittsburgh 
 -------------------------------------------------------
 -------------------------------------------------------
 OpenMP BLAS3 based DFT computing Module                
 Release: version 1.0, May 2013, Q-Chem Inc. Pittsburgh 
 -------------------------------------------------------
 -------------------------------------------------------
 OpenMP BLAS3 based DFT computing Module                
 Release: version 1.0, May 2013, Q-Chem Inc. Pittsburgh 
 -------------------------------------------------------
 ---------------------------------------
  Cycle       Energy         DIIS Error
 ---------------------------------------
    1    -417.4592864397      5.04E-04
    2    -417.7940490234      5.79E-04
    3    -417.8002668567      2.50E-04
    4    -417.8012781994      1.81E-04
    5    -417.8018509588      1.37E-04
    6    -417.8022106528      1.01E-04
    7    -417.8024626586      6.61E-05
    8    -417.8025688635      4.41E-05
    9    -417.8026410523      1.74E-05
   10    -417.8026539638      3.58E-06
   11    -417.8026545085      6.49E-07
   12    -417.8026545261      1.35E-07
   13    -417.8026545264      4.88E-08
   14    -417.8026545265      1.38E-08
   15    -417.8026545265      7.08E-09 Convergence criterion met
 ---------------------------------------

************** Final PCM Free Energy Summary **************
 G_electrostatic  =      -0.34306808 hartree =    -215.27846675 kcal/mol
 G_cavitation     =       0.00000000 hartree =       0.00000000 kcal/mol
 G_dispersion     =       0.00000000 hartree =       0.00000000 kcal/mol
 G_repulsion      =       0.00000000 hartree =       0.00000000 kcal/mol
 --------------------------------------------------
 Non-electrostatic Free Energy =       0.00000000 hartree =       0.00000000 kcal/mol
 Total                         =      -0.34306808 hartree =    -215.27846675 kcal/mol
 --------------------------------------------------
 SCF Energy (H0 + V/2)                       =    -417.80265453 
 Solute Internal Energy (H0)                 =    -417.45958645 
 Total Free Energy (H0 + V/2 + non-elec)     =    -417.80265453 hartree
                                             = -262175.12272432 kcal/mol
***********************************************************

 SCF time:  CPU 1117.94 s  wall 77.81 s
 SCF   energy in the final basis set = -417.80265453
 Total energy in the final basis set = -417.80265453
 
 --------------------------------------------------------------
 
                    Orbital Energies (a.u.)
 --------------------------------------------------------------
 
 Alpha MOs
 -- Occupied --
-19.226 -19.207 -19.120 -19.108 -10.308 -10.282 -10.176  -1.198
 -1.103  -1.011  -0.972  -0.824  -0.717  -0.599  -0.583  -0.555
 -0.526  -0.494  -0.475  -0.467  -0.441  -0.429  -0.410  -0.334
 -0.329  -0.315  -0.300  -0.232
 -- Virtual --
  0.067   0.084   0.086   0.098   0.112   0.116   0.126   0.132
  0.137   0.160   0.161   0.170   0.179   0.181   0.196   0.204
  0.213   0.226   0.235   0.238   0.250   0.263   0.273   0.291
  0.297   0.305   0.311   0.325   0.338   0.352   0.355   0.367
  0.371   0.378   0.391   0.395   0.401   0.413   0.416   0.427
  0.433   0.435   0.447   0.457   0.465   0.469   0.488   0.490
  0.500   0.508   0.514   0.522   0.536   0.549   0.556   0.563
  0.572   0.578   0.584   0.595   0.606   0.627   0.635   0.649
  0.655   0.665   0.669   0.672   0.690   0.707   0.718   0.728
  0.742   0.748   0.751   0.757   0.770   0.786   0.792   0.802
  0.807   0.830   0.837   0.843   0.849   0.867   0.883   0.888
  0.903   0.927   0.932   0.946   0.955   0.989   1.025   1.034
  1.045   1.062   1.074   1.100   1.125   1.128   1.151   1.158
  1.185   1.214   1.232   1.261   1.273   1.307   1.328   1.350
  1.370   1.379   1.393   1.395   1.467   1.476   1.495   1.544
  1.569   1.592   1.648   1.674   1.730   1.752   1.776   1.835
  1.873   1.892   1.913   1.934   1.959   1.970   1.994   2.003
  2.030   2.073   2.088   2.114   2.116   2.172   2.185   2.197
  2.241   2.253   2.282   2.308   2.330   2.359   2.379   2.415
  2.438   2.471   2.486   2.521   2.556   2.571   2.637   2.646
  2.684   2.734   2.777   2.794   2.824   2.865   2.868   2.901
  2.954   2.987   2.999   3.025   3.065   3.078   3.089   3.138
  3.148   3.157   3.201   3.207   3.261   3.297   3.318   3.344
  3.383   3.394   3.435   3.450   3.465   3.490   3.504   3.537
  3.559   3.561   3.590   3.610   3.630   3.652   3.680   3.698
  3.719   3.768   3.821   3.833   3.892   3.947   3.972   4.013
  4.207   4.246   4.285   4.342   4.347   4.424   4.477   4.534
  4.660   4.684   4.835   4.875   4.929   4.957   4.984   5.036
  5.107   5.181   5.223   5.255   5.341   5.364   5.381   5.416
  5.467   5.491   5.546   5.615   5.658   5.692   5.749   5.775
  5.910   5.974   6.072   6.082   6.126   6.211   6.263   6.321
  6.447   6.526   6.613   6.654   6.658   6.697   6.750   6.774
  6.801   6.909   6.931   6.959   7.037   7.062   7.104   7.136
  7.211   7.315   7.366   7.397   7.412   7.490   7.608   8.280
 22.732  22.906  23.567  44.062  44.382  44.412  44.628
 --------------------------------------------------------------
 
          Ground-State Mulliken Net Atomic Charges

     Atom                 Charge (a.u.)
  ----------------------------------------
      1 C                    -0.348946
      2 C                    -0.583237
      3 H                     0.211725
      4 H                     0.143116
      5 H                     0.308539
      6 C                     0.274189
      7 O                    -0.800953
      8 O                    -0.800749
      9 O                    -0.265703
     10 O                    -0.477534
     11 H                     0.339552
  ----------------------------------------
  Sum of atomic charges =    -2.000000

 -----------------------------------------------------------------
                    Cartesian Multipole Moments
 -----------------------------------------------------------------
    Charge (ESU x 10^10)
                -9.6064
    Dipole Moment (Debye)
         X       6.1097      Y       8.0925      Z      -4.0544
       Tot      10.9204
    Quadrupole Moments (Debye-Ang)
        XX     -79.8879     XY      -3.5423     YY     -58.9010
        XZ      15.2873     YZ       6.0425     ZZ     -61.4382
    Octopole Moments (Debye-Ang^2)
       XXX      69.8087    XXY      42.2245    XYY      16.0823
       YYY      62.9354    XXZ     -22.7044    XYZ     -12.5144
       YYZ     -19.0142    XZZ      15.8410    YZZ      30.0468
       ZZZ     -23.6887
    Hexadecapole Moments (Debye-Ang^3)
      XXXX    -759.2817   XXXY     -59.5824   XXYY    -177.6174
      XYYY     -26.6037   YYYY    -325.1283   XXXZ     195.1858
      XXYZ      36.3713   XYYZ      58.2979   YYYZ      67.2454
      XXZZ    -177.5342   XYZZ     -18.2375   YYZZ    -112.6244
      XZZZ     140.2396   YZZZ      74.2982   ZZZZ    -293.2523
 -----------------------------------------------------------------
 Calculating analytic gradient of the SCF energy
 Gradient of SCF Energy
            1           2           3           4           5           6
    1   0.0869647  -0.0806154  -0.0027289  -0.0400193   0.0435837  -0.0155291
    2  -0.0155961   0.0819541  -0.0685432  -0.0019126   0.0320557  -0.0594598
    3  -0.0459999   0.0394250   0.0343216  -0.0675698   0.1280528  -0.0517004
            7           8           9          10          11
    1   0.0491366  -0.0307579  -0.0123354  -0.0194094   0.0217105
    2   0.0171079   0.0097694   0.0307423  -0.0437532   0.0176355
    3  -0.0148089   0.0032042  -0.0329563   0.0539120  -0.0458804
 Max gradient component =       1.281E-01
 RMS gradient           =       4.823E-02
 Computing fast CPCM-ISWIG gradient
 Updating gradient with PCM contributions...
 -- total gradient after adding PCM contribution --
---------------------------------------------------
  Atom         X              Y              Z     
---------------------------------------------------
   1      -0.000254      -0.000895       0.000352
   2       0.000108       0.000167      -0.000077
   3       0.000056       0.000456      -0.000223
   4       0.000012       0.000086      -0.000007
   5      -0.000003       0.000008       0.000024
   6       0.000083      -0.000003       0.000022
   7      -0.000003      -0.000014      -0.000019
   8      -0.000011      -0.000001       0.000008
   9       0.000019       0.000134      -0.000102
  10       0.000070       0.000055      -0.000013
  11      -0.000078       0.000007       0.000033
---------------------------------------------------
 Number of fixed atoms: 0
 Gradient time:  CPU 283.04 s  wall 20.01 s
 ----------------------------------------------------------------
             Standard Nuclear Orientation (Angstroms)
    I     Atom           X                Y                Z
 ----------------------------------------------------------------
    1      C       0.5666024865     0.8900004389    -0.3573157791
    2      C      -0.8355972628     0.5244283024    -0.0686954089
    3      H       0.6278829333     1.8530259529    -0.8786560973
    4      H       1.2044600094     0.9411939556     0.5384487943
    5      H      -1.6327781502     1.0653968478    -0.5751473525
    6      C      -1.1722808678    -0.5821744546     0.7456869715
    7      O      -2.3893429964    -0.8731436534     1.0522543753
    8      O      -0.1949958394    -1.3487470644     1.1960988742
    9      O       1.3069540668     0.0023983392    -1.2723717280
   10      O       1.6380245617    -1.1986257130    -0.5467673913
   11      H       0.8834729656    -1.2788278258     0.1670543139
 ----------------------------------------------------------------
 Nuclear Repulsion Energy =   299.6911343100 hartrees
 There are       28 alpha and       28 beta electrons
 Discretize the solute cavity surface with Lebedev spheres
	Using 110 Lebedev grid points for each H atom
	Using 110 Lebedev grid points for other atoms
	Atomic van der Waals radii will be scaled by 1.20
 Remove points where switching function is < 1.0e-08
 Keep 662 surface tesserae and discard 548 interior tesserae
 Molecular Surface Area = 133.302 Angst**2

                       Distance Matrix (Angstroms)
             C (  1)   C (  2)   H (  3)   H (  4)   H (  5)   C (  6)
   C (  2)  1.477535
   H (  3)  1.096800  2.136114
   H (  4)  1.100853  2.168906  1.781029
   H (  5)  2.217090  1.088411  2.413103  3.050482
   C (  6)  2.531330  1.414618  3.436463  2.830635  2.161285
   O (  7)  3.719298  2.371468  4.501563  4.058477  2.641735  1.288366
   O (  8)  2.829332  2.349226  3.902959  2.763116  3.321539  1.321208
   O (  9)  1.474207  2.512345  2.010217  2.042281  3.202829  3.249753
   O ( 10)  2.355036  3.052257  3.231581  2.438135  3.978034  3.154087
   H ( 11)  2.253705  2.502501  3.311698  2.273645  3.518206  2.246389
             O (  7)   O (  8)   O (  9)   O ( 10)
   O (  8)  2.249900
   O (  9)  4.453434  3.189795
   O ( 10)  4.345400  2.533788  1.441724
   H ( 11)  3.414599  1.492286  1.973024  1.041788
 
 Requested basis set is def2-TZVPD
 There are 115 shells and 307 basis functions
 A cutoff of  1.0D-14 yielded   6406 shell pairs
 There are     46354 function pairs (     59930 Cartesian)
 Smallest overlap matrix eigenvalue = 5.56E-06
 Guess MOs from SCF MO coefficient file
 Reading MOs from coefficient file
 Reading MOs from coefficient file
 Long-range K will be added via erf
 Coulomb attenuation parameter = 0.3 bohr**(-1)
 A restricted hybrid HF-DFT SCF calculation will be
 performed using Pulay DIIS extrapolation
 Polarizable Continuum solvation model will be applied
 Exchange:     0.1670 Hartree-Fock + 1.0000 wB97X-V + LR-HF
 Correlation:  1.0000 wB97X-V
 Using SG-2 standard quadrature grid
 Nonlocal Correlation:  VV10 with C = 0.0100 and b = 6.00
 Grid used for NLC:  SG-1 standard quadrature
 SCF converges when DIIS error is below 1.0E-08
Using Q-Chem read-in guess as SCF_GUESS READ specified.

 using 16 threads for integral computing
 -------------------------------------------------------
 OpenMP Integral computing Module                
 Release: version 1.0, May 2013, Q-Chem Inc. Pittsburgh 
 -------------------------------------------------------
 using 16 threads for integral computing
 -------------------------------------------------------
 OpenMP Integral computing Module                
 Release: version 1.0, May 2013, Q-Chem Inc. Pittsburgh 
 -------------------------------------------------------
 -------------------------------------------------------
 OpenMP BLAS3 based DFT computing Module                
 Release: version 1.0, May 2013, Q-Chem Inc. Pittsburgh 
 -------------------------------------------------------
 -------------------------------------------------------
 OpenMP BLAS3 based DFT computing Module                
 Release: version 1.0, May 2013, Q-Chem Inc. Pittsburgh 
 -------------------------------------------------------
 -------------------------------------------------------
 OpenMP BLAS3 based DFT computing Module                
 Release: version 1.0, May 2013, Q-Chem Inc. Pittsburgh 
 -------------------------------------------------------
 ---------------------------------------
  Cycle       Energy         DIIS Error
 ---------------------------------------
    1    -417.4594788733      5.01E-04
    2    -417.7941187450      5.76E-04
    3    -417.8002759849      2.50E-04
    4    -417.8012770141      1.81E-04
    5    -417.8018344908      1.39E-04
    6    -417.8021904097      1.03E-04
    7    -417.8024319974      7.12E-05
    8    -417.8025377462      5.15E-05
    9    -417.8026254804      2.55E-05
   10    -417.8026516955      7.61E-06
   11    -417.8026541066      1.58E-06
   12    -417.8026542074      3.67E-07
   13    -417.8026542124      6.84E-08
   14    -417.8026542126      1.45E-08
   15    -417.8026542126      6.66E-09 Convergence criterion met
 ---------------------------------------

************** Final PCM Free Energy Summary **************
 G_electrostatic  =      -0.34307665 hartree =    -215.28384681 kcal/mol
 G_cavitation     =       0.00000000 hartree =       0.00000000 kcal/mol
 G_dispersion     =       0.00000000 hartree =       0.00000000 kcal/mol
 G_repulsion      =       0.00000000 hartree =       0.00000000 kcal/mol
 --------------------------------------------------
 Non-electrostatic Free Energy =       0.00000000 hartree =       0.00000000 kcal/mol
 Total                         =      -0.34307665 hartree =    -215.28384681 kcal/mol
 --------------------------------------------------
 SCF Energy (H0 + V/2)                       =    -417.80265421 
 Solute Internal Energy (H0)                 =    -417.45957756 
 Total Free Energy (H0 + V/2 + non-elec)     =    -417.80265421 hartree
                                             = -262175.12252734 kcal/mol
***********************************************************

 SCF time:  CPU 1111.22 s  wall 77.34 s
 SCF   energy in the final basis set = -417.80265421
 Total energy in the final basis set = -417.80265421
 
 --------------------------------------------------------------
 
                    Orbital Energies (a.u.)
 --------------------------------------------------------------
 
 Alpha MOs
 -- Occupied --
-19.225 -19.207 -19.120 -19.108 -10.308 -10.282 -10.176  -1.197
 -1.103  -1.011  -0.972  -0.824  -0.717  -0.598  -0.583  -0.555
 -0.526  -0.494  -0.475  -0.467  -0.441  -0.429  -0.410  -0.334
 -0.329  -0.315  -0.300  -0.232
 -- Virtual --
  0.067   0.084   0.086   0.098   0.112   0.116   0.126   0.132
  0.137   0.160   0.161   0.170   0.179   0.181   0.196   0.204
  0.213   0.226   0.235   0.238   0.250   0.263   0.273   0.291
  0.297   0.305   0.311   0.325   0.338   0.352   0.355   0.367
  0.371   0.378   0.391   0.395   0.401   0.413   0.416   0.427
  0.433   0.435   0.447   0.457   0.465   0.469   0.488   0.490
  0.500   0.508   0.514   0.522   0.536   0.549   0.556   0.563
  0.572   0.578   0.584   0.595   0.606   0.627   0.635   0.649
  0.655   0.665   0.669   0.672   0.690   0.707   0.718   0.728
  0.742   0.748   0.750   0.757   0.770   0.787   0.792   0.802
  0.807   0.830   0.837   0.843   0.849   0.867   0.883   0.888
  0.903   0.927   0.932   0.946   0.955   0.989   1.025   1.034
  1.045   1.062   1.074   1.100   1.125   1.128   1.151   1.159
  1.185   1.214   1.232   1.261   1.273   1.307   1.328   1.350
  1.370   1.379   1.393   1.395   1.467   1.476   1.495   1.545
  1.569   1.592   1.648   1.674   1.730   1.752   1.776   1.835
  1.873   1.892   1.912   1.934   1.959   1.970   1.994   2.003
  2.030   2.073   2.088   2.113   2.116   2.172   2.185   2.197
  2.241   2.253   2.281   2.308   2.330   2.359   2.379   2.415
  2.437   2.471   2.486   2.521   2.557   2.571   2.637   2.646
  2.685   2.734   2.777   2.793   2.824   2.865   2.868   2.901
  2.954   2.987   2.999   3.025   3.065   3.078   3.089   3.138
[...]
    11    1.116472140846285e-01  -4.111393006881876e-03  -1.112929551281920e-01


    11 Order 1, Length 33
    Atom      X          Y          Z
     1    1.229628111551100e-02  -2.583287144250486e-03  -8.036741355279289e-03
     2   -2.839719639774976e-03  -8.763638773627611e-03   4.615724448882686e-03
     3   -1.235206541826210e-03   1.110734476863244e-03   1.080706653813479e-03
     4   -5.520476955933327e-04   3.811717294273466e-04   6.621634187145648e-04
     5   -1.239027858765979e-04  -1.189368509306946e-03   9.876440235576911e-04
     6   -3.236920772748213e-02   2.423744277619424e-02  -1.255820972185645e-02
     7    1.127817928582393e-02  -1.531198295197531e-03   2.911566033081816e-03
     8    2.548555807620330e-02  -1.123310690760739e-02  -2.438058797676863e-02
     9    5.123837486733328e-03   1.413561266786883e-02  -1.253141411811034e-02
    10   -1.513135436754746e-01  -1.169217575909068e-03   1.116472140846285e-01
    11    1.342409612581409e-01  -1.340886561455734e-02  -6.441506534613853e-02

Order 1, Length 33
    Atom      X          Y          Z
     1    1.292300836821149e-03  -4.072744352387266e-03   1.286165697000406e-03
     2    4.330879427129117e-04  -2.308026896017524e-03   1.614380445840050e-03
     3   -2.107446605184162e-04   7.786688858953351e-04  -6.642881370080877e-04
     4   -7.308083908364323e-04  -8.172680374222078e-04  -5.848073875794387e-04
     5   -5.018678397003659e-04   2.133108401038677e-04   1.889591533430621e-04
     6    3.688714452561158e-03   4.555671446316657e-03  -8.335673805388650e-03
     7    5.136661392182464e-04  -2.352306465416659e-04   1.467268175419100e-03
     8    1.537305193539993e-03  -2.153723351894778e-02   5.009745392350990e-03
     9   -2.134190321853812e-02  -1.698880014640476e-02   3.249054786592660e-02
    10    2.872079290567604e-02  -4.505056348593842e-02  -4.111393006881876e-03
    11   -1.340886561455734e-02   8.544302617400724e-02  -2.838692675994082e-02

Order 1, Length 33
    Atom      X          Y          Z
     1   -6.997045063469653e-03   5.123535213260881e-03   1.071614143604244e-02
     2    2.115385928746902e-03   7.544707689738304e-03  -5.891160357313636e-03
     3    1.031646071385985e-03  -1.502008328701798e-03  -1.327377813259635e-03
     4    2.767345706220877e-05  -5.365035276233411e-04  -9.191431196089656e-04
     5    3.592348219473808e-04   7.734813266773767e-04  -1.224839971201225e-03
     6    1.788091757103506e-02  -2.411957095678606e-02   1.953288773006887e-02
     7   -1.157892318484568e-02   3.834871502589531e-03  -3.337537929073271e-03
     8   -3.516051934011209e-02   1.354749442381745e-02   1.610431521657781e-03
     9    1.223330850670646e-02  -3.661556654748340e-03  -1.661456290999327e-02
    10    8.452528243176388e-02   2.742933739348302e-02  -1.112929551281920e-01
    11   -6.441506534613853e-02  -2.838692675994082e-02   1.088100548796026e-01




 # Finishing finite difference calculation for IDERIV #
 ######################################################
 ######################################################
 Requested basis set is def2-TZVPD
 There are 115 shells and 307 basis functions
 **********************************************************************
 **                                                                  **
 **                       VIBRATIONAL ANALYSIS                       **
 **                       --------------------                       **
 **                                                                  **
 **        VIBRATIONAL FREQUENCIES (CM**-1) AND NORMAL MODES         **
 **     FORCE CONSTANTS (mDYN/ANGSTROM) AND REDUCED MASSES (AMU)     **
 **                  INFRARED INTENSITIES (KM/MOL)                   **
 **                                                                  **
 **********************************************************************
 

 Mode:                 1                      2                      3
 Frequency:        99.93                 123.92                 258.17
 Force Cnst:      0.0620                 0.1003                 0.3083
 Red. Mass:      10.5355                11.0844                 7.8501
 IR Active:          YES                    YES                    YES
 IR Intens:        0.215                 14.049                111.528
 Raman Active:       YES                    YES                    YES
               X      Y      Z        X      Y      Z        X      Y      Z
 C         -0.046 -0.014 -0.108   -0.080 -0.048  0.005    0.026 -0.080  0.034
 C         -0.040  0.068  0.068   -0.088 -0.351 -0.408    0.073 -0.129  0.054
 H         -0.107 -0.066 -0.211   -0.123  0.022  0.131    0.002 -0.003  0.175
 H          0.073  0.085 -0.196   -0.358 -0.018  0.208    0.116 -0.259 -0.028
 H         -0.066  0.298  0.356   -0.098 -0.041 -0.054    0.092 -0.250 -0.113
 C         -0.051  0.000 -0.035   -0.076 -0.062 -0.028   -0.054 -0.071  0.137
 O         -0.032  0.179  0.216   -0.040  0.202  0.383   -0.177  0.132 -0.073
 O         -0.100 -0.272 -0.380   -0.061 -0.087 -0.098   -0.204 -0.080  0.334
 O         -0.148 -0.157 -0.051    0.380  0.243  0.124    0.001  0.052 -0.199
 O          0.380  0.194  0.274   -0.052 -0.012 -0.096    0.307  0.140 -0.208
 H          0.136 -0.081  0.024   -0.097  0.027 -0.120    0.425 -0.038 -0.387
 TransDip  -0.000 -0.015 -0.001   -0.037  0.092  0.068    0.278 -0.075 -0.178

 Mode:                 4                      5                      6
 Frequency:       285.24                 412.26                 475.89
 Force Cnst:      0.2085                 0.3469                 0.1657
 Red. Mass:       4.3489                 3.4639                 1.2420
 IR Active:          YES                    YES                    YES
 IR Intens:        7.534                 42.709                157.222
 Raman Active:       YES                    YES                    YES
               X      Y      Z        X      Y      Z        X      Y      Z
 C         -0.054 -0.130  0.191   -0.076  0.082 -0.115    0.036 -0.012 -0.042
 C         -0.141  0.068 -0.064   -0.065  0.150  0.182    0.012 -0.036 -0.010
 H          0.251 -0.020  0.429   -0.259 -0.125 -0.520   -0.048 -0.019 -0.062
 H         -0.182 -0.501  0.293   -0.006  0.545 -0.189    0.097  0.045 -0.081
 H         -0.060  0.179 -0.069   -0.073 -0.201 -0.191   -0.005  0.639  0.741
 C         -0.081  0.074 -0.045   -0.067  0.024  0.076   -0.040  0.011  0.012
 O         -0.025 -0.058  0.059   -0.059 -0.076  0.035   -0.042 -0.064 -0.002
 O          0.060  0.236 -0.091   -0.055  0.014 -0.037   -0.011  0.044  0.019
 O         -0.054 -0.060  0.050    0.189  0.001  0.060    0.043 -0.000 -0.025
 O          0.211 -0.098 -0.112    0.094 -0.140 -0.101    0.001  0.004  0.000
 H          0.251 -0.124 -0.119    0.118 -0.096 -0.137   -0.003  0.035  0.004
 TransDip   0.022 -0.062  0.059    0.014 -0.138 -0.156    0.051  0.360  0.170

 Mode:                 7                      8                      9
 Frequency:       498.90                 641.99                 673.20
 Force Cnst:      0.5892                 1.1964                 1.1949
 Red. Mass:       4.0179                 4.9267                 4.4749
 IR Active:          YES                    YES                    YES
 IR Intens:       27.771                108.505                 10.346
 Raman Active:       YES                    YES                    YES
               X      Y      Z        X      Y      Z        X      Y      Z
 C         -0.174  0.088  0.030   -0.200 -0.223 -0.040   -0.117  0.080 -0.032
 C         -0.058 -0.086 -0.057   -0.150  0.019  0.200   -0.139  0.217 -0.125
 H         -0.290 -0.040 -0.218   -0.080 -0.071  0.263    0.370  0.208  0.270
 H         -0.176  0.390  0.026   -0.242 -0.572  0.004   -0.281 -0.466  0.105
 H         -0.202  0.235  0.531   -0.280 -0.112  0.272   -0.262  0.284  0.151
 C          0.131 -0.017 -0.010    0.043 -0.014  0.108    0.105  0.089 -0.012
 O          0.058  0.186 -0.145   -0.028  0.145 -0.139    0.217 -0.078  0.014
 O          0.090 -0.072  0.062    0.169 -0.005 -0.051   -0.190 -0.147  0.127
 O         -0.122 -0.004  0.173    0.197  0.012 -0.125    0.083 -0.024 -0.069
 O          0.081 -0.122 -0.082   -0.064  0.046  0.072    0.012 -0.040  0.024
 H          0.197 -0.215 -0.016   -0.106  0.199  0.109    0.033 -0.041 -0.031
 TransDip   0.006  0.141  0.092   -0.294 -0.092  0.128   -0.053  0.066  0.059

 Mode:                10                     11                     12
 Frequency:       803.94                 818.68                 905.49
 Force Cnst:      3.2029                 3.3988                 1.7072
 Red. Mass:       8.4112                 8.6070                 3.5341
 IR Active:          YES                    YES                    YES
 IR Intens:       52.919                177.465                 59.436
 Raman Active:       YES                    YES                    YES
               X      Y      Z        X      Y      Z        X      Y      Z
 C          0.079 -0.372 -0.161   -0.060  0.372  0.181   -0.145 -0.082  0.191
 C          0.012 -0.045 -0.097    0.058 -0.197 -0.164    0.098 -0.108  0.069
 H          0.045 -0.437 -0.305    0.030  0.411  0.279   -0.752 -0.203 -0.091
 H         -0.136  0.013 -0.005    0.010  0.024  0.115    0.185  0.279 -0.072
 H          0.070 -0.020 -0.151   -0.057 -0.242 -0.028    0.219 -0.004  0.014
 C          0.059  0.393  0.360   -0.000  0.236  0.459    0.037  0.042 -0.053
 O          0.084 -0.101 -0.104   -0.108 -0.073 -0.094    0.193  0.004 -0.015
 O         -0.089 -0.070 -0.084    0.060 -0.032 -0.158   -0.184  0.114 -0.057
 O         -0.086  0.076  0.240    0.031 -0.084 -0.210    0.036 -0.019 -0.090
 O         -0.015  0.150 -0.090    0.029 -0.130  0.087   -0.011  0.006  0.024
 H         -0.075 -0.133 -0.157   -0.153 -0.017 -0.097   -0.094  0.019 -0.125
 TransDip   0.181 -0.012 -0.146   -0.191  0.195  0.328   -0.206 -0.045  0.128

 Mode:                13                     14                     15
 Frequency:       971.99                1016.66                1052.55
 Force Cnst:      1.1516                 1.0712                 1.5085
 Red. Mass:       2.0689                 1.7590                 2.3110
 IR Active:          YES                    YES                    YES
 IR Intens:       48.185                 90.844                152.980
 Raman Active:       YES                    YES                    YES
               X      Y      Z        X      Y      Z        X      Y      Z
 C          0.006 -0.053 -0.055   -0.012  0.019  0.085    0.012 -0.086  0.125
 C          0.035 -0.014  0.014   -0.025  0.020 -0.037   -0.078  0.120 -0.101
 H         -0.091  0.052  0.117   -0.022 -0.099 -0.120   -0.400 -0.214 -0.169
 H          0.005 -0.041 -0.048    0.047  0.136  0.037    0.202  0.319 -0.043
 H          0.060 -0.020 -0.030    0.043  0.090 -0.069    0.327  0.462 -0.378
 C         -0.006  0.039 -0.002   -0.006  0.007  0.015   -0.048  0.047 -0.007
 O          0.003 -0.008  0.002   -0.011 -0.000 -0.000   -0.038 -0.005  0.004
 O         -0.030 -0.014 -0.015    0.006 -0.036 -0.006    0.117 -0.109  0.069
 O         -0.064  0.170 -0.050    0.047 -0.138  0.023    0.002  0.052 -0.084
 O          0.038 -0.153  0.050   -0.046  0.096 -0.089    0.007 -0.027  0.042
 H          0.470  0.425  0.701    0.517  0.556  0.556   -0.172 -0.124 -0.103
 TransDip   0.114  0.148  0.121    0.005  0.168  0.255   -0.375  0.126 -0.028

 Mode:                16                     17                     18
 Frequency:      1139.95                1271.08                1294.63
 Force Cnst:      1.8142                 2.0733                 1.2602
 Red. Mass:       2.3695                 2.1780                 1.2761
 IR Active:          YES                    YES                    YES
 IR Intens:       56.307                535.976                 35.390
 Raman Active:       YES                    YES                    YES
               X      Y      Z        X      Y      Z        X      Y      Z
 C         -0.208  0.020 -0.085    0.043 -0.012 -0.001    0.040  0.022 -0.063
 C          0.235  0.043 -0.001    0.054 -0.014  0.032   -0.076 -0.017  0.003
 H         -0.175  0.153  0.187   -0.481  0.153  0.263   -0.444  0.364  0.506
 H         -0.324 -0.370  0.023   -0.281  0.114  0.203    0.467 -0.147 -0.348
 H          0.602  0.359 -0.230   -0.387 -0.434  0.292    0.068  0.075 -0.139
 C         -0.012  0.014 -0.010   -0.045  0.221 -0.163   -0.045 -0.006  0.025
 O         -0.058 -0.028  0.024   -0.041 -0.035  0.030    0.041  0.014 -0.016
 O          0.038 -0.020  0.011    0.053 -0.067  0.052    0.002 -0.002  0.001
 O          0.006 -0.030  0.056    0.016 -0.042 -0.016    0.008 -0.030  0.059
 O         -0.005  0.014 -0.017    0.008  0.015 -0.020    0.003  0.004 -0.020
 H          0.027 -0.059 -0.016   -0.059 -0.096  0.085    0.017 -0.039  0.024
 TransDip  -0.238 -0.003  0.031   -0.034  0.627 -0.394   -0.152 -0.114 -0.004

 Mode:                19                     20                     21
 Frequency:      1341.71                1364.16                1448.37
 Force Cnst:      3.0981                 1.6618                 1.5425
 Red. Mass:       2.9210                 1.5157                 1.2480
 IR Active:          YES                    YES                    YES
 IR Intens:      510.524                513.193                195.291
 Raman Active:       YES                    YES                    YES
               X      Y      Z        X      Y      Z        X      Y      Z
 C         -0.044 -0.049  0.051   -0.096  0.029  0.044   -0.083 -0.055 -0.005
 C          0.069  0.134 -0.117    0.043 -0.029 -0.001   -0.009 -0.036  0.026
 H         -0.335 -0.061 -0.000    0.356 -0.200 -0.329    0.541  0.150  0.428
 H          0.509 -0.223 -0.331    0.563 -0.379 -0.399    0.178  0.625 -0.210
 H         -0.408 -0.289  0.199   -0.118 -0.180  0.101    0.103  0.041 -0.043
 C          0.281 -0.039  0.005   -0.121  0.081 -0.052    0.058  0.051 -0.042
 O         -0.170 -0.041  0.043    0.031 -0.003  0.001   -0.032 -0.012  0.012
 O         -0.037  0.029 -0.023    0.041 -0.034  0.023   -0.001 -0.006  0.005
 O          0.002  0.016  0.026    0.006  0.026  0.023    0.010 -0.008 -0.011
 O         -0.017 -0.001  0.014    0.004  0.000 -0.004   -0.003  0.005 -0.000
 H          0.096 -0.030 -0.064   -0.023 -0.041  0.047   -0.011 -0.023 -0.013
 TransDip   0.709 -0.133 -0.052   -0.690  0.226 -0.006    0.271  0.309 -0.176

 Mode:                22                     23                     24
 Frequency:      1470.54                1696.98                2344.11
 Force Cnst:      3.9309                 1.8218                 3.6391
 Red. Mass:       3.0852                 1.0738                 1.1241
 IR Active:          YES                    YES                    YES
 IR Intens:      987.991                143.877               2476.087
 Raman Active:       YES                    YES                    YES
               X      Y      Z        X      Y      Z        X      Y      Z
 C          0.044  0.094 -0.008   -0.001  0.002 -0.006    0.008 -0.002 -0.005
 C         -0.176 -0.176  0.139   -0.003 -0.007  0.006   -0.002 -0.008  0.006
 H         -0.002 -0.093 -0.347   -0.014  0.004  0.007   -0.009  0.005  0.014
 H          0.036 -0.486  0.015    0.016 -0.035 -0.013   -0.012  0.003 -0.003
 H          0.477  0.319 -0.312    0.011  0.000 -0.000   -0.008 -0.008  0.007
 C          0.217  0.151 -0.122    0.013  0.016 -0.019   -0.023  0.021 -0.013
 O         -0.083 -0.025  0.025   -0.005 -0.003  0.003    0.007 -0.001  0.001
 O         -0.023 -0.007  0.006    0.005 -0.015  0.011    0.017 -0.008 -0.005
 O          0.012  0.002 -0.003   -0.017 -0.008  0.028   -0.002  0.006 -0.002
 O         -0.004  0.002  0.001    0.032 -0.033 -0.002   -0.057 -0.008  0.055
 H          0.051 -0.123  0.054   -0.358  0.843 -0.394    0.764  0.053 -0.636
 TransDip   0.715  0.514 -0.487    0.042  0.313 -0.219    1.169  0.196 -1.065

 Mode:                25                     26                     27
 Frequency:      2984.13                3079.49                3152.44
 Force Cnst:      5.6012                 6.1122                 6.3741
 Red. Mass:       1.0676                 1.0939                 1.0886
 IR Active:          YES                    YES                    YES
 IR Intens:      156.394                 57.859                 85.854
 Raman Active:       YES                    YES                    YES
               X      Y      Z        X      Y      Z        X      Y      Z
 C         -0.047 -0.020 -0.053    0.006 -0.069  0.054    0.002  0.009 -0.007
 C         -0.001  0.001 -0.000   -0.006  0.005 -0.005   -0.061  0.043 -0.039
 H          0.005  0.227 -0.128    0.048  0.842 -0.456   -0.010 -0.106  0.059
 H          0.548  0.033  0.791   -0.141 -0.015 -0.192    0.013  0.001  0.019
 H          0.004 -0.009  0.001    0.091 -0.061  0.061    0.723 -0.494  0.458
 C         -0.000  0.002 -0.001   -0.000 -0.000 -0.000   -0.003 -0.003  0.002
 O         -0.000 -0.000  0.000   -0.000 -0.000  0.000    0.001  0.000 -0.000
 O          0.001 -0.000  0.000   -0.000 -0.000  0.000    0.000  0.000 -0.000
 O          0.001 -0.001 -0.003    0.001 -0.001  0.001   -0.000  0.000 -0.000
 O         -0.000 -0.000  0.001   -0.000  0.001 -0.000   -0.000 -0.000  0.000
 H          0.005 -0.002 -0.007    0.001  0.005 -0.002    0.003 -0.003 -0.001
 TransDip  -0.289 -0.201 -0.192   -0.022 -0.187  0.154   -0.231  0.133 -0.130

 STANDARD THERMODYNAMIC QUANTITIES AT   298.15 K  AND     1.00 ATM

   This Molecule has  0 Imaginary Frequencies
   Zero point vibrational energy:       45.212 kcal/mol

   Atom    1 Element C  Has Mass   12.00000
   Atom    2 Element C  Has Mass   12.00000
   Atom    3 Element H  Has Mass    1.00783
   Atom    4 Element H  Has Mass    1.00783
   Atom    5 Element H  Has Mass    1.00783
   Atom    6 Element C  Has Mass   12.00000
   Atom    7 Element O  Has Mass   15.99491
   Atom    8 Element O  Has Mass   15.99491
   Atom    9 Element O  Has Mass   15.99491
   Atom   10 Element O  Has Mass   15.99491
   Atom   11 Element H  Has Mass    1.00783
   Molecular Mass:   104.010960 amu
   Principal axes and moments of inertia in amu*Bohr^2:
                             1           2           3
    Eigenvalues --      334.30486   948.73970  1191.35747
          X               0.85198    -0.34574     0.39318
          Y               0.15222     0.88209     0.44582
          Z              -0.50095    -0.31998     0.80415
   Rotational Symmetry Number is   1
   The Molecule is an Asymmetric Top
   Translational Enthalpy:        0.889 kcal/mol
   Rotational Enthalpy:           0.889 kcal/mol
   Vibrational Enthalpy:         47.567 kcal/mol
   gas constant (RT):             0.592 kcal/mol
   Translational Entropy:        39.835  cal/mol.K
   Rotational Entropy:           27.426  cal/mol.K
   Vibrational Entropy:          13.683  cal/mol.K

   Total Enthalpy:               49.937 kcal/mol
   Total Entropy:                80.945  cal/mol.K
Archival summary:
1\1\c5-83\FREQ\ProcedureUnspecified\BasisUnspecified\434(2-,1)\leeping\FriMar2023:31:342020FriMar2023:31:342020\0\\#,FREQ,ProcedureUnspecified,BasisUnspecified,\\-2,1\O\C,1,1.32121\O,2,1.28837,1,119.117\C,2,1.41462,1,118.3,3,-179.437,0\H,4,1.08841,2,118.84,1,170.233,0\C,4,1.47773,2,122.154,1,-3.75697,0\H,6,1.09632,4,111.307,2,-171.607,0\H,6,1.10167,4,113.663,2,-49.066,0\O,6,1.47359,4,116.698,2,72.0082,0\O,9,1.44172,6,107.756,4,-74.7464,0\H,10,1.04179,9,104.044,6,27.8959,0\\\@

 Total job time:  6863.95s(wall), 98208.80s(cpu) 
 Fri Mar 20 23:31:34 2020

        *************************************************************
        *                                                           *
        *  Thank you very much for using Q-Chem.  Have a nice day.  *
        *                                                           *
        *************************************************************


