
Running Job 1 of 1 qc-freq1.in
qchem qc-freq1.in_3064.0 /scratch/leeping/1862738/qc-freq1.d/ 1
/home/leeping/opt/qchem/5.0.2-openmp/exe/qcprog.exe_s qc-freq1.in_3064.0 /scratch/leeping/1862738/qc-freq1.d/
Check license passed

                  Welcome to Q-Chem
     A Quantum Leap Into The Future Of Chemistry


 Q-Chem 5.0, Q-Chem, Inc., Pleasanton, CA (2017)

 Yihan Shao,  Zhengting Gan,  E. Epifanovsky,  A. T. B. Gilbert,  M. Wormit,  
 J. Kussmann,  A. W. Lange,  A. Behn,  Jia Deng,  Xintian Feng,  D. Ghosh,  
 M. Goldey,  P. R. Horn,  L. D. Jacobson,  I. Kaliman,  T. Kus,  A. Landau,  
 Jie Liu,  E. I. Proynov,  R. M. Richard,  R. P. Steele,  E. J. Sundstrom,  
 H. L. Woodcock III,  P. M. Zimmerman,  D. Zuev,  B. Albrecht,  E. Alguire,  
 S. A. Baeppler,  D. Barton,  Z. Benda,  Y. A. Bernard,  E. J. Berquist,  
 K. B. Bravaya,  H. Burton,  D. Casanova,  Chun-Min Chang,  Yunqing Chen,  
 A. Chien,  K. D. Closser,  M. P. Coons,  S. Dasgupta,  A. L. Dempwolff,  
 M. Diedenhofen,  Hainam Do,  R. G. Edgar,  Po-Tung Fang,  S. Fatehi,  
 Qingguo Feng,  J. Fosso-Tande,  Qinghui Ge,  A. Ghysels,  G. Gidofalvi,  
 J. Gomes,  J. Gonthier,  A. Gunina,  M. W. D. Hanson-Heine,  
 P. H. P. Harbach,  A. W. Hauser,  J. E. Herr,  E. G. Hohenstein,  
 Z. C. Holden,  Kerwin Hui,  T.-C. Jagau,  Hyunjun Ji,  B. Kaduk,  
 K. Khistyaev,  Jaehoon Kim,  P. Klunzinger,  K. Koh,  D. Kosenkov,  
 L. Koulias,  T. Kowalczyk,  C. M. Krauter,  A. Kunitsa,  Ka Un Lao,  
 A. Laurent,  K. V. Lawler,  Joonho Lee,  D. Lefrancois,  S. Lehtola,  
 D. S. Levine,  Yi-Pei Li,  You-Sheng Lin,  Fenglai Liu,  E. Livshits,  
 A. Luenser,  P. Manohar,  E. Mansoor,  S. F. Manzer,  Shan-Ping Mao,  
 Yuezhi Mao,  N. Mardirossian,  A. V. Marenich,  T. Markovich,  
 L. A. Martinez-Martinez,  S. A. Maurer,  N. J. Mayhall,  S. C. McKenzie,  
 J.-M. Mewes,  A. F. Morrison,  J. W. Mullinax,  K. Nanda,  
 T. S. Nguyen-Beck,  R. Olivares-Amaya,  J. A. Parkhill,  T. M. Perrine,  
 F. Plasser,  S. Prager,  A. Prociuk,  E. Ramos,  D. R. Rehn,  F. Rob,  
 M. Schneider,  N. Sergueev,  S. M. Sharada,  S. Sharma,  D. W. Small,  
 T. Stauch,  T. Stein,  Yu-Chuan Su,  A. J. W. Thom,  A. Tkatchenko,  
 T. Tsuchimochi,  L. Vogt,  O. Vydrov,  M. A. Watson,  J. Wenzel,  
 M. de Wergifosse,  T. A. Wesolowski,  A. White,  J. Witte,  A. Yamada,  
 Jun Yang,  K. Yao,  S. Yeganeh,  S. R. Yost,  Zhi-Qiang You,  A. Zech,  
 Igor Ying Zhang,  Xing Zhang,  Yan Zhao,  Ying Zhu,  B. R. Brooks,  
 G. K. L. Chan,  C. J. Cramer,  M. S. Gordon,  W. J. Hehre,  A. Klamt,  
 M. W. Schmidt,  C. D. Sherrill,  D. G. Truhlar,  A. Aspuru-Guzik,  R. Baer,  
 A. T. Bell,  N. A. Besley,  Jeng-Da Chai,  R. A. DiStasio Jr.,  A. Dreuw,  
 B. D. Dunietz,  T. R. Furlani,  Chao-Ping Hsu,  Yousung Jung,  Jing Kong,  
 D. S. Lambrecht,  WanZhen Liang,  C. Ochsenfeld,  V. A. Rassolov,  
 L. V. Slipchenko,  J. E. Subotnik,  T. Van Voorhis,  J. M. Herbert,  
 A. I. Krylov,  P. M. W. Gill,  M. Head-Gordon

 Contributors to earlier versions of Q-Chem not listed above: 
 R. D. Adamson,  B. Austin,  J. Baker,  G. J. O. Beran,  K. Brandhorst,  
 S. T. Brown,  E. F. C. Byrd,  A. K. Chakraborty,  C.-L. Cheng,  
 Siu Hung Chien,  D. M. Chipman,  D. L. Crittenden,  H. Dachsel,  
 R. J. Doerksen,  A. D. Dutoi,  L. Fusti-Molnar,  W. A. Goddard III,  
 A. Golubeva-Zadorozhnaya,  S. R. Gwaltney,  G. Hawkins,  A. Heyden,  
 S. Hirata,  G. Kedziora,  F. J. Keil,  C. Kelley,  Jihan Kim,  R. A. King,  
 R. Z. Khaliullin,  P. P. Korambath,  W. Kurlancheek,  A. M. Lee,  M. S. Lee,  
 S. V. Levchenko,  Ching Yeh Lin,  D. Liotard,  R. C. Lochan,  I. Lotan,  
 P. E. Maslen,  N. Nair,  D. P. O'Neill,  D. Neuhauser,  E. Neuscamman,  
 C. M. Oana,  R. Olson,  B. Peters,  R. Peverati,  P. A. Pieniazek,  
 Y. M. Rhee,  J. Ritchie,  M. A. Rohrdanz,  E. Rosta,  N. J. Russ,  
 H. F. Schaefer III,  N. E. Schultz,  N. Shenvi,  A. C. Simmonett,  A. Sodt,  
 D. Stuck,  K. S. Thanthiriwatte,  V. Vanovschi,  Tao Wang,  A. Warshel,  
 C. F. Williams,  Q. Wu,  X. Xu,  W. Zhang

 Please cite Q-Chem as follows:
 Y. Shao et al., Mol. Phys. 113, 184-215 (2015)
 DOI: 10.1080/00268976.2014.952696

 Q-Chem 5.0.2 for Intel X86 EM64T Linux

 Parts of Q-Chem use Armadillo 5.200.1 (Boston Tea Smuggler).
 http://arma.sourceforge.net/

 Q-Chem begins on Fri Mar 20 21:30:04 2020  

Host: 
0

     Scratch files written to /scratch/leeping/1862738/qc-freq1.d//
 Dec517 15110_ 26548  26544 5633   
Processing $rem in /home/leeping/opt/qchem/5.0.2-openmp/config/preferences.
 MEM_STATIC 2000
 MEM_TOTAL  8000
 SYMMETRY   OFF
 SYM_IGNORE TRUE 
Symmetry turned off for PCM/SM12/SMD calculation

Checking the input file for inconsistencies... 	...done.

--------------------------------------------------------------
User input:
--------------------------------------------------------------
$molecule
-2 1
C       -3.2014652847   -0.8016756431    0.6257216642
H       -3.1674949593    0.1604165326    1.1446936724
H       -4.0324006388   -0.8107585816   -0.0785651821
H       -3.3405854418   -1.5794970745    1.3807237201
C       -1.8954419061   -1.0200564271   -0.0959692282
C        1.0173866519    1.5828120549   -0.4300012103
H        0.1365246156    1.0036007990   -0.7396540435
H        0.6806818190    2.4017270601    0.2205053064
C        1.9833972047    0.7043363929    0.3730125233
H        1.5248333790    0.5203528251    1.3531576577
H        2.9134509067    1.2558079889    0.5368308066
C        2.3050942795   -0.6577176978   -0.2314107919
O        1.7002733733    1.2315078705   -2.6237539628
O       -0.8608450288   -1.0915319101    0.7089317304
H        0.0674659125   -1.2125396143    0.1887034835
O       -1.8157452858   -1.1132576276   -1.3143653298
O        3.4823399625   -0.9391796638   -0.5219359692
O        1.3307949122   -1.4802178655   -0.3672430914
O        1.5866701861    2.2073151914   -1.5496232123
$end

$rem
jobtype               freq
method                wb97x-v
basis                 def2-tzvpd
symmetry              off
sym_ignore            true
incdft                false
incfock               0
!scf_algorithm        diis_gdm
scf_convergence       8
thresh                14
!purecart             112
max_scf_cycles        1000
geom_opt_max_cycles   500
geom_opt_dmax         100
geom_opt_tol_gradient 10
solvent_method        pcm
ideriv                1
rpath_tol_displacement 1000
rpath_max_cycles      100
rpath_direction       1
!scf_guess            read
scf_guess             read
$end

$pcm
theory              cosmo
method              iswig
Radii               bondi
vdwScale            1.20
hpoints             110
heavypoints         110
$end

$solvent
dielectric 78.400000
$end

--------------------------------------------------------------
 ----------------------------------------------------------------
             Standard Nuclear Orientation (Angstroms)
    I     Atom           X                Y                Z
 ----------------------------------------------------------------
    1      C      -3.2014652847    -0.8016756431     0.6257216642
    2      H      -3.1674949593     0.1604165326     1.1446936724
    3      H      -4.0324006388    -0.8107585816    -0.0785651821
    4      H      -3.3405854418    -1.5794970745     1.3807237201
    5      C      -1.8954419061    -1.0200564271    -0.0959692282
    6      C       1.0173866519     1.5828120549    -0.4300012103
    7      H       0.1365246156     1.0036007990    -0.7396540435
    8      H       0.6806818190     2.4017270601     0.2205053064
    9      C       1.9833972047     0.7043363929     0.3730125233
   10      H       1.5248333790     0.5203528251     1.3531576577
   11      H       2.9134509067     1.2558079889     0.5368308066
   12      C       2.3050942795    -0.6577176978    -0.2314107919
   13      O       1.7002733733     1.2315078705    -2.6237539628
   14      O      -0.8608450288    -1.0915319101     0.7089317304
   15      H       0.0674659125    -1.2125396143     0.1887034835
   16      O      -1.8157452858    -1.1132576276    -1.3143653298
   17      O       3.4823399625    -0.9391796638    -0.5219359692
   18      O       1.3307949122    -1.4802178655    -0.3672430914
   19      O       1.5866701861     2.2073151914    -1.5496232123
 ----------------------------------------------------------------
 Nuclear Repulsion Energy =   627.4962295098 hartrees
 There are       44 alpha and       44 beta electrons
 Requested basis set is def2-TZVPD
 There are 189 shells and 497 basis functions

 Total QAlloc Memory Limit   8000 MB
 Mega-Array Size      1956 MB
 MEM_STATIC part      2000 MB
 Discretize the solute cavity surface with Lebedev spheres
	Using 110 Lebedev grid points for each H atom
	Using 110 Lebedev grid points for other atoms
	Atomic van der Waals radii will be scaled by 1.20
 Remove points where switching function is < 1.0e-08
 Keep 1172 surface tesserae and discard 918 interior tesserae
 Molecular Surface Area = 211.938 Angst**2
 A cutoff of  1.0D-14 yielded  15949 shell pairs
 There are    110749 function pairs (    141109 Cartesian)
 
 -------------------------------------------------------
 OpenMP Integral Computing Module                       
 Release: version 1.0, May 2013, Q-Chem Inc. Pittsburgh 
 -------------------------------------------------------
 Integral Job Info:
 Integral job number is                      11
 Integral operator is                         1
 short-range coefficients              16700000
 long-range coefficients              100000000
 Omega coefficients                         300
 if combine SR and LR in K                    1
 Integral screening is                        0
 Integral computing path is                   2
 max size of driver memory is            800000
 size of driver memory is                776718
 size of scratch memory is              4473992
 max col of scratch BK array              10000
 max len of scratch array in speh3          662
 max len of scratch index in speh4           32
 max int batch size is                      520
 min int batch size is                       52
 fixed nKL is                                52
 max L of basis functions is                  3
 order of int derivative is                   0
 number of shells is                        189
 number of basis is                         563
 number of cartesian basis is               563
 number of contracted shell pairs         15949
 number of primitive shell pairs          31744
 maxK2 (contraction) of shell pair           36
 max number of K2 of shell pair               1
 max number of CS2 of shell pair           2648
 max number of PS2 of shell pair           3594
 mem total for path MDJ                  826884
 -------------------------------------------------------
 Smallest overlap matrix eigenvalue = 4.15E-06
 Guess MOs from SCF MO coefficient file
 Reading MOs from coefficient file
 Reading MOs from coefficient file
 Long-range K will be added via erf
 Coulomb attenuation parameter = 0.3 bohr**(-1)
 A restricted hybrid HF-DFT SCF calculation will be
 performed using Pulay DIIS extrapolation
 Polarizable Continuum solvation model will be applied
 Exchange:     0.1670 Hartree-Fock + 1.0000 wB97X-V + LR-HF
 Correlation:  1.0000 wB97X-V
 Using SG-2 standard quadrature grid
 Nonlocal Correlation:  VV10 with C = 0.0100 and b = 6.00
 Grid used for NLC:  SG-1 standard quadrature
 SCF converges when DIIS error is below 1.0E-08
Using Q-Chem read-in guess as SCF_GUESS READ specified.

 using 16 threads for integral computing
 -------------------------------------------------------
 OpenMP Integral computing Module                
 Release: version 1.0, May 2013, Q-Chem Inc. Pittsburgh 
 -------------------------------------------------------
 using 16 threads for integral computing
 -------------------------------------------------------
 OpenMP Integral computing Module                
 Release: version 1.0, May 2013, Q-Chem Inc. Pittsburgh 
 -------------------------------------------------------
 -------------------------------------------------------
 OpenMP BLAS3 based DFT computing Module                
 Release: version 1.0, May 2013, Q-Chem Inc. Pittsburgh 
 -------------------------------------------------------
 -------------------------------------------------------
 OpenMP BLAS3 based DFT computing Module                
 Release: version 1.0, May 2013, Q-Chem Inc. Pittsburgh 
 -------------------------------------------------------
 -------------------------------------------------------
 OpenMP BLAS3 based DFT computing Module                
 Release: version 1.0, May 2013, Q-Chem Inc. Pittsburgh 
 -------------------------------------------------------
 ---------------------------------------
  Cycle       Energy         DIIS Error
 ---------------------------------------
    1    -646.6207269184      5.74E-04
    2    -646.9508551299      6.56E-04
    3    -646.9678118780      2.90E-04
    4    -646.9704751334      2.10E-04
    5    -646.9721141645      1.59E-04
    6    -646.9729245824      1.28E-04
    7    -646.9735192161      9.90E-05
    8    -646.9738916907      7.57E-05
    9    -646.9741168921      5.73E-05
   10    -646.9742357180      4.46E-05
   11    -646.9743279731      3.13E-05
   12    -646.9743678379      2.33E-05
   13    -646.9743845020      1.90E-05
   14    -646.9743985301      1.45E-05
   15    -646.9744052754      1.16E-05
   16    -646.9744101705      9.06E-06
   17    -646.9744176813      9.61E-09 Convergence criterion met
 ---------------------------------------

************** Final PCM Free Energy Summary **************
 G_electrostatic  =      -0.35369234 hartree =    -221.94529515 kcal/mol
 G_cavitation     =       0.00000000 hartree =       0.00000000 kcal/mol
 G_dispersion     =       0.00000000 hartree =       0.00000000 kcal/mol
 G_repulsion      =       0.00000000 hartree =       0.00000000 kcal/mol
 --------------------------------------------------
 Non-electrostatic Free Energy =       0.00000000 hartree =       0.00000000 kcal/mol
 Total                         =      -0.35369234 hartree =    -221.94529515 kcal/mol
 --------------------------------------------------
 SCF Energy (H0 + V/2)                       =    -646.97441768 
 Solute Internal Energy (H0)                 =    -646.62072534 
 Total Free Energy (H0 + V/2 + non-elec)     =    -646.97441768 hartree
                                             = -405982.57458972 kcal/mol
***********************************************************

 SCF time:  CPU 5231.72 s  wall 375.10 s
 SCF   energy in the final basis set = -646.97441768
 Total energy in the final basis set = -646.97441768
 
 --------------------------------------------------------------
 
                    Orbital Energies (a.u.)
 --------------------------------------------------------------
 
 Alpha MOs
 -- Occupied --
-19.214 -19.204 -19.183 -19.162 -19.151 -19.131 -10.388 -10.355
-10.289 -10.261 -10.248  -1.209  -1.162  -1.151  -1.116  -1.067
 -0.917  -0.867  -0.850  -0.719  -0.707  -0.623  -0.597  -0.578
 -0.572  -0.564  -0.559  -0.542  -0.519  -0.511  -0.503  -0.484
 -0.481  -0.466  -0.452  -0.413  -0.406  -0.394  -0.373  -0.365
 -0.356  -0.340  -0.297  -0.265
 -- Virtual --
  0.060   0.074   0.079   0.083   0.099   0.102   0.105   0.111
  0.118   0.121   0.125   0.137   0.143   0.148   0.149   0.152
  0.163   0.168   0.179   0.181   0.190   0.192   0.195   0.202
  0.209   0.219   0.225   0.225   0.235   0.240   0.247   0.254
  0.261   0.263   0.267   0.273   0.278   0.290   0.293   0.301
  0.309   0.318   0.318   0.323   0.333   0.338   0.341   0.346
  0.349   0.353   0.359   0.363   0.370   0.373   0.375   0.385
  0.386   0.391   0.392   0.405   0.406   0.409   0.415   0.423
  0.431   0.434   0.443   0.444   0.449   0.456   0.464   0.466
  0.474   0.476   0.487   0.489   0.492   0.497   0.499   0.503
  0.506   0.514   0.517   0.520   0.530   0.532   0.539   0.545
  0.550   0.567   0.569   0.574   0.579   0.584   0.601   0.604
  0.608   0.616   0.621   0.629   0.633   0.638   0.644   0.651
  0.660   0.665   0.671   0.675   0.678   0.683   0.688   0.698
  0.703   0.710   0.714   0.727   0.733   0.739   0.743   0.751
  0.758   0.760   0.767   0.771   0.778   0.782   0.795   0.802
  0.808   0.815   0.818   0.824   0.831   0.840   0.842   0.846
  0.853   0.863   0.866   0.874   0.875   0.888   0.899   0.907
  0.913   0.931   0.948   0.956   0.958   0.973   0.984   0.987
  0.998   1.005   1.023   1.033   1.048   1.061   1.073   1.092
  1.097   1.102   1.113   1.122   1.130   1.137   1.156   1.166
  1.175   1.198   1.204   1.215   1.220   1.240   1.242   1.251
  1.263   1.287   1.291   1.307   1.335   1.336   1.340   1.360
  1.374   1.386   1.400   1.405   1.427   1.437   1.439   1.458
  1.474   1.482   1.489   1.500   1.521   1.554   1.586   1.597
  1.611   1.632   1.673   1.701   1.740   1.777   1.817   1.827
  1.839   1.879   1.888   1.892   1.902   1.921   1.925   1.934
  1.944   1.949   1.962   1.965   1.987   2.016   2.024   2.029
  2.036   2.044   2.063   2.074   2.090   2.103   2.121   2.124
  2.145   2.161   2.179   2.194   2.215   2.230   2.239   2.251
  2.281   2.300   2.314   2.325   2.336   2.348   2.376   2.390
  2.406   2.424   2.433   2.446   2.466   2.481   2.502   2.512
  2.530   2.554   2.568   2.581   2.592   2.613   2.632   2.658
  2.665   2.668   2.690   2.726   2.741   2.760   2.766   2.798
  2.830   2.843   2.880   2.893   2.902   2.922   2.936   2.956
  2.984   2.998   3.009   3.045   3.055   3.088   3.116   3.131
  3.141   3.154   3.207   3.212   3.218   3.239   3.254   3.267
  3.290   3.305   3.310   3.318   3.334   3.341   3.356   3.372
  3.382   3.392   3.400   3.419   3.427   3.442   3.444   3.464
  3.478   3.496   3.517   3.530   3.539   3.557   3.595   3.599
  3.617   3.624   3.628   3.636   3.662   3.678   3.688   3.704
  3.713   3.724   3.736   3.750   3.770   3.779   3.802   3.825
  3.832   3.874   3.909   3.922   3.959   3.987   4.072   4.087
  4.106   4.151   4.162   4.188   4.199   4.223   4.291   4.305
  4.388   4.441   4.552   4.576   4.583   4.640   4.663   4.693
  4.735   4.745   4.813   4.850   4.892   4.923   4.950   5.001
  5.025   5.035   5.145   5.171   5.253   5.288   5.295   5.323
  5.337   5.350   5.368   5.373   5.390   5.390   5.415   5.419
  5.465   5.542   5.555   5.632   5.681   5.706   5.735   5.742
  5.766   5.795   5.976   5.990   6.023   6.093   6.140   6.178
  6.212   6.261   6.283   6.310   6.322   6.365   6.479   6.580
  6.618   6.632   6.650   6.662   6.681   6.698   6.711   6.717
  6.728   6.761   6.779   6.837   6.859   6.909   6.965   6.990
  7.002   7.012   7.048   7.056   7.101   7.119   7.168   7.228
  7.260   7.349   7.362   7.373   7.412   7.446   7.494   7.511
  7.752   8.274  22.617  22.838  22.862  23.636  23.736  44.102
 44.340  44.417  44.468  44.590  44.596
 --------------------------------------------------------------
 
          Ground-State Mulliken Net Atomic Charges

     Atom                 Charge (a.u.)
  ----------------------------------------
      1 C                    -0.826152
      2 H                     0.227683
      3 H                     0.225088
      4 H                     0.260846
      5 C                     0.643803
      6 C                    -0.082773
      7 H                     0.011916
      8 H                     0.166431
      9 C                    -0.171875
     10 H                     0.261056
     11 H                     0.101491
     12 C                     0.321570
     13 O                    -0.865368
     14 O                    -0.458320
     15 H                     0.389674
     16 O                    -0.581322
     17 O                    -0.688024
     18 O                    -0.700853
     19 O                    -0.234869
  ----------------------------------------
  Sum of atomic charges =    -2.000000

 -----------------------------------------------------------------
                    Cartesian Multipole Moments
 -----------------------------------------------------------------
    Charge (ESU x 10^10)
                -9.6064
    Dipole Moment (Debye)
         X     -17.1887      Y       0.7073      Z      18.0739
       Tot      24.9523
    Quadrupole Moments (Debye-Ang)
        XX    -117.8453     XY      -1.0982     YY     -93.2733
        XZ      22.5984     YZ      12.8561     ZZ    -110.2688
    Octopole Moments (Debye-Ang^2)
       XXX    -276.0393    XXY      22.8204    XYY     -76.3668
       YYY       4.9115    XXZ     111.4203    XYZ      31.1158
       YYZ      75.8278    XZZ     -84.2915    YZZ     -32.7810
       ZZZ     199.2575
    Hexadecapole Moments (Debye-Ang^3)
      XXXX   -2415.0973   XXXY     -81.5776   XXYY    -535.6592
      XYYY    -202.9300   YYYY    -826.7187   XXXZ     318.9772
      XXYZ      54.5425   XYYZ     119.6875   YYYZ     160.6619
      XXZZ    -554.3221   XYZZ    -147.3477   YYZZ    -309.3416
      XZZZ     330.4583   YZZZ     227.8608   ZZZZ    -871.5297
 -----------------------------------------------------------------
 Calculating analytic gradient of the SCF energy
 Gradient of SCF Energy
            1           2           3           4           5           6
    1  -0.0532396  -0.0056714   0.0461475   0.0035903   0.0395800  -0.0462165
    2  -0.0015672  -0.0486042   0.0001970   0.0376768  -0.0005762  -0.0385594
    3   0.0049727  -0.0249414   0.0385670  -0.0342215  -0.0331798  -0.0230195
            7           8           9          10          11          12
    1   0.0551570   0.0262545   0.0410083   0.0209881  -0.0620913  -0.0097820
    2   0.0719862  -0.0550430   0.0292154   0.0133961  -0.0487017  -0.0396740
    3   0.0255151  -0.0306321   0.1043183  -0.0628154  -0.0052788  -0.0539937
           13          14          15          16          17          18
    1   0.0088655  -0.0235961  -0.0101246  -0.0071953  -0.0691319   0.0558521
    2  -0.0473464  -0.0061130   0.0344806   0.0075300   0.0225997   0.0264144
    3  -0.0412797  -0.0030914   0.0069028   0.0632879   0.0138974  -0.0036198
           19
    1  -0.0103945
    2   0.0426886
    3   0.0586118
 Max gradient component =       1.043E-01
 RMS gradient           =       3.885E-02
 Computing fast CPCM-ISWIG gradient
 Updating gradient with PCM contributions...
 -- total gradient after adding PCM contribution --
---------------------------------------------------
  Atom         X              Y              Z     
---------------------------------------------------
   1       0.000004       0.000009       0.000006
   2      -0.000001      -0.000009       0.000004
   3       0.000001       0.000001      -0.000000
   4      -0.000003      -0.000010      -0.000004
   5      -0.000002       0.000006      -0.000008
   6      -0.000007      -0.000006       0.000010
   7       0.000002       0.000003      -0.000000
   8       0.000003       0.000002      -0.000002
   9       0.000001       0.000004      -0.000004
  10      -0.000001      -0.000000      -0.000000
  11      -0.000002       0.000002      -0.000002
  12      -0.000003      -0.000000      -0.000003
  13      -0.000005       0.000000       0.000001
  14       0.000001       0.000001       0.000000
  15      -0.000003       0.000000       0.000008
  16       0.000001      -0.000005       0.000003
  17       0.000002      -0.000001       0.000002
  18       0.000010       0.000001      -0.000001
  19       0.000003       0.000002      -0.000010
---------------------------------------------------
 Number of fixed atoms: 0
 Gradient time:  CPU 1084.66 s  wall 78.43 s
 ######################################################
 ######################################################
 # Starting finite difference calculation for IDERIV  #
 Finite diff step size:  1.88973e-03 a.u.
 ----------------------------------------------------------------
             Standard Nuclear Orientation (Angstroms)
    I     Atom           X                Y                Z
 ----------------------------------------------------------------
    1      C      -3.2004652847    -0.8016756431     0.6257216642
    2      H      -3.1674949593     0.1604165326     1.1446936724
    3      H      -4.0324006388    -0.8107585816    -0.0785651821
    4      H      -3.3405854418    -1.5794970745     1.3807237201
    5      C      -1.8954419061    -1.0200564271    -0.0959692282
    6      C       1.0173866519     1.5828120549    -0.4300012103
    7      H       0.1365246156     1.0036007990    -0.7396540435
    8      H       0.6806818190     2.4017270601     0.2205053064
    9      C       1.9833972047     0.7043363929     0.3730125233
   10      H       1.5248333790     0.5203528251     1.3531576577
   11      H       2.9134509067     1.2558079889     0.5368308066
   12      C       2.3050942795    -0.6577176978    -0.2314107919
   13      O       1.7002733733     1.2315078705    -2.6237539628
   14      O      -0.8608450288    -1.0915319101     0.7089317304
   15      H       0.0674659125    -1.2125396143     0.1887034835
   16      O      -1.8157452858    -1.1132576276    -1.3143653298
   17      O       3.4823399625    -0.9391796638    -0.5219359692
   18      O       1.3307949122    -1.4802178655    -0.3672430914
   19      O       1.5866701861     2.2073151914    -1.5496232123
 ----------------------------------------------------------------
 Nuclear Repulsion Energy =   627.5135960180 hartrees
 There are       44 alpha and       44 beta electrons
 Discretize the solute cavity surface with Lebedev spheres
	Using 110 Lebedev grid points for each H atom
	Using 110 Lebedev grid points for other atoms
	Atomic van der Waals radii will be scaled by 1.20
 Remove points where switching function is < 1.0e-08
 Keep 1172 surface tesserae and discard 918 interior tesserae
 Molecular Surface Area = 211.933 Angst**2
 Requested basis set is def2-TZVPD
 There are 189 shells and 497 basis functions
 A cutoff of  1.0D-14 yielded  15949 shell pairs
 There are    110749 function pairs (    141109 Cartesian)
 Smallest overlap matrix eigenvalue = 4.15E-06
 Guess MOs from SCF MO coefficient file
 Reading MOs from coefficient file
 Reading MOs from coefficient file
 Long-range K will be added via erf
 Coulomb attenuation parameter = 0.3 bohr**(-1)
 A restricted hybrid HF-DFT SCF calculation will be
 performed using Pulay DIIS extrapolation
 Polarizable Continuum solvation model will be applied
 Exchange:     0.1670 Hartree-Fock + 1.0000 wB97X-V + LR-HF
 Correlation:  1.0000 wB97X-V
 Using SG-2 standard quadrature grid
 Nonlocal Correlation:  VV10 with C = 0.0100 and b = 6.00
 Grid used for NLC:  SG-1 standard quadrature
 SCF converges when DIIS error is below 1.0E-08
Using Q-Chem read-in guess as SCF_GUESS READ specified.

 using 16 threads for integral computing
 -------------------------------------------------------
 OpenMP Integral computing Module                
 Release: version 1.0, May 2013, Q-Chem Inc. Pittsburgh 
 -------------------------------------------------------
 using 16 threads for integral computing
 -------------------------------------------------------
 OpenMP Integral computing Module                
 Release: version 1.0, May 2013, Q-Chem Inc. Pittsburgh 
 -------------------------------------------------------
 -------------------------------------------------------
 OpenMP BLAS3 based DFT computing Module                
 Release: version 1.0, May 2013, Q-Chem Inc. Pittsburgh 
 -------------------------------------------------------
 -------------------------------------------------------
 OpenMP BLAS3 based DFT computing Module                
 Release: version 1.0, May 2013, Q-Chem Inc. Pittsburgh 
 -------------------------------------------------------
 -------------------------------------------------------
 OpenMP BLAS3 based DFT computing Module                
 Release: version 1.0, May 2013, Q-Chem Inc. Pittsburgh 
 -------------------------------------------------------
 ---------------------------------------
  Cycle       Energy         DIIS Error
 ---------------------------------------
    1    -646.6202880142      5.74E-04
    2    -646.9508531101      6.56E-04
    3    -646.9678116005      2.90E-04
    4    -646.9704753508      2.10E-04
    5    -646.9721186352      1.59E-04
    6    -646.9729365269      1.27E-04
    7    -646.9735492808      9.72E-05
    8    -646.9739483970      7.14E-05
    9    -646.9741947072      4.92E-05
   10    -646.9743247928      3.17E-05
   11    -646.9744022498      1.26E-05
   12    -646.9744156552      3.41E-06
   13    -646.9744166002      1.11E-06
   14    -646.9744167080      2.00E-07
   15    -646.9744167112      6.69E-08
   16    -646.9744167116      1.61E-08
   17    -646.9744167116      1.05E-09 Convergence criterion met
 ---------------------------------------

************** Final PCM Free Energy Summary **************
 G_electrostatic  =      -0.35370257 hartree =    -221.95171182 kcal/mol
 G_cavitation     =       0.00000000 hartree =       0.00000000 kcal/mol
 G_dispersion     =       0.00000000 hartree =       0.00000000 kcal/mol
 G_repulsion      =       0.00000000 hartree =       0.00000000 kcal/mol
 --------------------------------------------------
 Non-electrostatic Free Energy =       0.00000000 hartree =       0.00000000 kcal/mol
 Total                         =      -0.35370257 hartree =    -221.95171182 kcal/mol
 --------------------------------------------------
 SCF Energy (H0 + V/2)                       =    -646.97441671 
 Solute Internal Energy (H0)                 =    -646.62071414 
 Total Free Energy (H0 + V/2 + non-elec)     =    -646.97441671 hartree
                                             = -405982.57398123 kcal/mol
***********************************************************

 SCF time:  CPU 5258.12 s  wall 376.60 s
 SCF   energy in the final basis set = -646.97441671
 Total energy in the final basis set = -646.97441671
 
 --------------------------------------------------------------
 
                    Orbital Energies (a.u.)
 --------------------------------------------------------------
 
 Alpha MOs
 -- Occupied --
-19.214 -19.204 -19.183 -19.162 -19.151 -19.131 -10.388 -10.355
-10.289 -10.261 -10.248  -1.209  -1.162  -1.151  -1.116  -1.067
 -0.917  -0.867  -0.850  -0.719  -0.707  -0.624  -0.597  -0.578
 -0.572  -0.564  -0.559  -0.542  -0.519  -0.511  -0.503  -0.483
 -0.481  -0.466  -0.452  -0.413  -0.406  -0.394  -0.373  -0.365
 -0.356  -0.340  -0.297  -0.265
 -- Virtual --
  0.060   0.074   0.079   0.083   0.099   0.102   0.105   0.111
  0.118   0.121   0.125   0.137   0.143   0.148   0.149   0.152
  0.163   0.168   0.179   0.181   0.190   0.192   0.195   0.202
  0.209   0.219   0.225   0.225   0.235   0.240   0.247   0.254
  0.261   0.263   0.267   0.273   0.278   0.290   0.293   0.301
  0.309   0.318   0.318   0.324   0.333   0.338   0.341   0.346
  0.349   0.353   0.359   0.363   0.370   0.373   0.376   0.385
  0.386   0.391   0.392   0.405   0.406   0.409   0.415   0.423
  0.431   0.434   0.443   0.444   0.449   0.457   0.464   0.466
  0.474   0.476   0.487   0.489   0.492   0.497   0.499   0.503
  0.506   0.514   0.517   0.520   0.530   0.532   0.539   0.545
  0.550   0.567   0.569   0.574   0.579   0.584   0.601   0.604
  0.608   0.616   0.621   0.629   0.633   0.638   0.644   0.651
  0.660   0.665   0.671   0.675   0.678   0.683   0.688   0.698
  0.703   0.710   0.714   0.727   0.733   0.739   0.743   0.752
  0.758   0.760   0.767   0.771   0.778   0.782   0.795   0.802
  0.808   0.815   0.818   0.824   0.831   0.840   0.842   0.846
  0.853   0.863   0.866   0.874   0.875   0.888   0.899   0.907
  0.913   0.931   0.948   0.956   0.958   0.973   0.984   0.987
  0.998   1.005   1.023   1.033   1.048   1.061   1.073   1.092
  1.097   1.102   1.113   1.122   1.130   1.137   1.156   1.166
  1.175   1.198   1.204   1.215   1.220   1.240   1.242   1.251
  1.263   1.287   1.291   1.307   1.335   1.336   1.340   1.360
  1.374   1.386   1.400   1.405   1.427   1.437   1.439   1.458
  1.474   1.482   1.489   1.500   1.521   1.554   1.586   1.597
  1.611   1.632   1.673   1.701   1.740   1.777   1.817   1.827
  1.839   1.879   1.888   1.892   1.902   1.921   1.925   1.934
  1.944   1.949   1.962   1.965   1.987   2.016   2.024   2.029
  2.037   2.044   2.063   2.074   2.090   2.103   2.121   2.124
  2.145   2.161   2.179   2.194   2.215   2.230   2.239   2.251
  2.281   2.300   2.314   2.325   2.336   2.348   2.376   2.390
  2.406   2.424   2.433   2.446   2.466   2.482   2.502   2.512
  2.530   2.554   2.568   2.581   2.592   2.613   2.632   2.658
  2.665   2.668   2.690   2.726   2.741   2.760   2.766   2.798
  2.830   2.843   2.880   2.893   2.902   2.922   2.936   2.956
  2.984   2.998   3.009   3.045   3.055   3.088   3.116   3.131
  3.141   3.154   3.207   3.212   3.218   3.239   3.254   3.267
  3.290   3.305   3.310   3.318   3.334   3.341   3.356   3.372
  3.382   3.392   3.400   3.419   3.427   3.442   3.444   3.464
  3.478   3.496   3.517   3.530   3.539   3.557   3.595   3.599
  3.617   3.624   3.628   3.637   3.662   3.678   3.688   3.705
  3.713   3.724   3.736   3.750   3.770   3.779   3.802   3.825
  3.832   3.874   3.909   3.922   3.959   3.988   4.073   4.088
  4.106   4.151   4.162   4.188   4.200   4.223   4.291   4.305
  4.388   4.442   4.552   4.576   4.583   4.640   4.663   4.693
  4.735   4.745   4.813   4.850   4.892   4.923   4.950   5.001
  5.025   5.035   5.145   5.171   5.253   5.289   5.295   5.323
  5.337   5.350   5.368   5.373   5.390   5.390   5.415   5.419
  5.466   5.542   5.555   5.632   5.681   5.706   5.735   5.742
  5.766   5.795   5.977   5.990   6.023   6.093   6.140   6.178
  6.212   6.261   6.283   6.310   6.322   6.365   6.479   6.580
  6.618   6.632   6.650   6.662   6.681   6.698   6.711   6.717
  6.728   6.761   6.779   6.837   6.859   6.909   6.965   6.990
  7.002   7.012   7.048   7.056   7.101   7.119   7.168   7.228
  7.260   7.349   7.362   7.373   7.412   7.446   7.494   7.511
  7.752   8.274  22.617  22.838  22.862  23.637  23.736  44.102
 44.340  44.417  44.468  44.590  44.596
 --------------------------------------------------------------
 
          Ground-State Mulliken Net Atomic Charges

     Atom                 Charge (a.u.)
  ----------------------------------------
      1 C                    -0.826683
      2 H                     0.227769
      3 H                     0.225003
      4 H                     0.260837
      5 C                     0.644441
      6 C                    -0.082760
      7 H                     0.011895
      8 H                     0.166420
      9 C                    -0.171853
     10 H                     0.261056
     11 H                     0.101490
     12 C                     0.321547
     13 O                    -0.865367
     14 O                    -0.458332
     15 H                     0.389682
     16 O                    -0.581390
     17 O                    -0.688028
     18 O                    -0.700859
     19 O                    -0.234869
  ----------------------------------------
  Sum of atomic charges =    -2.000000

 -----------------------------------------------------------------
                    Cartesian Multipole Moments
 -----------------------------------------------------------------
    Charge (ESU x 10^10)
                -9.6064
    Dipole Moment (Debye)
         X     -17.1900      Y       0.7076      Z      18.0748
       Tot      24.9539
    Quadrupole Moments (Debye-Ang)
        XX    -117.8408     XY      -1.0979     YY     -93.2734
        XZ      22.5933     YZ      12.8556     ZZ    -110.2687
    Octopole Moments (Debye-Ang^2)
       XXX    -276.0768    XXY      22.8194    XYY     -76.3738
       YYY       4.9118    XXZ     111.4443    XYZ      31.1189
       YYZ      75.8289    XZZ     -84.3000    YZZ     -32.7805
       ZZZ     199.2594
    Hexadecapole Moments (Debye-Ang^3)
      XXXX   -2414.8361   XXXY     -81.5580   XXYY    -535.6221
      XYYY    -202.9159   YYYY    -826.7196   XXXZ     318.8648
      XXYZ      54.5269   XYYZ     119.6777   YYYZ     160.6608
      XXZZ    -554.2730   XYZZ    -147.3429   YYZZ    -309.3422
      XZZZ     330.4374   YZZZ     227.8607   ZZZZ    -871.5297
 -----------------------------------------------------------------
 Calculating analytic gradient of the SCF energy
 Gradient of SCF Energy
            1           2           3           4           5           6
    1  -0.0523809  -0.0056996   0.0457559   0.0035490   0.0392106  -0.0462169
    2  -0.0015978  -0.0486227   0.0001952   0.0376234  -0.0004923  -0.0385681
    3   0.0050705  -0.0249679   0.0382670  -0.0341767  -0.0330282  -0.0230152
            7           8           9          10          11          12
    1   0.0551588   0.0262541   0.0410104   0.0209896  -0.0620931  -0.0097827
    2   0.0719964  -0.0550456   0.0292169   0.0133967  -0.0487029  -0.0396707
    3   0.0255098  -0.0306297   0.1043178  -0.0628148  -0.0052788  -0.0539910
           13          14          15          16          17          18
    1   0.0088652  -0.0236457  -0.0101134  -0.0071849  -0.0691336   0.0558518
    2  -0.0473472  -0.0060971   0.0344777   0.0075355   0.0226001   0.0264134
    3  -0.0412799  -0.0030801   0.0068945   0.0633140   0.0138982  -0.0036213
           19
    1  -0.0103947
    2   0.0426892
    3   0.0586119
 Max gradient component =       1.043E-01
 RMS gradient           =       3.881E-02
 Computing fast CPCM-ISWIG gradient
 Updating gradient with PCM contributions...
 -- total gradient after adding PCM contribution --
---------------------------------------------------
  Atom         X              Y              Z     
---------------------------------------------------
   1       0.001022       0.000024       0.000116
   2      -0.000091      -0.000021      -0.000006
   3      -0.000394      -0.000005      -0.000269
   4      -0.000104      -0.000058       0.000041
   5      -0.000348       0.000033       0.000085
   6      -0.000007      -0.000006       0.000010
   7       0.000002       0.000003      -0.000000
   8       0.000003       0.000002      -0.000002
   9       0.000001       0.000004      -0.000004
  10      -0.000001      -0.000000       0.000000
  11      -0.000002       0.000001      -0.000002
  12      -0.000001       0.000002      -0.000002
  13      -0.000005       0.000000       0.000001
  14      -0.000092       0.000018       0.000018
  15       0.000007      -0.000000      -0.000002
  16       0.000005       0.000002       0.000023
  17      -0.000000      -0.000002       0.000002
  18       0.000003       0.000001       0.000001
  19       0.000003       0.000002      -0.000010
---------------------------------------------------
 Number of fixed atoms: 0
 Gradient time:  CPU 1042.18 s  wall 76.29 s
 ----------------------------------------------------------------
             Standard Nuclear Orientation (Angstroms)
    I     Atom           X                Y                Z
 ----------------------------------------------------------------
    1      C      -3.2024652847    -0.8016756431     0.6257216642
    2      H      -3.1674949593     0.1604165326     1.1446936724
    3      H      -4.0324006388    -0.8107585816    -0.0785651821
    4      H      -3.3405854418    -1.5794970745     1.3807237201
    5      C      -1.8954419061    -1.0200564271    -0.0959692282
    6      C       1.0173866519     1.5828120549    -0.4300012103
    7      H       0.1365246156     1.0036007990    -0.7396540435
    8      H       0.6806818190     2.4017270601     0.2205053064
    9      C       1.9833972047     0.7043363929     0.3730125233
   10      H       1.5248333790     0.5203528251     1.3531576577
   11      H       2.9134509067     1.2558079889     0.5368308066
   12      C       2.3050942795    -0.6577176978    -0.2314107919
   13      O       1.7002733733     1.2315078705    -2.6237539628
   14      O      -0.8608450288    -1.0915319101     0.7089317304
   15      H       0.0674659125    -1.2125396143     0.1887034835
   16      O      -1.8157452858    -1.1132576276    -1.3143653298
   17      O       3.4823399625    -0.9391796638    -0.5219359692
   18      O       1.3307949122    -1.4802178655    -0.3672430914
   19      O       1.5866701861     2.2073151914    -1.5496232123
 ----------------------------------------------------------------
 Nuclear Repulsion Energy =   627.4788725033 hartrees
 There are       44 alpha and       44 beta electrons
 Discretize the solute cavity surface with Lebedev spheres
	Using 110 Lebedev grid points for each H atom
	Using 110 Lebedev grid points for other atoms
	Atomic van der Waals radii will be scaled by 1.20
 Remove points where switching function is < 1.0e-08
 Keep 1172 surface tesserae and discard 918 interior tesserae
 Molecular Surface Area = 211.942 Angst**2
 Requested basis set is def2-TZVPD
 There are 189 shells and 497 basis functions
 A cutoff of  1.0D-14 yielded  15949 shell pairs
 There are    110749 function pairs (    141109 Cartesian)
 Smallest overlap matrix eigenvalue = 4.15E-06
 Guess MOs from SCF MO coefficient file
 Reading MOs from coefficient file
 Reading MOs from coefficient file
 Long-range K will be added via erf
 Coulomb attenuation parameter = 0.3 bohr**(-1)
 A restricted hybrid HF-DFT SCF calculation will be
 performed using Pulay DIIS extrapolation
 Polarizable Continuum solvation model will be applied
 Exchange:     0.1670 Hartree-Fock + 1.0000 wB97X-V + LR-HF
 Correlation:  1.0000 wB97X-V
 Using SG-2 standard quadrature grid
 Nonlocal Correlation:  VV10 with C = 0.0100 and b = 6.00
 Grid used for NLC:  SG-1 standard quadrature
 SCF converges when DIIS error is below 1.0E-08
Using Q-Chem read-in guess as SCF_GUESS READ specified.

 using 16 threads for integral computing
 -------------------------------------------------------
 OpenMP Integral computing Module                
 Release: version 1.0, May 2013, Q-Chem Inc. Pittsburgh 
 -------------------------------------------------------
 using 16 threads for integral computing
 -------------------------------------------------------
 OpenMP Integral computing Module                
 Release: version 1.0, May 2013, Q-Chem Inc. Pittsburgh 
 -------------------------------------------------------
 -------------------------------------------------------
 OpenMP BLAS3 based DFT computing Module                
 Release: version 1.0, May 2013, Q-Chem Inc. Pittsburgh 
 -------------------------------------------------------
 -------------------------------------------------------
 OpenMP BLAS3 based DFT computing Module                
 Release: version 1.0, May 2013, Q-Chem Inc. Pittsburgh 
 -------------------------------------------------------
 -------------------------------------------------------
 OpenMP BLAS3 based DFT computing Module                
 Release: version 1.0, May 2013, Q-Chem Inc. Pittsburgh 
 -------------------------------------------------------
 ---------------------------------------
  Cycle       Energy         DIIS Error
 ---------------------------------------
    1    -646.6215905583      5.74E-04
    2    -646.9508540429      6.56E-04
    3    -646.9678148144      2.90E-04
    4    -646.9704803298      2.10E-04
    5    -646.9721266618      1.58E-04
    6    -646.9729623689      1.26E-04
    7    -646.9736319092      9.25E-05
    8    -646.9740779767      6.07E-05
    9    -646.9743135771      3.35E-05
   10    -646.9743956634      1.52E-05
   11    -646.9744159862      2.86E-06
   12    -646.9744167067      4.87E-07
   13    -646.9744167261      1.25E-07
   14    -646.9744167274      1.85E-08
   15    -646.9744167274      5.42E-09 Convergence criterion met
 ---------------------------------------

************** Final PCM Free Energy Summary **************
 G_electrostatic  =      -0.35368241 hartree =    -221.93905971 kcal/mol
 G_cavitation     =       0.00000000 hartree =       0.00000000 kcal/mol
 G_dispersion     =       0.00000000 hartree =       0.00000000 kcal/mol
 G_repulsion      =       0.00000000 hartree =       0.00000000 kcal/mol
 --------------------------------------------------
 Non-electrostatic Free Energy =       0.00000000 hartree =       0.00000000 kcal/mol
 Total                         =      -0.35368241 hartree =    -221.93905971 kcal/mol
 --------------------------------------------------
 SCF Energy (H0 + V/2)                       =    -646.97441673 
 Solute Internal Energy (H0)                 =    -646.62073432 
 Total Free Energy (H0 + V/2 + non-elec)     =    -646.97441673 hartree
                                             = -405982.57399115 kcal/mol
***********************************************************

 SCF time:  CPU 4595.60 s  wall 328.96 s
 SCF   energy in the final basis set = -646.97441673
 Total energy in the final basis set = -646.97441673
 
 --------------------------------------------------------------
 
                    Orbital Energies (a.u.)
 --------------------------------------------------------------
 
 Alpha MOs
 -- Occupied --
-19.214 -19.204 -19.183 -19.162 -19.151 -19.131 -10.388 -10.355
-10.289 -10.261 -10.248  -1.209  -1.162  -1.151  -1.116  -1.067
 -0.917  -0.867  -0.850  -0.719  -0.707  -0.623  -0.597  -0.578
 -0.572  -0.564  -0.559  -0.542  -0.519  -0.511  -0.504  -0.484
 -0.481  -0.466  -0.452  -0.413  -0.406  -0.394  -0.373  -0.365
 -0.356  -0.340  -0.297  -0.265
 -- Virtual --
  0.060   0.074   0.079   0.083   0.099   0.102   0.105   0.111
  0.118   0.121   0.125   0.137   0.143   0.148   0.149   0.152
  0.163   0.168   0.179   0.181   0.190   0.192   0.195   0.202
  0.209   0.219   0.225   0.225   0.235   0.240   0.247   0.254
  0.261   0.263   0.267   0.273   0.278   0.290   0.293   0.301
  0.309   0.318   0.318   0.323   0.333   0.338   0.341   0.346
  0.349   0.353   0.359   0.363   0.370   0.373   0.375   0.385
  0.386   0.391   0.392   0.405   0.406   0.409   0.415   0.423
  0.430   0.434   0.443   0.444   0.449   0.456   0.464   0.466
  0.474   0.476   0.487   0.489   0.492   0.497   0.500   0.503
  0.506   0.514   0.517   0.520   0.530   0.532   0.539   0.545
  0.550   0.567   0.569   0.574   0.579   0.584   0.601   0.604
  0.608   0.616   0.621   0.629   0.633   0.638   0.644   0.651
  0.660   0.665   0.671   0.675   0.678   0.683   0.688   0.698
  0.703   0.710   0.714   0.727   0.733   0.739   0.743   0.751
  0.758   0.760   0.767   0.771   0.778   0.782   0.796   0.802
  0.808   0.815   0.818   0.824   0.831   0.840   0.842   0.846
  0.853   0.863   0.866   0.874   0.875   0.888   0.899   0.907
  0.913   0.931   0.948   0.956   0.958   0.973   0.985   0.987
  0.998   1.005   1.023   1.033   1.048   1.061   1.073   1.092
  1.097   1.102   1.113   1.122   1.130   1.137   1.156   1.166
  1.174   1.198   1.204   1.215   1.220   1.240   1.242   1.251
  1.263   1.287   1.291   1.307   1.335   1.336   1.340   1.360
  1.374   1.386   1.400   1.405   1.426   1.437   1.439   1.458
  1.474   1.482   1.489   1.500   1.521   1.554   1.586   1.597
  1.611   1.632   1.673   1.701   1.740   1.777   1.817   1.827
  1.839   1.879   1.888   1.892   1.902   1.921   1.925   1.934
  1.944   1.949   1.962   1.965   1.987   2.016   2.024   2.029
  2.036   2.044   2.063   2.074   2.090   2.103   2.121   2.124
  2.145   2.161   2.179   2.193   2.215   2.230   2.239   2.251
  2.281   2.300   2.314   2.325   2.336   2.348   2.376   2.390
  2.406   2.424   2.433   2.446   2.466   2.481   2.502   2.512
  2.530   2.554   2.568   2.581   2.592   2.613   2.632   2.658
  2.665   2.668   2.690   2.726   2.741   2.760   2.766   2.798
  2.829   2.844   2.880   2.893   2.902   2.922   2.936   2.956
  2.984   2.998   3.009   3.045   3.055   3.088   3.116   3.131
  3.141   3.154   3.207   3.212   3.218   3.239   3.254   3.267
  3.290   3.305   3.309   3.318   3.334   3.341   3.356   3.372
  3.382   3.392   3.400   3.419   3.427   3.442   3.445   3.464
  3.478   3.496   3.517   3.530   3.538   3.557   3.595   3.599
  3.617   3.624   3.628   3.636   3.662   3.678   3.688   3.704
  3.713   3.724   3.736   3.750   3.770   3.779   3.802   3.825
  3.832   3.874   3.909   3.921   3.959   3.987   4.072   4.086
  4.106   4.151   4.162   4.188   4.199   4.223   4.291   4.305
  4.388   4.441   4.552   4.576   4.582   4.640   4.664   4.693
  4.735   4.745   4.813   4.850   4.892   4.923   4.950   5.001
  5.025   5.035   5.145   5.171   5.253   5.288   5.295   5.323
  5.337   5.350   5.368   5.373   5.390   5.390   5.415   5.419
  5.465   5.542   5.554   5.632   5.681   5.706   5.735   5.742
  5.765   5.795   5.976   5.989   6.023   6.093   6.140   6.178
  6.212   6.260   6.283   6.310   6.322   6.365   6.479   6.579
  6.618   6.632   6.650   6.662   6.681   6.698   6.711   6.716
  6.728   6.761   6.779   6.837   6.859   6.909   6.965   6.990
  7.002   7.012   7.048   7.056   7.101   7.119   7.168   7.228
  7.260   7.349   7.362   7.373   7.412   7.446   7.494   7.511
  7.752   8.274  22.617  22.838  22.862  23.635  23.736  44.102
 44.339  44.416  44.468  44.590  44.596
 --------------------------------------------------------------
 
          Ground-State Mulliken Net Atomic Charges

     Atom                 Charge (a.u.)
  ----------------------------------------
      1 C                    -0.825625
      2 H                     0.227597
      3 H                     0.225175
      4 H                     0.260856
      5 C                     0.643167
      6 C                    -0.082786
      7 H                     0.011937
      8 H                     0.166444
      9 C                    -0.171898
     10 H                     0.261055
     11 H                     0.101493
     12 C                     0.321589
     13 O                    -0.865370
     14 O                    -0.458309
     15 H                     0.389666
     16 O                    -0.581254
     17 O                    -0.688021
     18 O                    -0.700847
     19 O                    -0.234870
  ----------------------------------------
  Sum of atomic charges =    -2.000000

 -----------------------------------------------------------------
                    Cartesian Multipole Moments
 -----------------------------------------------------------------
    Charge (ESU x 10^10)
                -9.6064
    Dipole Moment (Debye)
         X     -17.1875      Y       0.7071      Z      18.0729
       Tot      24.9508
    Quadrupole Moments (Debye-Ang)
        XX    -117.8498     XY      -1.0986     YY     -93.2731
        XZ      22.6036     YZ      12.8566     ZZ    -110.2690
    Octopole Moments (Debye-Ang^2)
       XXX    -276.0019    XXY      22.8215    XYY     -76.3598
       YYY       4.9113    XXZ     111.3966    XYZ      31.1128
       YYZ      75.8267    XZZ     -84.2832    YZZ     -32.7815
       ZZZ     199.2557
    Hexadecapole Moments (Debye-Ang^3)
      XXXX   -2415.3593   XXXY     -81.5970   XXYY    -535.6964
      XYYY    -202.9438   YYYY    -826.7178   XXXZ     319.0901
      XXYZ      54.5582   XYYZ     119.6974   YYYZ     160.6632
      XXZZ    -554.3716   XYZZ    -147.3526   YYZZ    -309.3411
      XZZZ     330.4797   YZZZ     227.8611   ZZZZ    -871.5301
 -----------------------------------------------------------------
 Calculating analytic gradient of the SCF energy
 Gradient of SCF Energy
            1           2           3           4           5           6
    1  -0.0540974  -0.0056433   0.0465402   0.0036314   0.0399478  -0.0462158
    2  -0.0015372  -0.0485853   0.0001988   0.0377300  -0.0006598  -0.0385508
    3   0.0048720  -0.0249148   0.0388687  -0.0342662  -0.0333306  -0.0230238
            7           8           9          10          11          12
    1   0.0551555   0.0262548   0.0410062   0.0209868  -0.0620898  -0.0097813
    2   0.0719765  -0.0550406   0.0292141   0.0133957  -0.0487007  -0.0396778
    3   0.0255203  -0.0306348   0.1043200  -0.0628163  -0.0052786  -0.0539976
           13          14          15          16          17          18
    1   0.0088660  -0.0235467  -0.0101359  -0.0072058  -0.0691305   0.0558526
    2  -0.0473458  -0.0061288   0.0344837   0.0075245   0.0225995   0.0264158
    3  -0.0412797  -0.0031026   0.0069111   0.0632620   0.0138970  -0.0036180
           19
    1  -0.0103947
    2   0.0426881
    3   0.0586120
 Max gradient component =       1.043E-01
 RMS gradient           =       3.889E-02
 Computing fast CPCM-ISWIG gradient
 Updating gradient with PCM contributions...
 -- total gradient after adding PCM contribution --
---------------------------------------------------
  Atom         X              Y              Z     
---------------------------------------------------
   1      -0.001014      -0.000007      -0.000107
   2       0.000090       0.000003       0.000014
   3       0.000397       0.000006       0.000271
   4       0.000098       0.000039      -0.000049
   5       0.000343      -0.000021      -0.000099
   6      -0.000008      -0.000006       0.000010
   7       0.000002       0.000003       0.000000
   8       0.000003       0.000002      -0.000002
   9       0.000001       0.000004      -0.000003
  10      -0.000001      -0.000000      -0.000000
  11      -0.000002       0.000001      -0.000002
  12      -0.000006      -0.000003      -0.000004
  13      -0.000005       0.000000       0.000000
  14       0.000094      -0.000015      -0.000017
  15      -0.000012       0.000001       0.000017
  16      -0.000004      -0.000012      -0.000017
  17       0.000003      -0.000001       0.000002
  18       0.000018       0.000002      -0.000004
  19       0.000003       0.000002      -0.000009
---------------------------------------------------
 Number of fixed atoms: 0
 Gradient time:  CPU 1045.94 s  wall 76.32 s
 ----------------------------------------------------------------
             Standard Nuclear Orientation (Angstroms)
    I     Atom           X                Y                Z
 ----------------------------------------------------------------
    1      C      -3.2014652847    -0.8006756431     0.6257216642
    2      H      -3.1674949593     0.1604165326     1.1446936724
    3      H      -4.0324006388    -0.8107585816    -0.0785651821
    4      H      -3.3405854418    -1.5794970745     1.3807237201
    5      C      -1.8954419061    -1.0200564271    -0.0959692282
    6      C       1.0173866519     1.5828120549    -0.4300012103
    7      H       0.1365246156     1.0036007990    -0.7396540435
    8      H       0.6806818190     2.4017270601     0.2205053064
    9      C       1.9833972047     0.7043363929     0.3730125233
   10      H       1.5248333790     0.5203528251     1.3531576577
   11      H       2.9134509067     1.2558079889     0.5368308066
   12      C       2.3050942795    -0.6577176978    -0.2314107919
   13      O       1.7002733733     1.2315078705    -2.6237539628
   14      O      -0.8608450288    -1.0915319101     0.7089317304
   15      H       0.0674659125    -1.2125396143     0.1887034835
   16      O      -1.8157452858    -1.1132576276    -1.3143653298
   17      O       3.4823399625    -0.9391796638    -0.5219359692
   18      O       1.3307949122    -1.4802178655    -0.3672430914
   19      O       1.5866701861     2.2073151914    -1.5496232123
 ----------------------------------------------------------------
 Nuclear Repulsion Energy =   627.4954430253 hartrees
 There are       44 alpha and       44 beta electrons
 Discretize the solute cavity surface with Lebedev spheres
	Using 110 Lebedev grid points for each H atom
	Using 110 Lebedev grid points for other atoms
	Atomic van der Waals radii will be scaled by 1.20
 Remove points where switching function is < 1.0e-08
 Keep 1172 surface tesserae and discard 918 interior tesserae
 Molecular Surface Area = 211.941 Angst**2
 Requested basis set is def2-TZVPD
 There are 189 shells and 497 basis functions
 A cutoff of  1.0D-14 yielded  15949 shell pairs
 There are    110749 function pairs (    141109 Cartesian)
 Smallest overlap matrix eigenvalue = 4.15E-06
 Guess MOs from SCF MO coefficient file
 Reading MOs from coefficient file
 Reading MOs from coefficient file
 Long-range K will be added via erf
 Coulomb attenuation parameter = 0.3 bohr**(-1)
 A restricted hybrid HF-DFT SCF calculation will be
 performed using Pulay DIIS extrapolation
 Polarizable Continuum solvation model will be applied
 Exchange:     0.1670 Hartree-Fock + 1.0000 wB97X-V + LR-HF
 Correlation:  1.0000 wB97X-V
 Using SG-2 standard quadrature grid
 Nonlocal Correlation:  VV10 with C = 0.0100 and b = 6.00
 Grid used for NLC:  SG-1 standard quadrature
 SCF converges when DIIS error is below 1.0E-08
Using Q-Chem read-in guess as SCF_GUESS READ specified.

 using 16 threads for integral computing
 -------------------------------------------------------
 OpenMP Integral computing Module                
 Release: version 1.0, May 2013, Q-Chem Inc. Pittsburgh 
 -------------------------------------------------------
 using 16 threads for integral computing
 -------------------------------------------------------
 OpenMP Integral computing Module                
 Release: version 1.0, May 2013, Q-Chem Inc. Pittsburgh 
 -------------------------------------------------------
 -------------------------------------------------------
 OpenMP BLAS3 based DFT computing Module                
 Release: version 1.0, May 2013, Q-Chem Inc. Pittsburgh 
 -------------------------------------------------------
 -------------------------------------------------------
 OpenMP BLAS3 based DFT computing Module                
 Release: version 1.0, May 2013, Q-Chem Inc. Pittsburgh 
 -------------------------------------------------------
 -------------------------------------------------------
 OpenMP BLAS3 based DFT computing Module                
 Release: version 1.0, May 2013, Q-Chem Inc. Pittsburgh 
 -------------------------------------------------------
 ---------------------------------------
  Cycle       Energy         DIIS Error
 ---------------------------------------
    1    -646.6203086435      5.74E-04
    2    -646.9508539668      6.56E-04
    3    -646.9678133770      2.90E-04
    4    -646.9704774436      2.10E-04
    5    -646.9721227119      1.59E-04
    6    -646.9729461489      1.27E-04
    7    -646.9735748638      9.58E-05
    8    -646.9739918707      6.80E-05
    9    -646.9742427175      4.36E-05
   10    -646.9743610202      2.47E-05
   11    -646.9744119303      7.24E-06
   12    -646.9744164959      1.50E-06
   13    -646.9744166821      4.36E-07
   14    -646.9744166986      7.08E-08
   15    -646.9744166990      2.25E-08
   16    -646.9744166990      4.59E-09 Convergence criterion met
 ---------------------------------------

************** Final PCM Free Energy Summary **************
 G_electrostatic  =      -0.35368906 hartree =    -221.94323449 kcal/mol
 G_cavitation     =       0.00000000 hartree =       0.00000000 kcal/mol
 G_dispersion     =       0.00000000 hartree =       0.00000000 kcal/mol
 G_repulsion      =       0.00000000 hartree =       0.00000000 kcal/mol
 --------------------------------------------------
 Non-electrostatic Free Energy =       0.00000000 hartree =       0.00000000 kcal/mol
 Total                         =      -0.35368906 hartree =    -221.94323449 kcal/mol
 --------------------------------------------------
 SCF Energy (H0 + V/2)                       =    -646.97441670 
 Solute Internal Energy (H0)                 =    -646.62072764 
 Total Free Energy (H0 + V/2 + non-elec)     =    -646.97441670 hartree
                                             = -405982.57397335 kcal/mol
***********************************************************

 SCF time:  CPU 4919.03 s  wall 352.40 s
 SCF   energy in the final basis set = -646.97441670
 Total energy in the final basis set = -646.97441670
 
 --------------------------------------------------------------
 
                    Orbital Energies (a.u.)
 --------------------------------------------------------------
 
 Alpha MOs
 -- Occupied --
-19.214 -19.204 -19.183 -19.162 -19.151 -19.131 -10.388 -10.355
-10.289 -10.261 -10.248  -1.209  -1.162  -1.151  -1.116  -1.067
 -0.917  -0.867  -0.850  -0.719  -0.707  -0.623  -0.597  -0.578
 -0.572  -0.564  -0.559  -0.542  -0.519  -0.511  -0.503  -0.483
 -0.481  -0.466  -0.452  -0.413  -0.406  -0.394  -0.373  -0.365
 -0.356  -0.340  -0.297  -0.265
 -- Virtual --
  0.060   0.074   0.079   0.083   0.099   0.102   0.105   0.111
  0.118   0.121   0.125   0.137   0.143   0.148   0.149   0.152
  0.163   0.168   0.179   0.181   0.190   0.192   0.195   0.202
  0.209   0.219   0.225   0.225   0.235   0.240   0.247   0.254
  0.261   0.263   0.267   0.273   0.278   0.290   0.293   0.301
  0.309   0.318   0.318   0.323   0.333   0.338   0.341   0.346
  0.349   0.353   0.359   0.363   0.370   0.373   0.376   0.385
  0.386   0.391   0.392   0.405   0.406   0.409   0.415   0.423
  0.430   0.435   0.443   0.444   0.449   0.456   0.464   0.466
  0.474   0.476   0.487   0.489   0.492   0.497   0.499   0.503
  0.506   0.514   0.517   0.520   0.530   0.532   0.539   0.545
  0.550   0.567   0.569   0.574   0.579   0.584   0.601   0.604
  0.608   0.616   0.621   0.629   0.633   0.638   0.644   0.651
  0.660   0.665   0.671   0.675   0.678   0.683   0.688   0.698
  0.703   0.710   0.714   0.727   0.733   0.739   0.743   0.751
  0.758   0.760   0.767   0.771   0.778   0.782   0.795   0.802
  0.808   0.815   0.818   0.824   0.831   0.840   0.842   0.846
  0.853   0.864   0.866   0.874   0.875   0.888   0.899   0.907
  0.913   0.931   0.948   0.956   0.958   0.973   0.984   0.987
  0.998   1.005   1.023   1.033   1.048   1.061   1.073   1.092
  1.097   1.102   1.113   1.122   1.130   1.137   1.156   1.166
  1.175   1.198   1.204   1.215   1.220   1.240   1.242   1.251
  1.263   1.287   1.291   1.307   1.335   1.336   1.340   1.360
  1.374   1.386   1.400   1.405   1.426   1.437   1.439   1.458
  1.474   1.482   1.489   1.500   1.521   1.554   1.586   1.597
  1.611   1.632   1.673   1.701   1.739   1.777   1.817   1.827
  1.839   1.879   1.888   1.892   1.902   1.921   1.925   1.934
  1.944   1.949   1.962   1.965   1.987   2.016   2.024   2.029
  2.036   2.044   2.063   2.074   2.090   2.103   2.121   2.124
  2.145   2.161   2.179   2.194   2.215   2.230   2.239   2.251
  2.281   2.300   2.314   2.325   2.336   2.348   2.376   2.390
  2.406   2.424   2.433   2.446   2.466   2.481   2.502   2.512
  2.530   2.554   2.568   2.581   2.592   2.613   2.632   2.658
  2.665   2.668   2.690   2.726   2.741   2.760   2.766   2.798
  2.830   2.843   2.880   2.893   2.902   2.922   2.936   2.956
  2.984   2.998   3.009   3.045   3.055   3.088   3.116   3.131
  3.141   3.154   3.207   3.212   3.218   3.239   3.254   3.267
  3.290   3.305   3.309   3.318   3.334   3.341   3.356   3.372
  3.382   3.392   3.400   3.419   3.427   3.442   3.444   3.464
  3.478   3.496   3.517   3.530   3.539   3.557   3.595   3.599
  3.617   3.624   3.628   3.636   3.662   3.678   3.688   3.705
  3.713   3.724   3.736   3.750   3.770   3.779   3.802   3.825
  3.832   3.874   3.909   3.921   3.959   3.987   4.072   4.086
  4.106   4.151   4.162   4.188   4.199   4.223   4.291   4.305
  4.388   4.441   4.552   4.576   4.583   4.640   4.663   4.693
  4.735   4.745   4.813   4.850   4.892   4.923   4.950   5.001
  5.025   5.035   5.145   5.171   5.253   5.288   5.295   5.323
  5.337   5.350   5.368   5.373   5.390   5.390   5.415   5.419
  5.465   5.542   5.554   5.632   5.681   5.706   5.735   5.742
  5.766   5.795   5.976   5.990   6.023   6.093   6.140   6.178
  6.212   6.261   6.283   6.310   6.322   6.365   6.479   6.580
  6.618   6.632   6.650   6.662   6.681   6.698   6.711   6.717
  6.728   6.761   6.779   6.837   6.859   6.909   6.965   6.990
  7.002   7.012   7.048   7.056   7.101   7.119   7.168   7.228
  7.260   7.349   7.362   7.373   7.412   7.446   7.494   7.511
  7.752   8.274  22.617  22.838  22.862  23.636  23.736  44.102
 44.340  44.417  44.468  44.590  44.596
 --------------------------------------------------------------
 
          Ground-State Mulliken Net Atomic Charges

     Atom                 Charge (a.u.)
  ----------------------------------------
      1 C                    -0.825846
      2 H                     0.227958
      3 H                     0.225009
      4 H                     0.260553
      5 C                     0.643647
      6 C                    -0.082809
      7 H                     0.011950
      8 H                     0.166455
      9 C                    -0.171891
     10 H                     0.261050
     11 H                     0.101490
     12 C                     0.321587
     13 O                    -0.865369
     14 O                    -0.458357
     15 H                     0.389659
     16 O                    -0.581334
     17 O                    -0.688021
     18 O                    -0.700863
     19 O                    -0.234868
  ----------------------------------------
  Sum of atomic charges =    -2.000000

 -----------------------------------------------------------------
                    Cartesian Multipole Moments
 -----------------------------------------------------------------
    Charge (ESU x 10^10)
                -9.6064
    Dipole Moment (Debye)
         X     -17.1884      Y       0.7075      Z      18.0736
       Tot      24.9518
    Quadrupole Moments (Debye-Ang)
        XX    -117.8470     XY      -1.0980     YY     -93.2731
        XZ      22.5994     YZ      12.8576     ZZ    -110.2692
    Octopole Moments (Debye-Ang^2)
       XXX    -276.0303    XXY      22.8141    XYY     -76.3687
       YYY       4.8986    XXZ     111.4161    XYZ      31.1103
       YYZ      75.8263    XZZ     -84.2891    YZZ     -32.7819
       ZZZ     199.2554
    Hexadecapole Moments (Debye-Ang^3)
      XXXX   -2415.1377   XXXY     -81.5256   XXYY    -535.6423
      XYYY    -202.8842   YYYY    -826.6757   XXXZ     318.9957
      XXYZ      54.5612   XYYZ     119.6940   YYYZ     160.6569
      XXZZ    -554.3328   XYZZ    -147.3441   YYZZ    -309.3392
      XZZZ     330.4656   YZZZ     227.8604   ZZZZ    -871.5335
 -----------------------------------------------------------------
 Calculating analytic gradient of the SCF energy
 Gradient of SCF Energy
            1           2           3           4           5           6
    1  -0.0531968  -0.0056769   0.0461380   0.0035278   0.0396073  -0.0462207
    2  -0.0006712  -0.0491050   0.0001655   0.0373582  -0.0006842  -0.0385547
    3   0.0049644  -0.0252077   0.0385658  -0.0339111  -0.0332024  -0.0230161
            7           8           9          10          11          12
    1   0.0551615   0.0262547   0.0410056   0.0209870  -0.0620931  -0.0097783
    2   0.0719819  -0.0550415   0.0292161   0.0133954  -0.0487029  -0.0396732
    3   0.0255095  -0.0306358   0.1043221  -0.0628138  -0.0052802  -0.0539916
           13          14          15          16          17          18
    1   0.0088655  -0.0235847  -0.0101320  -0.0071912  -0.0691312   0.0558524
    2  -0.0473463  -0.0060890   0.0344885   0.0075605   0.0225996   0.0264144
    3  -0.0412798  -0.0030956   0.0069008   0.0632835   0.0138974  -0.0036218
           19
    1  -0.0103949
    2   0.0426879
    3   0.0586121
 Max gradient component =       1.043E-01
 RMS gradient           =       3.885E-02
 Computing fast CPCM-ISWIG gradient
 Updating gradient with PCM contributions...
 -- total gradient after adding PCM contribution --
---------------------------------------------------
  Atom         X              Y              Z     
---------------------------------------------------
   1       0.000020       0.001031      -0.000006
   2      -0.000012      -0.000495      -0.000220
   3      -0.000003      -0.000089      -0.000003
   4      -0.000051      -0.000354       0.000259
   5       0.000024      -0.000178      -0.000018
   6      -0.000008      -0.000006       0.000010
   7       0.000002       0.000003      -0.000000
   8       0.000003       0.000002      -0.000002
   9       0.000000       0.000004      -0.000004
  10      -0.000001      -0.000000      -0.000000
  11      -0.000001       0.000002      -0.000002
  12      -0.000004      -0.000000      -0.000003
  13      -0.000005       0.000000       0.000001
  14       0.000013       0.000027      -0.000002
  15      -0.000003       0.000008       0.000008
  16       0.000011       0.000044      -0.000009
  17       0.000002      -0.000001       0.000002
  18       0.000011       0.000000      -0.000002
  19       0.000003       0.000002      -0.000010
---------------------------------------------------
 Number of fixed atoms: 0
 Gradient time:  CPU 1040.47 s  wall 75.70 s
 ----------------------------------------------------------------
             Standard Nuclear Orientation (Angstroms)
    I     Atom           X                Y                Z
 ----------------------------------------------------------------
    1      C      -3.2014652847    -0.8026756431     0.6257216642
    2      H      -3.1674949593     0.1604165326     1.1446936724
    3      H      -4.0324006388    -0.8107585816    -0.0785651821
    4      H      -3.3405854418    -1.5794970745     1.3807237201
    5      C      -1.8954419061    -1.0200564271    -0.0959692282
    6      C       1.0173866519     1.5828120549    -0.4300012103
    7      H       0.1365246156     1.0036007990    -0.7396540435
    8      H       0.6806818190     2.4017270601     0.2205053064
    9      C       1.9833972047     0.7043363929     0.3730125233
   10      H       1.5248333790     0.5203528251     1.3531576577
   11      H       2.9134509067     1.2558079889     0.5368308066
   12      C       2.3050942795    -0.6577176978    -0.2314107919
   13      O       1.7002733733     1.2315078705    -2.6237539628
   14      O      -0.8608450288    -1.0915319101     0.7089317304
   15      H       0.0674659125    -1.2125396143     0.1887034835
   16      O      -1.8157452858    -1.1132576276    -1.3143653298
   17      O       3.4823399625    -0.9391796638    -0.5219359692
   18      O       1.3307949122    -1.4802178655    -0.3672430914
   19      O       1.5866701861     2.2073151914    -1.5496232123
 ----------------------------------------------------------------
 Nuclear Repulsion Energy =   627.4970084353 hartrees
 There are       44 alpha and       44 beta electrons
 Discretize the solute cavity surface with Lebedev spheres
	Using 110 Lebedev grid points for each H atom
	Using 110 Lebedev grid points for other atoms
	Atomic van der Waals radii will be scaled by 1.20
 Remove points where switching function is < 1.0e-08
 Keep 1172 surface tesserae and discard 918 interior tesserae
 Molecular Surface Area = 211.934 Angst**2
 Requested basis set is def2-TZVPD
 There are 189 shells and 497 basis functions
 A cutoff of  1.0D-14 yielded  15949 shell pairs
 There are    110749 function pairs (    141109 Cartesian)
 Smallest overlap matrix eigenvalue = 4.15E-06
 Guess MOs from SCF MO coefficient file
 Reading MOs from coefficient file
 Reading MOs from coefficient file
 Long-range K will be added via erf
 Coulomb attenuation parameter = 0.3 bohr**(-1)
 A restricted hybrid HF-DFT SCF calculation will be
 performed using Pulay DIIS extrapolation
 Polarizable Continuum solvation model will be applied
 Exchange:     0.1670 Hartree-Fock + 1.0000 wB97X-V + LR-HF
 Correlation:  1.0000 wB97X-V
 Using SG-2 standard quadrature grid
 Nonlocal Correlation:  VV10 with C = 0.0100 and b = 6.00
 Grid used for NLC:  SG-1 standard quadrature
 SCF converges when DIIS error is below 1.0E-08
Using Q-Chem read-in guess as SCF_GUESS READ specified.

 using 16 threads for integral computing
 -------------------------------------------------------
 OpenMP Integral computing Module                
 Release: version 1.0, May 2013, Q-Chem Inc. Pittsburgh 
 -------------------------------------------------------
 using 16 threads for integral computing
 -------------------------------------------------------
 OpenMP Integral computing Module                
 Release: version 1.0, May 2013, Q-Chem Inc. Pittsburgh 
 -------------------------------------------------------
 -------------------------------------------------------
 OpenMP BLAS3 based DFT computing Module                
 Release: version 1.0, May 2013, Q-Chem Inc. Pittsburgh 
 -------------------------------------------------------
 -------------------------------------------------------
 OpenMP BLAS3 based DFT computing Module                
 Release: version 1.0, May 2013, Q-Chem Inc. Pittsburgh 
 -------------------------------------------------------
 -------------------------------------------------------
 OpenMP BLAS3 based DFT computing Module                
 Release: version 1.0, May 2013, Q-Chem Inc. Pittsburgh 
 -------------------------------------------------------
 ---------------------------------------
  Cycle       Energy         DIIS Error
 ---------------------------------------
    1    -646.6207087885      5.74E-04
    2    -646.9508554446      6.55E-04
    3    -646.9678136385      2.90E-04
    4    -646.9704784258      2.10E-04
    5    -646.9721266768      1.58E-04
    6    -646.9729605025      1.26E-04
    7    -646.9736186015      9.32E-05
    8    -646.9740591978      6.24E-05
    9    -646.9743007740      3.56E-05
   10    -646.9743908929      1.68E-05
   11    -646.9744156083      3.53E-06
   12    -646.9744167000      6.22E-07
   13    -646.9744167319      1.61E-07
   14    -646.9744167341      2.10E-08
   15    -646.9744167341      5.77E-09 Convergence criterion met
 ---------------------------------------

************** Final PCM Free Energy Summary **************
 G_electrostatic  =      -0.35369577 hartree =    -221.94744661 kcal/mol
 G_cavitation     =       0.00000000 hartree =       0.00000000 kcal/mol
 G_dispersion     =       0.00000000 hartree =       0.00000000 kcal/mol
 G_repulsion      =       0.00000000 hartree =       0.00000000 kcal/mol
 --------------------------------------------------
 Non-electrostatic Free Energy =       0.00000000 hartree =       0.00000000 kcal/mol
 Total                         =      -0.35369577 hartree =    -221.94744661 kcal/mol
 --------------------------------------------------
 SCF Energy (H0 + V/2)                       =    -646.97441673 
 Solute Internal Energy (H0)                 =    -646.62072096 
 Total Free Energy (H0 + V/2 + non-elec)     =    -646.97441673 hartree
                                             = -405982.57399538 kcal/mol
***********************************************************

 SCF time:  CPU 4600.90 s  wall 329.86 s
 SCF   energy in the final basis set = -646.97441673
 Total energy in the final basis set = -646.97441673
 
 --------------------------------------------------------------
 
                    Orbital Energies (a.u.)
 --------------------------------------------------------------
 
 Alpha MOs
 -- Occupied --
-19.214 -19.204 -19.183 -19.162 -19.151 -19.131 -10.388 -10.355
-10.289 -10.261 -10.248  -1.209  -1.162  -1.151  -1.116  -1.067
 -0.917  -0.867  -0.850  -0.719  -0.707  -0.623  -0.597  -0.578
 -0.572  -0.564  -0.559  -0.542  -0.519  -0.511  -0.503  -0.484
 -0.480  -0.466  -0.452  -0.413  -0.406  -0.394  -0.373  -0.365
 -0.356  -0.340  -0.297  -0.265
 -- Virtual --
  0.060   0.074   0.079   0.083   0.099   0.102   0.105   0.111
  0.118   0.121   0.125   0.137   0.143   0.148   0.149   0.152
  0.163   0.168   0.179   0.181   0.190   0.192   0.195   0.202
  0.209   0.219   0.225   0.225   0.235   0.240   0.247   0.254
  0.261   0.263   0.267   0.273   0.278   0.290   0.293   0.301
  0.309   0.318   0.318   0.324   0.333   0.338   0.341   0.346
  0.349   0.353   0.359   0.363   0.370   0.373   0.375   0.385
  0.386   0.391   0.392   0.405   0.406   0.409   0.415   0.423
  0.431   0.434   0.443   0.444   0.449   0.456   0.464   0.466
  0.474   0.476   0.486   0.489   0.492   0.497   0.500   0.503
  0.506   0.514   0.517   0.520   0.530   0.532   0.539   0.545
  0.550   0.567   0.569   0.574   0.579   0.584   0.601   0.604
  0.608   0.617   0.621   0.629   0.633   0.638   0.644   0.651
  0.660   0.665   0.671   0.675   0.678   0.683   0.688   0.698
  0.703   0.710   0.714   0.727   0.733   0.739   0.743   0.751
  0.758   0.760   0.767   0.771   0.778   0.782   0.795   0.802
  0.808   0.815   0.818   0.824   0.831   0.840   0.842   0.846
  0.853   0.863   0.866   0.874   0.875   0.888   0.899   0.907
  0.913   0.931   0.948   0.956   0.958   0.973   0.985   0.987
  0.998   1.005   1.023   1.033   1.048   1.061   1.073   1.092
  1.097   1.102   1.113   1.122   1.130   1.137   1.156   1.166
  1.174   1.198   1.204   1.215   1.220   1.240   1.242   1.251
  1.263   1.287   1.291   1.307   1.335   1.336   1.340   1.360
  1.374   1.386   1.400   1.405   1.427   1.437   1.439   1.458
  1.474   1.482   1.489   1.500   1.521   1.554   1.586   1.597
  1.611   1.632   1.673   1.701   1.740   1.777   1.817   1.827
  1.839   1.879   1.888   1.892   1.902   1.921   1.925   1.934
  1.944   1.949   1.962   1.965   1.987   2.016   2.024   2.029
  2.036   2.044   2.063   2.074   2.090   2.103   2.121   2.124
  2.145   2.161   2.179   2.194   2.215   2.230   2.239   2.251
  2.281   2.300   2.314   2.325   2.336   2.348   2.376   2.390
  2.406   2.424   2.433   2.446   2.466   2.482   2.502   2.512
  2.530   2.554   2.568   2.581   2.592   2.613   2.632   2.658
  2.665   2.668   2.690   2.726   2.741   2.760   2.766   2.798
  2.830   2.843   2.880   2.893   2.902   2.922   2.936   2.956
  2.984   2.998   3.009   3.045   3.055   3.088   3.116   3.131
  3.141   3.154   3.207   3.212   3.218   3.239   3.254   3.267
  3.289   3.305   3.310   3.318   3.334   3.341   3.356   3.372
  3.382   3.392   3.400   3.419   3.427   3.442   3.445   3.464
  3.478   3.496   3.517   3.531   3.539   3.557   3.595   3.599
  3.617   3.624   3.628   3.636   3.662   3.678   3.688   3.704
  3.713   3.724   3.736   3.750   3.770   3.779   3.802   3.825
  3.832   3.874   3.909   3.922   3.959   3.987   4.072   4.087
  4.106   4.151   4.162   4.188   4.200   4.223   4.291   4.305
  4.388   4.441   4.552   4.576   4.582   4.640   4.663   4.693
  4.735   4.745   4.813   4.850   4.892   4.923   4.950   5.001
  5.025   5.035   5.145   5.171   5.253   5.288   5.295   5.323
  5.337   5.350   5.368   5.373   5.390   5.390   5.415   5.419
  5.465   5.542   5.555   5.632   5.681   5.706   5.735   5.742
  5.766   5.795   5.976   5.990   6.023   6.093   6.140   6.178
  6.212   6.261   6.283   6.310   6.322   6.365   6.479   6.580
  6.618   6.632   6.650   6.662   6.681   6.698   6.711   6.717
  6.728   6.761   6.779   6.837   6.859   6.909   6.965   6.990
  7.002   7.012   7.048   7.056   7.101   7.119   7.168   7.228
  7.260   7.349   7.362   7.373   7.412   7.446   7.494   7.511
  7.752   8.274  22.617  22.838  22.862  23.636  23.736  44.102
 44.339  44.417  44.468  44.590  44.596
 --------------------------------------------------------------
 
          Ground-State Mulliken Net Atomic Charges

     Atom                 Charge (a.u.)
  ----------------------------------------
      1 C                    -0.826465
      2 H                     0.227410
      3 H                     0.225168
      4 H                     0.261141
      5 C                     0.643961
      6 C                    -0.082737
      7 H                     0.011883
      8 H                     0.166408
      9 C                    -0.171860
     10 H                     0.261061
     11 H                     0.101493
     12 C                     0.321549
     13 O                    -0.865368
     14 O                    -0.458284
     15 H                     0.389689
     16 O                    -0.581309
     17 O                    -0.688028
     18 O                    -0.700843
     19 O                    -0.234870
[...]
 Red. Mass:       4.2523                 1.3477                 1.2734
 IR Active:          YES                    YES                    YES
 IR Intens:      108.993                242.547                428.767
 Raman Active:       YES                    YES                    YES
               X      Y      Z        X      Y      Z        X      Y      Z
 C          0.001  0.001  0.001    0.000 -0.000  0.002    0.007  0.007  0.012
 H         -0.004  0.000  0.002    0.003  0.005 -0.008    0.013  0.022 -0.023
 H          0.003 -0.003 -0.002    0.015 -0.001 -0.014    0.070 -0.026 -0.062
 H         -0.000 -0.002 -0.003   -0.001 -0.006 -0.004    0.001 -0.037 -0.036
 C          0.000 -0.000  0.001   -0.015  0.003 -0.008   -0.057  0.010 -0.023
 C          0.022  0.137 -0.318   -0.104 -0.054  0.017    0.000  0.007  0.018
 H         -0.145  0.268 -0.176   -0.183 -0.111  0.348   -0.016  0.145 -0.202
 H          0.112  0.241 -0.373    0.009 -0.036  0.052   -0.040 -0.048  0.069
 C          0.084 -0.059  0.098    0.028 -0.004  0.020    0.039 -0.005  0.005
 H         -0.046  0.193  0.079   -0.359  0.576 -0.052   -0.052  0.085 -0.017
 H          0.352 -0.483  0.017    0.305 -0.487  0.046   -0.084  0.182  0.078
 C         -0.022  0.034 -0.062   -0.038 -0.011 -0.052   -0.034 -0.070 -0.024
 O          0.008 -0.067 -0.078   -0.004  0.003  0.010    0.002  0.003  0.000
 O         -0.005 -0.004  0.001    0.018 -0.003  0.005    0.049 -0.037  0.037
 H          0.015  0.088 -0.006   -0.059  0.033 -0.006   -0.129  0.883 -0.206
 O          0.000 -0.000  0.000    0.000 -0.001 -0.001    0.002 -0.007 -0.016
 O          0.013 -0.006  0.013    0.021 -0.009  0.002   -0.033  0.013  0.009
 O          0.015  0.005  0.014    0.025  0.028  0.016    0.036  0.005  0.009
 O         -0.114 -0.031  0.290    0.053  0.033 -0.040   -0.007 -0.014 -0.005
 TransDip   0.011  0.169 -0.289   -0.488 -0.096  0.040   -0.624  0.172 -0.147

 Mode:                31                     32                     33
 Frequency:      1292.15                1308.67                1349.52
 Force Cnst:      1.3834                 1.7627                 1.7112
 Red. Mass:       1.4063                 1.7469                 1.5948
 IR Active:          YES                    YES                    YES
 IR Intens:      396.441               1556.030                 58.599
 Raman Active:       YES                    YES                    YES
               X      Y      Z        X      Y      Z        X      Y      Z
 C         -0.002 -0.001 -0.012    0.003  0.003 -0.023   -0.018  0.005  0.036
 H         -0.034 -0.028  0.045   -0.084 -0.060  0.109    0.183  0.095 -0.155
 H         -0.071  0.013  0.068   -0.132  0.009  0.133    0.178 -0.038 -0.193
 H         -0.025  0.043  0.033   -0.079  0.092  0.062    0.157 -0.164 -0.115
 C          0.064 -0.008  0.021    0.123 -0.008  0.040   -0.109  0.012 -0.010
 C         -0.023  0.071  0.021    0.002 -0.027 -0.010    0.001 -0.003 -0.028
 H          0.051  0.235 -0.487   -0.028 -0.092  0.194   -0.026  0.135 -0.188
 H         -0.042 -0.336  0.523    0.029 -0.033  0.006    0.126 -0.334  0.452
 C          0.062 -0.070  0.020   -0.058  0.046 -0.016   -0.056  0.101  0.000
 H         -0.222  0.400 -0.029    0.119 -0.140  0.033    0.193 -0.230  0.056
 H         -0.040  0.113 -0.001    0.161 -0.336  0.002    0.242 -0.427  0.092
 C          0.023  0.060 -0.022    0.072  0.088  0.041    0.006  0.075  0.043
 O          0.006  0.013 -0.000   -0.002 -0.000  0.002    0.003  0.006  0.002
 O         -0.053  0.007 -0.025   -0.111 -0.017 -0.034    0.056 -0.003  0.041
 H          0.156 -0.096  0.091    0.394  0.696  0.047   -0.031 -0.048 -0.131
 O         -0.004  0.002  0.012   -0.010 -0.002  0.015    0.011 -0.003 -0.027
 O         -0.000 -0.004  0.007    0.006 -0.011 -0.009    0.050 -0.018 -0.018
 O         -0.012 -0.022 -0.007   -0.026 -0.069 -0.029   -0.047 -0.036 -0.004
 O         -0.015 -0.057 -0.024    0.012  0.014 -0.006   -0.005 -0.024 -0.012
 TransDip   0.601  0.201  0.074    1.202  0.365  0.136   -0.132  0.176 -0.109

 Mode:                34                     35                     36
 Frequency:      1376.16                1400.42                1424.13
 Force Cnst:      1.6903                 1.5973                 2.3981
 Red. Mass:       1.5149                 1.3823                 2.0068
 IR Active:          YES                    YES                    YES
 IR Intens:      508.264                308.339                108.041
 Raman Active:       YES                    YES                    YES
               X      Y      Z        X      Y      Z        X      Y      Z
 C          0.057 -0.014 -0.050    0.089 -0.017 -0.047    0.084 -0.016 -0.030
 H         -0.309 -0.129  0.202   -0.334 -0.113  0.164   -0.247 -0.054  0.064
 H         -0.198  0.063  0.247   -0.134  0.067  0.214   -0.056  0.063  0.133
 H         -0.259  0.237  0.159   -0.275  0.218  0.133   -0.185  0.121  0.060
 C          0.049 -0.008 -0.011   -0.060  0.006 -0.014   -0.117  0.012  0.001
 C          0.014 -0.063  0.032   -0.010  0.079 -0.088   -0.009 -0.055  0.098
 H         -0.110  0.352 -0.381    0.082 -0.332  0.404    0.032  0.146 -0.367
 H          0.048 -0.032  0.016    0.032 -0.266  0.368    0.036  0.364 -0.415
 C         -0.025  0.111 -0.011   -0.005 -0.024  0.024    0.029 -0.044 -0.003
 H          0.157 -0.117  0.039    0.029 -0.107  0.022   -0.326  0.044 -0.165
 H          0.167 -0.275  0.221   -0.074  0.134 -0.107    0.077 -0.065 -0.286
 C         -0.064 -0.095 -0.014   -0.013  0.020  0.009    0.053  0.159  0.055
 O          0.001 -0.000  0.001    0.000  0.003  0.002   -0.000 -0.004 -0.004
 O         -0.002  0.005 -0.013    0.036 -0.002  0.028    0.040 -0.002  0.049
 H         -0.241 -0.122 -0.027   -0.176  0.015 -0.200   -0.011 -0.008 -0.281
 O         -0.007  0.003  0.017    0.004 -0.001 -0.009    0.012 -0.003 -0.030
 O          0.009  0.005 -0.003    0.012 -0.003 -0.003    0.035 -0.022 -0.015
 O          0.036  0.047  0.012   -0.012 -0.008  0.005   -0.067 -0.066 -0.010
 O         -0.013 -0.006 -0.003    0.012 -0.012  0.001   -0.008  0.016 -0.002
 TransDip  -0.627 -0.308  0.181   -0.518  0.145 -0.164    0.078  0.322  0.036

 Mode:                37                     38                     39
 Frequency:      1450.61                1455.25                1459.60
 Force Cnst:      1.3359                 1.3966                 1.4858
 Red. Mass:       1.0775                 1.1193                 1.1837
 IR Active:          YES                    YES                    YES
 IR Intens:       42.704                 31.649                 66.561
 Raman Active:       YES                    YES                    YES
               X      Y      Z        X      Y      Z        X      Y      Z
 C         -0.056  0.007 -0.027    0.006 -0.003 -0.010   -0.014  0.014  0.009
 H          0.205 -0.287  0.515   -0.018 -0.060  0.100    0.119  0.035 -0.045
 H          0.263 -0.147 -0.379    0.049  0.007 -0.057   -0.052 -0.143  0.053
 H          0.188  0.362  0.397    0.021  0.089  0.089   -0.087 -0.081 -0.100
 C          0.011  0.001  0.024   -0.033  0.003  0.001    0.049 -0.000 -0.005
 C          0.002  0.000  0.000   -0.055  0.007  0.012   -0.065  0.014  0.007
 H         -0.009  0.014  0.003    0.248 -0.325 -0.194    0.288 -0.356 -0.264
 H         -0.015 -0.011  0.008    0.421  0.207 -0.014    0.527  0.152  0.126
 C          0.005  0.006  0.013   -0.020 -0.034 -0.055    0.009  0.043  0.046
 H         -0.091 -0.075 -0.050    0.359  0.319  0.199   -0.277 -0.262 -0.146
 H          0.027  0.004 -0.121   -0.112 -0.024  0.492    0.112 -0.022 -0.366
 C         -0.008  0.002  0.005    0.014  0.018 -0.007   -0.036 -0.040 -0.002
 O          0.000  0.000  0.000    0.000 -0.003 -0.004    0.001 -0.002 -0.003
 O         -0.005  0.001  0.003    0.009 -0.001  0.004   -0.012 -0.001 -0.011
 H         -0.078 -0.007 -0.087    0.051  0.006  0.033   -0.075  0.048  0.007
 O          0.002 -0.002 -0.031    0.004 -0.001 -0.006   -0.006  0.001  0.012
 O          0.006 -0.002 -0.002   -0.005 -0.000  0.002    0.008  0.001 -0.002
 O          0.000  0.000  0.001   -0.007 -0.007 -0.000    0.018  0.017  0.003
 O          0.000 -0.000 -0.001   -0.001  0.005  0.008   -0.001  0.001  0.004
 TransDip  -0.041 -0.001  0.205    0.138  0.075  0.088   -0.209 -0.140 -0.072

 Mode:                40                     41                     42
 Frequency:      1463.58                1496.94                1590.15
 Force Cnst:      1.3314                 1.9769                 7.0688
 Red. Mass:       1.0549                 1.4974                 4.7448
 IR Active:          YES                    YES                    YES
 IR Intens:        6.804                124.396               1460.905
 Raman Active:       YES                    YES                    YES
               X      Y      Z        X      Y      Z        X      Y      Z
 C         -0.017 -0.048  0.009    0.046 -0.006 -0.020    0.026 -0.004 -0.011
 H         -0.411  0.062 -0.146   -0.064 -0.078  0.115    0.009  0.022 -0.058
 H          0.093  0.684 -0.131    0.052 -0.033 -0.025   -0.031  0.003  0.063
 H          0.488  0.038  0.176   -0.080  0.116  0.079   -0.006 -0.039 -0.052
 C          0.010 -0.027  0.003   -0.156  0.015 -0.041   -0.027  0.015  0.168
 C         -0.010  0.003  0.000    0.000 -0.002 -0.001   -0.010  0.003 -0.007
 H          0.046 -0.058 -0.043   -0.001  0.024 -0.042    0.017 -0.022 -0.040
 H          0.088  0.019  0.029    0.022 -0.022  0.040    0.071 -0.024  0.079
 C          0.002  0.012  0.012   -0.004  0.032  0.020   -0.041  0.058  0.030
 H         -0.067 -0.065 -0.035   -0.092 -0.089 -0.044   -0.059  0.048  0.016
 H          0.028 -0.005 -0.089    0.060 -0.033 -0.123    0.152 -0.194 -0.091
 C         -0.006 -0.014 -0.002    0.043 -0.060 -0.030    0.384 -0.157 -0.126
 O          0.000 -0.000 -0.000    0.000  0.000  0.000   -0.001  0.001  0.001
 O         -0.005  0.002 -0.005    0.037 -0.007 -0.024   -0.038  0.013  0.054
 H          0.006  0.039  0.018    0.585  0.039  0.719    0.069 -0.273 -0.714
 O         -0.001  0.003  0.002    0.020 -0.000  0.028    0.009 -0.009 -0.124
 O         -0.001  0.001  0.001   -0.043  0.015  0.015   -0.235  0.069  0.064
 O          0.006  0.004  0.000    0.011  0.014 -0.011    0.002  0.024  0.013
 O         -0.000 -0.000  0.001   -0.002 -0.002 -0.000   -0.000 -0.004  0.002
 TransDip   0.015  0.080 -0.018    0.323 -0.096 -0.118    1.209 -0.189 -0.032

 Mode:                43                     44                     45
 Frequency:      1693.01                1982.36                3020.59
 Force Cnst:     11.2521                 3.1651                 5.6799
 Red. Mass:       6.6630                 1.3670                 1.0566
 IR Active:          YES                    YES                    YES
 IR Intens:      478.344               2869.536                105.517
 Raman Active:       YES                    YES                    YES
               X      Y      Z        X      Y      Z        X      Y      Z
 C          0.050 -0.009 -0.046    0.006 -0.000  0.010    0.000 -0.000 -0.000
 H          0.016  0.036 -0.125   -0.003 -0.006  0.017    0.000  0.003  0.001
 H         -0.121  0.037  0.184    0.041 -0.011 -0.044   -0.001 -0.000 -0.001
 H          0.023 -0.075 -0.118   -0.007  0.012  0.017   -0.000 -0.001  0.001
 C         -0.098  0.046  0.503   -0.015 -0.005 -0.097   -0.000  0.000 -0.000
 C          0.004 -0.001  0.001    0.001 -0.001  0.001    0.061 -0.017 -0.017
 H          0.005 -0.010  0.003    0.005 -0.001 -0.005   -0.526 -0.361 -0.196
 H          0.000  0.003 -0.012    0.002  0.002 -0.005   -0.213  0.544  0.432
 C          0.022  0.000 -0.005    0.004  0.005  0.000   -0.003 -0.000  0.011
 H          0.020 -0.060 -0.008    0.008 -0.005  0.001    0.066  0.022 -0.129
 H         -0.081  0.129  0.046   -0.022  0.031  0.016   -0.030 -0.016 -0.003
 C         -0.268 -0.043  0.028   -0.068 -0.040 -0.004   -0.000  0.001  0.001
 O          0.000  0.000 -0.001    0.000  0.000 -0.001   -0.000  0.000  0.000
 O         -0.049  0.002 -0.019   -0.057  0.010  0.060    0.000  0.000  0.000
 H          0.641 -0.013  0.053    0.734 -0.149 -0.637    0.002 -0.001 -0.001
 O          0.032 -0.025 -0.309   -0.002  0.004  0.050    0.000  0.000  0.000
 O          0.123 -0.022 -0.027    0.028  0.000 -0.004    0.000 -0.000 -0.000
 O          0.081  0.045 -0.006    0.037  0.024  0.003   -0.000 -0.000 -0.000
 O         -0.000  0.001 -0.001   -0.000  0.000 -0.000    0.001  0.001 -0.002
 TransDip   0.069 -0.014  0.697    1.534 -0.167 -0.749    0.282 -0.105 -0.133

 Mode:                46                     47                     48
 Frequency:      3055.18                3070.15                3073.71
 Force Cnst:      5.8673                 6.1159                 5.7729
 Red. Mass:       1.0669                 1.1013                 1.0371
 IR Active:          YES                    YES                    YES
 IR Intens:       19.399                 69.104                  2.916
 Raman Active:       YES                    YES                    YES
               X      Y      Z        X      Y      Z        X      Y      Z
 C          0.000 -0.000 -0.000   -0.002  0.001  0.002    0.035 -0.012 -0.035
 H          0.000  0.004  0.002   -0.001 -0.033 -0.018    0.024  0.576  0.305
 H         -0.002 -0.000 -0.002    0.020  0.000  0.017   -0.346 -0.006 -0.301
 H         -0.000 -0.002  0.002    0.004  0.024 -0.022   -0.073 -0.432  0.409
 C         -0.000  0.000 -0.000    0.000 -0.000  0.000   -0.002  0.000  0.001
 C          0.020  0.021  0.015   -0.025 -0.069 -0.049   -0.002 -0.004 -0.003
 H         -0.270 -0.177 -0.098    0.521  0.339  0.187    0.031  0.020  0.011
 H          0.038 -0.091 -0.074   -0.206  0.498  0.391   -0.010  0.025  0.020
 C         -0.004 -0.009 -0.065    0.006  0.000 -0.027    0.000  0.000 -0.001
 H         -0.345 -0.136  0.719   -0.146 -0.056  0.308   -0.006 -0.002  0.012
 H          0.392  0.232  0.056    0.063  0.035  0.007    0.000  0.000 -0.000
 C         -0.000  0.002  0.000   -0.000  0.001 -0.000   -0.000  0.000  0.000
 O         -0.000 -0.000 -0.000    0.000  0.001  0.000    0.000  0.000  0.000
 O          0.000  0.000  0.000   -0.000 -0.000  0.000    0.000 -0.000 -0.000
 H          0.002 -0.002 -0.002    0.001  0.001 -0.001   -0.000  0.000  0.001
 O          0.000  0.000  0.000   -0.000 -0.000 -0.000    0.000 -0.000  0.000
 O          0.000 -0.000 -0.000    0.000 -0.000 -0.000    0.000 -0.000 -0.000
 O         -0.000 -0.000 -0.000    0.000 -0.000  0.000    0.000  0.000 -0.000
 O          0.000  0.001 -0.000   -0.001 -0.001 -0.000   -0.000 -0.000 -0.000
 TransDip   0.057  0.023 -0.127   -0.082 -0.186 -0.172    0.031 -0.018 -0.041

 Mode:                49                     50                     51
 Frequency:      3116.56                3145.73                3179.94
 Force Cnst:      6.2963                 6.4183                 6.5824
 Red. Mass:       1.1002                 1.1008                 1.1048
 IR Active:          YES                    YES                    YES
 IR Intens:       53.408                  6.817                 14.016
 Raman Active:       YES                    YES                    YES
               X      Y      Z        X      Y      Z        X      Y      Z
 C         -0.000  0.000 -0.000   -0.014 -0.090  0.009   -0.053  0.001 -0.077
 H         -0.000  0.000  0.000    0.019  0.608  0.340    0.002  0.248  0.121
 H          0.000  0.000  0.000    0.054 -0.013  0.049    0.675  0.008  0.574
 H         -0.000 -0.001  0.001    0.089  0.496 -0.497   -0.053 -0.263  0.242
 C          0.000 -0.000  0.000    0.000 -0.001 -0.000    0.000 -0.000 -0.003
 C         -0.006 -0.007 -0.004   -0.000 -0.000 -0.000    0.000  0.000  0.000
 H          0.080  0.051  0.030    0.002  0.001  0.001   -0.000  0.000 -0.000
 H         -0.012  0.032  0.021   -0.000  0.000  0.000    0.000 -0.000 -0.000
 C         -0.077 -0.044  0.021   -0.000 -0.000  0.000    0.000  0.000 -0.000
 H          0.179  0.069 -0.397    0.000  0.000 -0.000   -0.000 -0.000  0.000
 H          0.756  0.445  0.131    0.000  0.000  0.000   -0.000 -0.000 -0.000
 C         -0.003  0.001  0.001   -0.000 -0.000  0.000    0.000  0.000 -0.000
 O          0.000  0.000 -0.000    0.000 -0.000 -0.000   -0.000 -0.000 -0.000
 O         -0.000 -0.000  0.000   -0.000  0.000 -0.000   -0.000  0.000  0.000
 H          0.005  0.002 -0.001    0.000  0.001 -0.000    0.005 -0.001 -0.002
 O         -0.000 -0.000 -0.000   -0.000 -0.000  0.000    0.000  0.000  0.001
 O          0.001  0.000 -0.000   -0.000  0.000  0.000   -0.000  0.000 -0.000
 O          0.000  0.000 -0.000   -0.000 -0.000  0.000   -0.000  0.000  0.000
 O          0.000  0.000 -0.000   -0.000 -0.000  0.000   -0.000 -0.000  0.000
 TransDip  -0.195 -0.130  0.003   -0.019 -0.081  0.012   -0.083  0.003 -0.086

 STANDARD THERMODYNAMIC QUANTITIES AT   298.15 K  AND     1.00 ATM

   This Molecule has  0 Imaginary Frequencies
   Zero point vibrational energy:       85.108 kcal/mol

   Atom    1 Element C  Has Mass   12.00000
   Atom    2 Element H  Has Mass    1.00783
   Atom    3 Element H  Has Mass    1.00783
   Atom    4 Element H  Has Mass    1.00783
   Atom    5 Element C  Has Mass   12.00000
   Atom    6 Element C  Has Mass   12.00000
   Atom    7 Element H  Has Mass    1.00783
   Atom    8 Element H  Has Mass    1.00783
   Atom    9 Element C  Has Mass   12.00000
   Atom   10 Element H  Has Mass    1.00783
   Atom   11 Element H  Has Mass    1.00783
   Atom   12 Element C  Has Mass   12.00000
   Atom   13 Element O  Has Mass   15.99491
   Atom   14 Element O  Has Mass   15.99491
   Atom   15 Element H  Has Mass    1.00783
   Atom   16 Element O  Has Mass   15.99491
   Atom   17 Element O  Has Mass   15.99491
   Atom   18 Element O  Has Mass   15.99491
   Atom   19 Element O  Has Mass   15.99491
   Molecular Mass:   164.032100 amu
   Principal axes and moments of inertia in amu*Bohr^2:
                             1           2           3
    Eigenvalues --     1241.40530  3036.65887  3542.67854
          X               0.91886    -0.39360     0.02789
          Y               0.32736     0.79987     0.50303
          Z              -0.22031    -0.45308     0.86382
   Rotational Symmetry Number is   1
   The Molecule is an Asymmetric Top
   Translational Enthalpy:        0.889 kcal/mol
   Rotational Enthalpy:           0.889 kcal/mol
   Vibrational Enthalpy:         91.307 kcal/mol
   gas constant (RT):             0.592 kcal/mol
   Translational Entropy:        41.193  cal/mol.K
   Rotational Entropy:           30.969  cal/mol.K
   Vibrational Entropy:          44.166  cal/mol.K

   Total Enthalpy:               93.677 kcal/mol
   Total Entropy:               116.328  cal/mol.K
Archival summary:
1\1\c5-89\FREQ\ProcedureUnspecified\BasisUnspecified\658(2-,1)\leeping\SatMar2111:24:202020SatMar2111:24:202020\0\\#,FREQ,ProcedureUnspecified,BasisUnspecified,\\-2,1\O\C,1,1.28227\O,2,1.2448,1,123.287\H,1,1.40596,2,121.247,3,168.541,0\O,4,1.071,1,172.941,2,-100.899,0\C,5,1.31277,4,113.044,1,-140.779,0\O,6,1.22455,5,123.684,4,1.62496,0\C,6,1.50805,5,113.39,4,-178.001,0\H,8,1.08929,6,110.488,5,-176.541,0\H,8,1.09288,6,109.742,5,-54.9516,0\H,8,1.09367,6,109.122,5,62.7119,0\C,2,1.52447,1,117.05,3,-177.371,0\H,12,1.0936,2,109.298,1,173.54,0\H,12,1.09764,2,107.004,1,57.0408,0\C,12,1.53288,2,115.933,1,-62.8406,0\H,15,1.0987,12,108.066,2,166.044,0\H,15,1.09877,12,110.533,2,47.6871,0\O,15,1.40273,12,114.678,2,-76.7775,0\O,18,1.45563,15,108.796,12,77.8312,0\\\@

 Total job time:  50056.06s(wall), 696284.77s(cpu) 
 Sat Mar 21 11:24:20 2020

        *************************************************************
        *                                                           *
        *  Thank you very much for using Q-Chem.  Have a nice day.  *
        *                                                           *
        *************************************************************


