
Running Job 1 of 1 qc-3-tshess.in
qchem qc-3-tshess.in_31979.0 /scratch/lmgong/1216682/qc-3-tshess.d/ 1
/home/leeping/opt/qchem/5.0.2-openmp/exe/qcprog.exe_s qc-3-tshess.in_31979.0 /scratch/lmgong/1216682/qc-3-tshess.d/
Check license passed

                  Welcome to Q-Chem
     A Quantum Leap Into The Future Of Chemistry


 Q-Chem 5.0, Q-Chem, Inc., Pleasanton, CA (2017)

 Yihan Shao,  Zhengting Gan,  E. Epifanovsky,  A. T. B. Gilbert,  M. Wormit,  
 J. Kussmann,  A. W. Lange,  A. Behn,  Jia Deng,  Xintian Feng,  D. Ghosh,  
 M. Goldey,  P. R. Horn,  L. D. Jacobson,  I. Kaliman,  T. Kus,  A. Landau,  
 Jie Liu,  E. I. Proynov,  R. M. Richard,  R. P. Steele,  E. J. Sundstrom,  
 H. L. Woodcock III,  P. M. Zimmerman,  D. Zuev,  B. Albrecht,  E. Alguire,  
 S. A. Baeppler,  D. Barton,  Z. Benda,  Y. A. Bernard,  E. J. Berquist,  
 K. B. Bravaya,  H. Burton,  D. Casanova,  Chun-Min Chang,  Yunqing Chen,  
 A. Chien,  K. D. Closser,  M. P. Coons,  S. Dasgupta,  A. L. Dempwolff,  
 M. Diedenhofen,  Hainam Do,  R. G. Edgar,  Po-Tung Fang,  S. Fatehi,  
 Qingguo Feng,  J. Fosso-Tande,  Qinghui Ge,  A. Ghysels,  G. Gidofalvi,  
 J. Gomes,  J. Gonthier,  A. Gunina,  M. W. D. Hanson-Heine,  
 P. H. P. Harbach,  A. W. Hauser,  J. E. Herr,  E. G. Hohenstein,  
 Z. C. Holden,  Kerwin Hui,  T.-C. Jagau,  Hyunjun Ji,  B. Kaduk,  
 K. Khistyaev,  Jaehoon Kim,  P. Klunzinger,  K. Koh,  D. Kosenkov,  
 L. Koulias,  T. Kowalczyk,  C. M. Krauter,  A. Kunitsa,  Ka Un Lao,  
 A. Laurent,  K. V. Lawler,  Joonho Lee,  D. Lefrancois,  S. Lehtola,  
 D. S. Levine,  Yi-Pei Li,  You-Sheng Lin,  Fenglai Liu,  E. Livshits,  
 A. Luenser,  P. Manohar,  E. Mansoor,  S. F. Manzer,  Shan-Ping Mao,  
 Yuezhi Mao,  N. Mardirossian,  A. V. Marenich,  T. Markovich,  
 L. A. Martinez-Martinez,  S. A. Maurer,  N. J. Mayhall,  S. C. McKenzie,  
 J.-M. Mewes,  A. F. Morrison,  J. W. Mullinax,  K. Nanda,  
 T. S. Nguyen-Beck,  R. Olivares-Amaya,  J. A. Parkhill,  T. M. Perrine,  
 F. Plasser,  S. Prager,  A. Prociuk,  E. Ramos,  D. R. Rehn,  F. Rob,  
 M. Schneider,  N. Sergueev,  S. M. Sharada,  S. Sharma,  D. W. Small,  
 T. Stauch,  T. Stein,  Yu-Chuan Su,  A. J. W. Thom,  A. Tkatchenko,  
 T. Tsuchimochi,  L. Vogt,  O. Vydrov,  M. A. Watson,  J. Wenzel,  
 M. de Wergifosse,  T. A. Wesolowski,  A. White,  J. Witte,  A. Yamada,  
 Jun Yang,  K. Yao,  S. Yeganeh,  S. R. Yost,  Zhi-Qiang You,  A. Zech,  
 Igor Ying Zhang,  Xing Zhang,  Yan Zhao,  Ying Zhu,  B. R. Brooks,  
 G. K. L. Chan,  C. J. Cramer,  M. S. Gordon,  W. J. Hehre,  A. Klamt,  
 M. W. Schmidt,  C. D. Sherrill,  D. G. Truhlar,  A. Aspuru-Guzik,  R. Baer,  
 A. T. Bell,  N. A. Besley,  Jeng-Da Chai,  R. A. DiStasio Jr.,  A. Dreuw,  
 B. D. Dunietz,  T. R. Furlani,  Chao-Ping Hsu,  Yousung Jung,  Jing Kong,  
 D. S. Lambrecht,  WanZhen Liang,  C. Ochsenfeld,  V. A. Rassolov,  
 L. V. Slipchenko,  J. E. Subotnik,  T. Van Voorhis,  J. M. Herbert,  
 A. I. Krylov,  P. M. W. Gill,  M. Head-Gordon

 Contributors to earlier versions of Q-Chem not listed above: 
 R. D. Adamson,  B. Austin,  J. Baker,  G. J. O. Beran,  K. Brandhorst,  
 S. T. Brown,  E. F. C. Byrd,  A. K. Chakraborty,  C.-L. Cheng,  
 Siu Hung Chien,  D. M. Chipman,  D. L. Crittenden,  H. Dachsel,  
 R. J. Doerksen,  A. D. Dutoi,  L. Fusti-Molnar,  W. A. Goddard III,  
 A. Golubeva-Zadorozhnaya,  S. R. Gwaltney,  G. Hawkins,  A. Heyden,  
 S. Hirata,  G. Kedziora,  F. J. Keil,  C. Kelley,  Jihan Kim,  R. A. King,  
 R. Z. Khaliullin,  P. P. Korambath,  W. Kurlancheek,  A. M. Lee,  M. S. Lee,  
 S. V. Levchenko,  Ching Yeh Lin,  D. Liotard,  R. C. Lochan,  I. Lotan,  
 P. E. Maslen,  N. Nair,  D. P. O'Neill,  D. Neuhauser,  E. Neuscamman,  
 C. M. Oana,  R. Olson,  B. Peters,  R. Peverati,  P. A. Pieniazek,  
 Y. M. Rhee,  J. Ritchie,  M. A. Rohrdanz,  E. Rosta,  N. J. Russ,  
 H. F. Schaefer III,  N. E. Schultz,  N. Shenvi,  A. C. Simmonett,  A. Sodt,  
 D. Stuck,  K. S. Thanthiriwatte,  V. Vanovschi,  Tao Wang,  A. Warshel,  
 C. F. Williams,  Q. Wu,  X. Xu,  W. Zhang

 Please cite Q-Chem as follows:
 Y. Shao et al., Mol. Phys. 113, 184-215 (2015)
 DOI: 10.1080/00268976.2014.952696

 Q-Chem 5.0.2 for Intel X86 EM64T Linux

 Parts of Q-Chem use Armadillo 5.200.1 (Boston Tea Smuggler).
 http://arma.sourceforge.net/

 Q-Chem begins on Sun May 20 22:20:45 2018  

Host: 
0

     Scratch files written to /scratch/lmgong/1216682/qc-3-tshess.d//
 Dec517 15110_ 26548  26544 5633   
Processing $rem in /home/leeping/opt/qchem/5.0.2-openmp/config/preferences.
 MEM_STATIC 2000
 MEM_TOTAL  8000
 SYMMETRY   OFF
 SYM_IGNORE TRUE 
Symmetry turned off for PCM/SM12/SMD calculation

Checking the input file for inconsistencies... 	...done.

--------------------------------------------------------------
User input:
--------------------------------------------------------------
$molecule
-2 1
C        0.0829277092    0.4378858722    0.4002889604
C       -0.2160301985    1.4326830295   -0.6439183386
O       -0.3268168024    1.0597691983   -1.8633955258
O       -0.4371148648    2.6454747155   -0.2887116945
C        0.8358139804   -0.7879423033    0.0182006545
H        0.4607569526    0.9002511509    1.3202374708
H        0.3846405156   -1.2559499255   -0.8656689306
H        0.8215186307   -1.5230020633    0.8362076104
O        2.2438411301   -0.5161534275   -0.2912169349
H       -1.3117308972   -0.0728361648    0.7359758654
O       -2.3537812459   -0.4796373497    1.0038616272
H       -2.8418211570   -0.4873224274    0.1725948844
H        2.6577962474   -1.3532203050   -0.5344556489
$end

$rem
jobtype               freq
method                wb97x-v
basis                 def2-tzvpd
symmetry              off
sym_ignore            true
incdft                false
incfock               0
!scf_algorithm        diis_gdm
scf_convergence       8
thresh                14
!purecart             112
max_scf_cycles        1000
geom_opt_max_cycles   500
geom_opt_dmax         100
geom_opt_tol_gradient 10
solvent_method        pcm
ideriv                1
rpath_tol_displacement 1000
rpath_max_cycles      100
rpath_direction       1
!scf_guess            read
scf_guess             read
$end

$pcm
theory              cosmo
method              iswig
Radii               bondi
vdwScale            1.20
hpoints             110
heavypoints         110
$end

$solvent
dielectric 78.400000
$end

--------------------------------------------------------------
 ----------------------------------------------------------------
             Standard Nuclear Orientation (Angstroms)
    I     Atom           X                Y                Z
 ----------------------------------------------------------------
    1      C       0.0829277092     0.4378858722     0.4002889604
    2      C      -0.2160301985     1.4326830295    -0.6439183386
    3      O      -0.3268168024     1.0597691983    -1.8633955258
    4      O      -0.4371148648     2.6454747155    -0.2887116945
    5      C       0.8358139804    -0.7879423033     0.0182006545
    6      H       0.4607569526     0.9002511509     1.3202374708
    7      H       0.3846405156    -1.2559499255    -0.8656689306
    8      H       0.8215186307    -1.5230020633     0.8362076104
    9      O       2.2438411301    -0.5161534275    -0.2912169349
   10      H      -1.3117308972    -0.0728361648     0.7359758654
   11      O      -2.3537812459    -0.4796373497     1.0038616272
   12      H      -2.8418211570    -0.4873224274     0.1725948844
   13      H       2.6577962474    -1.3532203050    -0.5344556489
 ----------------------------------------------------------------
 Nuclear Repulsion Energy =   298.0974620307 hartrees
 There are       29 alpha and       29 beta electrons
 Requested basis set is def2-TZVPD
 There are 125 shells and 325 basis functions

 Total QAlloc Memory Limit   8000 MB
 Mega-Array Size      1956 MB
 MEM_STATIC part      2000 MB
 Discretize the solute cavity surface with Lebedev spheres
	Using 110 Lebedev grid points for each H atom
	Using 110 Lebedev grid points for other atoms
	Atomic van der Waals radii will be scaled by 1.20
 Remove points where switching function is < 1.0e-08
 Keep 841 surface tesserae and discard 589 interior tesserae
 Molecular Surface Area = 155.672 Angst**2

                       Distance Matrix (Angstroms)
             C (  1)   C (  2)   O (  3)   O (  4)   C (  5)   H (  6)
   C (  2)  1.472877
   O (  3)  2.383044  1.280025
   O (  4)  2.370362  1.282932  2.237467
   C (  5)  1.488450  2.544790  2.882040  3.674629
   H (  6)  1.096741  2.144629  3.283479  2.537853  2.164709
   H (  7)  2.136062  2.763824  2.619959  4.028558  1.097185  3.071349
   H (  8)  2.140239  3.464586  3.908611  4.497310  1.099842  2.497317
   O (  9)  2.461284  3.158058  3.400523  4.145289  1.467020  2.789691
   H ( 10)  1.522693  2.317597  3.001597  3.033835  2.374558  2.104750
   O ( 11)  2.672770  3.307889  3.833995  3.887246  3.352625  3.150526
   H ( 12)  3.076038  3.353788  3.586641  3.976158  3.693130  3.761578
   H ( 13)  3.272882  4.004013  4.061590  5.062453  1.986099  3.653081
             H (  7)   H (  8)   O (  9)   H ( 10)   O ( 11)   H ( 12)
   H (  8)  1.777235
   O (  9)  2.081807  2.075532
   H ( 10)  2.615856  2.581430  3.727432
   O ( 11)  3.405402  3.346528  4.776682  1.150269
   H ( 12)  3.475462  3.864333  5.106850  1.682371  0.963974
   H ( 13)  2.299217  2.297707  0.964990  4.360106  5.314647  5.612084

 
 A cutoff of  1.0D-14 yielded   7447 shell pairs
 There are     50835 function pairs (     64681 Cartesian)
 
 -------------------------------------------------------
 OpenMP Integral Computing Module                       
 Release: version 1.0, May 2013, Q-Chem Inc. Pittsburgh 
 -------------------------------------------------------
 Integral Job Info:
 Integral job number is                      11
 Integral operator is                         1
 short-range coefficients              16700000
 long-range coefficients              100000000
 Omega coefficients                         300
 if combine SR and LR in K                    1
 Integral screening is                        0
 Integral computing path is                   2
 max size of driver memory is            800000
 size of driver memory is                776718
 size of scratch memory is              4473992
 max col of scratch BK array              10000
 max len of scratch array in speh3          662
 max len of scratch index in speh4           32
 max int batch size is                      520
 min int batch size is                       52
 fixed nKL is                                52
 max L of basis functions is                  3
 order of int derivative is                   0
 number of shells is                        125
 number of basis is                         367
 number of cartesian basis is               367
 number of contracted shell pairs          7447
 number of primitive shell pairs          15401
 maxK2 (contraction) of shell pair           36
 max number of K2 of shell pair               1
 max number of CS2 of shell pair           1218
 max number of PS2 of shell pair           1722
 mem total for path MDJ                  652836
 -------------------------------------------------------
 Smallest overlap matrix eigenvalue = 5.79E-06
 Guess MOs from SCF MO coefficient file
 Reading MOs from coefficient file
 Reading MOs from coefficient file
 Long-range K will be added via erf
 Coulomb attenuation parameter = 0.3 bohr**(-1)
 A restricted hybrid HF-DFT SCF calculation will be
 performed using Pulay DIIS extrapolation
 Polarizable Continuum solvation model will be applied
 Exchange:     0.1670 Hartree-Fock + 1.0000 wB97X-V + LR-HF
 Correlation:  1.0000 wB97X-V
 Using SG-2 standard quadrature grid
 Nonlocal Correlation:  VV10 with C = 0.0100 and b = 6.00
 Grid used for NLC:  SG-1 standard quadrature
 SCF converges when DIIS error is below 1.0E-08
Using Q-Chem read-in guess as SCF_GUESS READ specified.

 using 4 threads for integral computing
 -------------------------------------------------------
 OpenMP Integral computing Module                
 Release: version 1.0, May 2013, Q-Chem Inc. Pittsburgh 
 -------------------------------------------------------
 using 4 threads for integral computing
 -------------------------------------------------------
 OpenMP Integral computing Module                
 Release: version 1.0, May 2013, Q-Chem Inc. Pittsburgh 
 -------------------------------------------------------
 -------------------------------------------------------
 OpenMP BLAS3 based DFT computing Module                
 Release: version 1.0, May 2013, Q-Chem Inc. Pittsburgh 
 -------------------------------------------------------
 -------------------------------------------------------
 OpenMP BLAS3 based DFT computing Module                
 Release: version 1.0, May 2013, Q-Chem Inc. Pittsburgh 
 -------------------------------------------------------
 -------------------------------------------------------
 OpenMP BLAS3 based DFT computing Module                
 Release: version 1.0, May 2013, Q-Chem Inc. Pittsburgh 
 -------------------------------------------------------
 ---------------------------------------
  Cycle       Energy         DIIS Error
 ---------------------------------------
    1    -418.7462991834      6.21E-04
    2    -419.0883027928      6.97E-04
    3    -419.0978225792      3.06E-04
    4    -419.0994033130      2.25E-04
    5    -419.1002823605      1.71E-04
    6    -419.1007637354      1.33E-04
    7    -419.1011206232      9.61E-05
    8    -419.1012650080      7.64E-05
    9    -419.1013691710      5.83E-05
   10    -419.1014382889      4.20E-05
   11    -419.1014678215      3.26E-05
   12    -419.1014883298      2.40E-05
   13    -419.1014974288      1.90E-05
   14    -419.1015039769      1.44E-05
   15    -419.1015072099      1.14E-05
   16    -419.1015087481      9.63E-06
   17    -419.1015126450      8.46E-09 Convergence criterion met
 ---------------------------------------

************** Final PCM Free Energy Summary **************
 G_electrostatic  =      -0.35521347 hartree =    -222.89981674 kcal/mol
 G_cavitation     =       0.00000000 hartree =       0.00000000 kcal/mol
 G_dispersion     =       0.00000000 hartree =       0.00000000 kcal/mol
 G_repulsion      =       0.00000000 hartree =       0.00000000 kcal/mol
 --------------------------------------------------
 Non-electrostatic Free Energy =       0.00000000 hartree =       0.00000000 kcal/mol
 Total                         =      -0.35521347 hartree =    -222.89981674 kcal/mol
 --------------------------------------------------
 SCF Energy (H0 + V/2)                       =    -419.10151265 
 Solute Internal Energy (H0)                 =    -418.74629917 
 Total Free Energy (H0 + V/2 + non-elec)     =    -419.10151265 hartree
                                             = -262990.16849517 kcal/mol
***********************************************************

 SCF time:  CPU 1277.54 s  wall 332.76 s
 SCF   energy in the final basis set = -419.10151265
 Total energy in the final basis set = -419.10151265
 
 --------------------------------------------------------------
 
                    Orbital Energies (a.u.)
 --------------------------------------------------------------
 
 Alpha MOs
 -- Occupied --
-19.188 -19.143 -19.114 -19.114 -10.312 -10.280 -10.181  -1.117
 -1.108  -1.046  -1.012  -0.837  -0.709  -0.596  -0.579  -0.546
 -0.540  -0.502  -0.484  -0.474  -0.452  -0.438  -0.410  -0.367
 -0.363  -0.325  -0.320  -0.303  -0.252
 -- Virtual --
  0.061   0.080   0.084   0.089   0.111   0.116   0.123   0.127
  0.130   0.148   0.155   0.165   0.170   0.174   0.185   0.194
  0.196   0.200   0.225   0.238   0.250   0.260   0.263   0.278
  0.288   0.293   0.297   0.314   0.317   0.325   0.335   0.343
  0.345   0.350   0.362   0.370   0.377   0.383   0.393   0.396
  0.402   0.418   0.419   0.425   0.432   0.440   0.446   0.450
  0.465   0.475   0.480   0.486   0.496   0.498   0.503   0.514
  0.523   0.535   0.542   0.550   0.567   0.570   0.580   0.590
  0.595   0.603   0.613   0.619   0.630   0.637   0.644   0.652
  0.667   0.670   0.691   0.694   0.696   0.712   0.722   0.728
  0.749   0.758   0.760   0.767   0.780   0.791   0.805   0.810
  0.827   0.834   0.842   0.852   0.861   0.863   0.871   0.879
  0.916   0.924   0.944   0.957   0.984   0.994   1.016   1.029
  1.052   1.076   1.081   1.089   1.122   1.127   1.135   1.159
  1.187   1.196   1.226   1.230   1.246   1.275   1.296   1.314
  1.324   1.350   1.365   1.388   1.396   1.432   1.467   1.520
  1.537   1.574   1.604   1.640   1.709   1.745   1.795   1.802
  1.822   1.831   1.857   1.901   1.917   1.921   1.930   1.964
  1.972   1.995   1.997   2.020   2.047   2.059   2.091   2.101
  2.134   2.186   2.214   2.232   2.258   2.267   2.290   2.291
  2.321   2.346   2.374   2.409   2.436   2.454   2.464   2.481
  2.491   2.506   2.586   2.606   2.665   2.702   2.710   2.729
  2.759   2.770   2.813   2.838   2.882   2.913   2.940   2.975
  2.980   3.009   3.022   3.046   3.086   3.112   3.124   3.158
  3.179   3.226   3.230   3.273   3.288   3.312   3.370   3.375
  3.415   3.433   3.436   3.486   3.488   3.505   3.527   3.552
  3.588   3.616   3.627   3.650   3.656   3.683   3.697   3.723
  3.748   3.757   3.797   3.817   3.862   3.895   4.014   4.063
  4.104   4.128   4.186   4.223   4.288   4.355   4.415   4.450
  4.549   4.632   4.757   4.836   4.838   4.914   4.952   5.134
  5.152   5.289   5.347   5.381   5.388   5.393   5.406   5.417
  5.497   5.519   5.544   5.607   5.615   5.630   5.710   5.747
  5.786   5.857   5.918   5.992   6.057   6.175   6.202   6.292
  6.376   6.475   6.487   6.566   6.647   6.648   6.707   6.709
  6.717   6.735   6.769   6.801   6.876   6.883   6.962   6.996
  7.053   7.075   7.262   7.288   7.294   7.349   7.387   7.402
  7.417  22.724  22.951  23.652  44.089  44.303  44.328  44.446
 --------------------------------------------------------------
 
          Ground-State Mulliken Net Atomic Charges

     Atom                 Charge (a.u.)
  ----------------------------------------
      1 C                    -0.095534
      2 C                     0.131251
      3 O                    -0.768014
      4 O                    -0.794208
      5 C                    -0.214669
      6 H                     0.226508
      7 H                     0.134890
      8 H                     0.192504
      9 O                    -0.532226
     10 H                    -0.032684
     11 O                    -0.882364
     12 H                     0.313681
     13 H                     0.320863
  ----------------------------------------
  Sum of atomic charges =    -2.000000

 -----------------------------------------------------------------
                    Cartesian Multipole Moments
 -----------------------------------------------------------------
    Charge (ESU x 10^10)
                -9.6064
    Dipole Moment (Debye)
         X       5.5902      Y     -12.6832      Z       2.7614
       Tot      14.1329
    Quadrupole Moments (Debye-Ang)
        XX     -64.7952     XY      -1.0109     YY     -77.0444
        XZ       6.8451     YZ      11.9604     ZZ     -67.5589
    Octopole Moments (Debye-Ang^2)
       XXX      28.6868    XXY     -31.2121    XYY      30.0480
       YYY    -154.4180    XXZ     -17.8499    XYZ      -6.6338
       YYZ      20.7206    XZZ      21.4567    YZZ     -39.3221
       ZZZ      52.0818
    Hexadecapole Moments (Debye-Ang^3)
      XXXX    -625.2305   XXXY      10.2939   XXYY    -180.6449
      XYYY      71.5380   YYYY    -765.2027   XXXZ     102.0228
      XXYZ      47.0716   XYYZ       7.3151   YYYZ     111.4808
      XXZZ    -178.8844   XYZZ      16.4970   YYZZ    -164.4680
      XZZZ      50.9762   YZZZ     110.9666   ZZZZ    -358.5247
 -----------------------------------------------------------------
 Calculating analytic gradient of the SCF energy
 Gradient of SCF Energy
            1           2           3           4           5           6
    1   0.0209085   0.0064717   0.0091465   0.0080778  -0.0612435  -0.0640918
    2   0.0681359   0.0178181   0.0116893  -0.0584179  -0.0794418  -0.0463203
    3   0.1069887  -0.0591817   0.0591355  -0.0060439  -0.0107205  -0.0669118
            7           8           9          10          11          12
    1   0.0510665   0.0254492   0.0302284  -0.0015892  -0.0298012   0.0379593
    2   0.0281010   0.0480731  -0.0290596  -0.0009050   0.0054530  -0.0022393
    3   0.0502271  -0.0596462  -0.0161054  -0.0201459  -0.0535518   0.0601298
           13
    1  -0.0325822
    2   0.0371136
    3   0.0158262
 Max gradient component =       1.070E-01
 RMS gradient           =       4.383E-02
 Computing fast CPCM-ISWIG gradient
 Updating gradient with PCM contributions...
 -- total gradient after adding PCM contribution --
---------------------------------------------------
  Atom         X              Y              Z     
---------------------------------------------------
   1       0.000008      -0.000004       0.000003
   2       0.000015       0.000010       0.000016
   3      -0.000003       0.000022       0.000013
   4       0.000035       0.000010       0.000029
   5      -0.000012      -0.000012      -0.000017
   6       0.000028      -0.000019       0.000003
   7      -0.000028       0.000003      -0.000016
   8      -0.000014      -0.000020      -0.000023
   9      -0.000011      -0.000032      -0.000028
  10       0.000013       0.000014       0.000011
  11      -0.000002       0.000024       0.000023
  12      -0.000005       0.000039       0.000026
  13      -0.000026      -0.000035      -0.000042
---------------------------------------------------
 Number of fixed atoms: 0
 Gradient time:  CPU 255.34 s  wall 66.75 s
 ######################################################
 ######################################################
 # Starting finite difference calculation for IDERIV  #
 Finite diff step size:  1.88973e-03 a.u.
 ----------------------------------------------------------------
             Standard Nuclear Orientation (Angstroms)
    I     Atom           X                Y                Z
 ----------------------------------------------------------------
    1      C       0.0839277092     0.4378858722     0.4002889604
    2      C      -0.2160301985     1.4326830295    -0.6439183386
    3      O      -0.3268168024     1.0597691983    -1.8633955258
    4      O      -0.4371148648     2.6454747155    -0.2887116945
    5      C       0.8358139804    -0.7879423033     0.0182006545
    6      H       0.4607569526     0.9002511509     1.3202374708
    7      H       0.3846405156    -1.2559499255    -0.8656689306
    8      H       0.8215186307    -1.5230020633     0.8362076104
    9      O       2.2438411301    -0.5161534275    -0.2912169349
   10      H      -1.3117308972    -0.0728361648     0.7359758654
   11      O      -2.3537812459    -0.4796373497     1.0038616272
   12      H      -2.8418211570    -0.4873224274     0.1725948844
   13      H       2.6577962474    -1.3532203050    -0.5344556489
 ----------------------------------------------------------------
 Nuclear Repulsion Energy =   298.0986114224 hartrees
 There are       29 alpha and       29 beta electrons
 Discretize the solute cavity surface with Lebedev spheres
	Using 110 Lebedev grid points for each H atom
	Using 110 Lebedev grid points for other atoms
	Atomic van der Waals radii will be scaled by 1.20
 Remove points where switching function is < 1.0e-08
 Keep 841 surface tesserae and discard 589 interior tesserae
 Molecular Surface Area = 155.671 Angst**2

                       Distance Matrix (Angstroms)
             C (  1)   C (  2)   O (  3)   O (  4)   C (  5)   H (  6)
   C (  2)  1.473080
   O (  3)  2.383216  1.280025
   O (  4)  2.370581  1.282932  2.237467
   C (  5)  1.487945  2.544790  2.882040  3.674629
   H (  6)  1.096397  2.144629  3.283479  2.537853  2.164709
   H (  7)  2.135921  2.763824  2.619959  4.028558  1.097185  3.071349
   H (  8)  2.139894  3.464586  3.908611  4.497310  1.099842  2.497317
   O (  9)  2.460406  3.158058  3.400523  4.145289  1.467020  2.789691
   H ( 10)  1.523609  2.317597  3.001597  3.033835  2.374558  2.104750
   O ( 11)  2.673682  3.307889  3.833995  3.887246  3.352625  3.150526
   H ( 12)  3.076989  3.353788  3.586641  3.976158  3.693130  3.761578
   H ( 13)  3.272095  4.004013  4.061590  5.062453  1.986099  3.653081
             H (  7)   H (  8)   O (  9)   H ( 10)   O ( 11)   H ( 12)
   H (  8)  1.777235
   O (  9)  2.081807  2.075532
   H ( 10)  2.615856  2.581430  3.727432
   O ( 11)  3.405402  3.346528  4.776682  1.150269
   H ( 12)  3.475462  3.864333  5.106850  1.682371  0.963974
   H ( 13)  2.299217  2.297707  0.964990  4.360106  5.314647  5.612084

 
 Requested basis set is def2-TZVPD
 There are 125 shells and 325 basis functions
 A cutoff of  1.0D-14 yielded   7447 shell pairs
 There are     50835 function pairs (     64681 Cartesian)
 Smallest overlap matrix eigenvalue = 5.79E-06
 Guess MOs from SCF MO coefficient file
 Reading MOs from coefficient file
 Reading MOs from coefficient file
 Long-range K will be added via erf
 Coulomb attenuation parameter = 0.3 bohr**(-1)
 A restricted hybrid HF-DFT SCF calculation will be
 performed using Pulay DIIS extrapolation
 Polarizable Continuum solvation model will be applied
 Exchange:     0.1670 Hartree-Fock + 1.0000 wB97X-V + LR-HF
 Correlation:  1.0000 wB97X-V
 Using SG-2 standard quadrature grid
 Nonlocal Correlation:  VV10 with C = 0.0100 and b = 6.00
 Grid used for NLC:  SG-1 standard quadrature
 SCF converges when DIIS error is below 1.0E-08
Using Q-Chem read-in guess as SCF_GUESS READ specified.

 using 4 threads for integral computing
 -------------------------------------------------------
 OpenMP Integral computing Module                
 Release: version 1.0, May 2013, Q-Chem Inc. Pittsburgh 
 -------------------------------------------------------
 using 4 threads for integral computing
 -------------------------------------------------------
 OpenMP Integral computing Module                
 Release: version 1.0, May 2013, Q-Chem Inc. Pittsburgh 
 -------------------------------------------------------
 -------------------------------------------------------
 OpenMP BLAS3 based DFT computing Module                
 Release: version 1.0, May 2013, Q-Chem Inc. Pittsburgh 
 -------------------------------------------------------
 -------------------------------------------------------
 OpenMP BLAS3 based DFT computing Module                
 Release: version 1.0, May 2013, Q-Chem Inc. Pittsburgh 
 -------------------------------------------------------
 -------------------------------------------------------
 OpenMP BLAS3 based DFT computing Module                
 Release: version 1.0, May 2013, Q-Chem Inc. Pittsburgh 
 -------------------------------------------------------
 ---------------------------------------
  Cycle       Energy         DIIS Error
 ---------------------------------------
    1    -418.7466375488      6.21E-04
    2    -419.0882949963      6.97E-04
    3    -419.0978206720      3.06E-04
    4    -419.0994033164      2.24E-04
    5    -419.1002881985      1.70E-04
    6    -419.1007806904      1.31E-04
    7    -419.1011576707      9.14E-05
    8    -419.1013195779      6.74E-05
    9    -419.1014352271      4.27E-05
   10    -419.1015006471      1.66E-05
   11    -419.1015106246      6.09E-06
   12    -419.1015121008      1.23E-06
   13    -419.1015121565      3.55E-07
   14    -419.1015121615      4.09E-08
   15    -419.1015121616      2.58E-08
   16    -419.1015121616      8.87E-09 Convergence criterion met
 ---------------------------------------

************** Final PCM Free Energy Summary **************
 G_electrostatic  =      -0.35521668 hartree =    -222.90183183 kcal/mol
 G_cavitation     =       0.00000000 hartree =       0.00000000 kcal/mol
 G_dispersion     =       0.00000000 hartree =       0.00000000 kcal/mol
 G_repulsion      =       0.00000000 hartree =       0.00000000 kcal/mol
 --------------------------------------------------
 Non-electrostatic Free Energy =       0.00000000 hartree =       0.00000000 kcal/mol
 Total                         =      -0.35521668 hartree =    -222.90183183 kcal/mol
 --------------------------------------------------
 SCF Energy (H0 + V/2)                       =    -419.10151216 
 Solute Internal Energy (H0)                 =    -418.74629548 
 Total Free Energy (H0 + V/2 + non-elec)     =    -419.10151216 hartree
                                             = -262990.16819182 kcal/mol
***********************************************************

 SCF time:  CPU 1190.97 s  wall 310.72 s
 SCF   energy in the final basis set = -419.10151216
 Total energy in the final basis set = -419.10151216
 
 --------------------------------------------------------------
 
                    Orbital Energies (a.u.)
 --------------------------------------------------------------
 
 Alpha MOs
 -- Occupied --
-19.188 -19.143 -19.114 -19.114 -10.312 -10.280 -10.181  -1.117
 -1.108  -1.046  -1.012  -0.837  -0.709  -0.596  -0.579  -0.546
 -0.540  -0.502  -0.484  -0.474  -0.452  -0.438  -0.410  -0.367
 -0.363  -0.325  -0.320  -0.303  -0.252
 -- Virtual --
  0.061   0.080   0.084   0.089   0.111   0.116   0.123   0.127
  0.130   0.148   0.155   0.165   0.170   0.174   0.185   0.194
  0.196   0.200   0.225   0.238   0.250   0.260   0.263   0.278
  0.288   0.293   0.297   0.314   0.317   0.325   0.335   0.343
  0.345   0.350   0.362   0.370   0.377   0.383   0.393   0.396
  0.402   0.418   0.419   0.425   0.432   0.440   0.445   0.450
  0.465   0.475   0.480   0.486   0.496   0.498   0.503   0.514
  0.523   0.535   0.542   0.550   0.567   0.570   0.580   0.590
  0.595   0.603   0.613   0.619   0.630   0.637   0.644   0.652
  0.667   0.670   0.691   0.694   0.696   0.712   0.722   0.728
  0.749   0.758   0.760   0.767   0.780   0.790   0.805   0.810
  0.827   0.834   0.842   0.852   0.861   0.863   0.871   0.879
  0.916   0.924   0.944   0.957   0.984   0.994   1.016   1.029
  1.052   1.076   1.081   1.089   1.122   1.127   1.135   1.159
  1.187   1.196   1.226   1.230   1.246   1.275   1.296   1.314
  1.324   1.350   1.365   1.388   1.396   1.432   1.467   1.520
  1.537   1.573   1.604   1.640   1.710   1.745   1.795   1.802
  1.822   1.831   1.857   1.901   1.917   1.921   1.930   1.964
  1.972   1.995   1.997   2.020   2.046   2.059   2.091   2.101
  2.134   2.186   2.214   2.232   2.258   2.267   2.290   2.291
  2.321   2.346   2.374   2.409   2.436   2.454   2.464   2.481
  2.491   2.506   2.586   2.606   2.665   2.702   2.710   2.729
  2.759   2.770   2.813   2.838   2.882   2.914   2.940   2.975
  2.980   3.009   3.022   3.046   3.086   3.112   3.124   3.158
  3.179   3.226   3.230   3.273   3.288   3.312   3.370   3.375
  3.415   3.433   3.436   3.486   3.488   3.505   3.527   3.552
  3.588   3.615   3.627   3.650   3.656   3.683   3.697   3.723
  3.748   3.757   3.797   3.818   3.862   3.895   4.014   4.063
  4.104   4.128   4.185   4.223   4.288   4.355   4.416   4.450
  4.549   4.632   4.757   4.836   4.839   4.915   4.952   5.134
  5.153   5.289   5.347   5.381   5.388   5.393   5.406   5.417
  5.496   5.519   5.544   5.608   5.615   5.630   5.710   5.747
  5.786   5.857   5.918   5.992   6.057   6.174   6.202   6.292
  6.376   6.475   6.487   6.566   6.647   6.648   6.707   6.709
  6.717   6.735   6.769   6.801   6.876   6.883   6.962   6.996
  7.053   7.075   7.263   7.288   7.294   7.349   7.388   7.402
  7.417  22.724  22.952  23.652  44.089  44.303  44.328  44.446
 --------------------------------------------------------------
 
          Ground-State Mulliken Net Atomic Charges

     Atom                 Charge (a.u.)
  ----------------------------------------
      1 C                    -0.097826
      2 C                     0.132007
      3 O                    -0.768038
      4 O                    -0.794268
      5 C                    -0.214073
      6 H                     0.227127
      7 H                     0.134871
      8 H                     0.192398
      9 O                    -0.532230
     10 H                    -0.032303
     11 O                    -0.882193
     12 H                     0.313718
     13 H                     0.320811
  ----------------------------------------
  Sum of atomic charges =    -2.000000

 -----------------------------------------------------------------
                    Cartesian Multipole Moments
 -----------------------------------------------------------------
    Charge (ESU x 10^10)
                -9.6064
    Dipole Moment (Debye)
         X       5.5837      Y     -12.6851      Z       2.7640
       Tot      14.1325
    Quadrupole Moments (Debye-Ang)
        XX     -64.7903     XY      -1.0067     YY     -77.0459
        XZ       6.8401     YZ      11.9606     ZZ     -67.5570
    Octopole Moments (Debye-Ang^2)
       XXX      28.6158    XXY     -31.2189    XYY      30.0371
       YYY    -154.4248    XXZ     -17.8342    XYZ      -6.6337
       YYZ      20.7236    XZZ      21.4446    YZZ     -39.3233
       ZZZ      52.0929
    Hexadecapole Moments (Debye-Ang^3)
      XXXX    -625.1601   XXXY      10.3305   XXYY    -180.6497
      XYYY      71.5523   YYYY    -765.2151   XXXZ     101.9789
      XXYZ      47.0628   XYYZ       7.3057   YYYZ     111.4805
      XXZZ    -178.8717   XYZZ      16.5029   YYZZ    -164.4653
      XZZZ      50.9527   YZZZ     110.9695   ZZZZ    -358.5167
 -----------------------------------------------------------------
 Calculating analytic gradient of the SCF energy
 Gradient of SCF Energy
            1           2           3           4           5           6
    1   0.0211879   0.0062596   0.0091810   0.0081048  -0.0611855  -0.0641508
    2   0.0679496   0.0180050   0.0116977  -0.0584183  -0.0792618  -0.0464455
    3   0.1073363  -0.0593557   0.0591326  -0.0060564  -0.0107368  -0.0671709
            7           8           9          10          11          12
    1   0.0510863   0.0254288   0.0301974  -0.0016269  -0.0298377   0.0379528
    2   0.0280497   0.0480760  -0.0290423  -0.0009095   0.0054350  -0.0022421
    3   0.0501956  -0.0596219  -0.0161088  -0.0200399  -0.0535411   0.0601365
           13
    1  -0.0325978
    2   0.0371064
    3   0.0158306
 Max gradient component =       1.073E-01
 RMS gradient           =       4.386E-02
 Computing fast CPCM-ISWIG gradient
 Updating gradient with PCM contributions...
 -- total gradient after adding PCM contribution --
---------------------------------------------------
  Atom         X              Y              Z     
---------------------------------------------------
   1       0.000504      -0.000210       0.000217
   2      -0.000149       0.000109      -0.000076
   3       0.000035       0.000033       0.000015
   4       0.000072       0.000019       0.000012
   5      -0.000161       0.000079      -0.000013
   6      -0.000083      -0.000072      -0.000151
   7      -0.000016      -0.000013      -0.000018
   8      -0.000019      -0.000009      -0.000023
   9      -0.000080       0.000032       0.000002
  10       0.000097       0.000062      -0.000015
  11      -0.000148      -0.000037       0.000059
  12      -0.000010       0.000037       0.000028
  13      -0.000043      -0.000029      -0.000036
---------------------------------------------------
 Number of fixed atoms: 0
 Gradient time:  CPU 256.03 s  wall 66.97 s
 ----------------------------------------------------------------
             Standard Nuclear Orientation (Angstroms)
    I     Atom           X                Y                Z
 ----------------------------------------------------------------
    1      C       0.0819277092     0.4378858722     0.4002889604
    2      C      -0.2160301985     1.4326830295    -0.6439183386
    3      O      -0.3268168024     1.0597691983    -1.8633955258
    4      O      -0.4371148648     2.6454747155    -0.2887116945
    5      C       0.8358139804    -0.7879423033     0.0182006545
    6      H       0.4607569526     0.9002511509     1.3202374708
    7      H       0.3846405156    -1.2559499255    -0.8656689306
    8      H       0.8215186307    -1.5230020633     0.8362076104
    9      O       2.2438411301    -0.5161534275    -0.2912169349
   10      H      -1.3117308972    -0.0728361648     0.7359758654
   11      O      -2.3537812459    -0.4796373497     1.0038616272
   12      H      -2.8418211570    -0.4873224274     0.1725948844
   13      H       2.6577962474    -1.3532203050    -0.5344556489
 ----------------------------------------------------------------
 Nuclear Repulsion Energy =   298.0963065155 hartrees
 There are       29 alpha and       29 beta electrons
 Discretize the solute cavity surface with Lebedev spheres
	Using 110 Lebedev grid points for each H atom
	Using 110 Lebedev grid points for other atoms
	Atomic van der Waals radii will be scaled by 1.20
 Remove points where switching function is < 1.0e-08
 Keep 841 surface tesserae and discard 589 interior tesserae
 Molecular Surface Area = 155.672 Angst**2

                       Distance Matrix (Angstroms)
             C (  1)   C (  2)   O (  3)   O (  4)   C (  5)   H (  6)
   C (  2)  1.472674
   O (  3)  2.382872  1.280025
   O (  4)  2.370143  1.282932  2.237467
   C (  5)  1.488956  2.544790  2.882040  3.674629
   H (  6)  1.097086  2.144629  3.283479  2.537853  2.164709
   H (  7)  2.136203  2.763824  2.619959  4.028558  1.097185  3.071349
   H (  8)  2.140584  3.464586  3.908611  4.497310  1.099842  2.497317
   O (  9)  2.462162  3.158058  3.400523  4.145289  1.467020  2.789691
   H ( 10)  1.521778  2.317597  3.001597  3.033835  2.374558  2.104750
   O ( 11)  2.671858  3.307889  3.833995  3.887246  3.352625  3.150526
   H ( 12)  3.075087  3.353788  3.586641  3.976158  3.693130  3.761578
   H ( 13)  3.273669  4.004013  4.061590  5.062453  1.986099  3.653081
             H (  7)   H (  8)   O (  9)   H ( 10)   O ( 11)   H ( 12)
   H (  8)  1.777235
   O (  9)  2.081807  2.075532
   H ( 10)  2.615856  2.581430  3.727432
   O ( 11)  3.405402  3.346528  4.776682  1.150269
   H ( 12)  3.475462  3.864333  5.106850  1.682371  0.963974
   H ( 13)  2.299217  2.297707  0.964990  4.360106  5.314647  5.612084

 
 Requested basis set is def2-TZVPD
 There are 125 shells and 325 basis functions
 A cutoff of  1.0D-14 yielded   7447 shell pairs
 There are     50835 function pairs (     64681 Cartesian)
 Smallest overlap matrix eigenvalue = 5.79E-06
 Guess MOs from SCF MO coefficient file
 Reading MOs from coefficient file
 Reading MOs from coefficient file
 Long-range K will be added via erf
 Coulomb attenuation parameter = 0.3 bohr**(-1)
 A restricted hybrid HF-DFT SCF calculation will be
 performed using Pulay DIIS extrapolation
 Polarizable Continuum solvation model will be applied
 Exchange:     0.1670 Hartree-Fock + 1.0000 wB97X-V + LR-HF
 Correlation:  1.0000 wB97X-V
 Using SG-2 standard quadrature grid
 Nonlocal Correlation:  VV10 with C = 0.0100 and b = 6.00
 Grid used for NLC:  SG-1 standard quadrature
 SCF converges when DIIS error is below 1.0E-08
Using Q-Chem read-in guess as SCF_GUESS READ specified.

 using 4 threads for integral computing
 -------------------------------------------------------
 OpenMP Integral computing Module                
 Release: version 1.0, May 2013, Q-Chem Inc. Pittsburgh 
 -------------------------------------------------------
 using 4 threads for integral computing
 -------------------------------------------------------
 OpenMP Integral computing Module                
 Release: version 1.0, May 2013, Q-Chem Inc. Pittsburgh 
 -------------------------------------------------------
 -------------------------------------------------------
 OpenMP BLAS3 based DFT computing Module                
 Release: version 1.0, May 2013, Q-Chem Inc. Pittsburgh 
 -------------------------------------------------------
 -------------------------------------------------------
 OpenMP BLAS3 based DFT computing Module                
 Release: version 1.0, May 2013, Q-Chem Inc. Pittsburgh 
 -------------------------------------------------------
 -------------------------------------------------------
 OpenMP BLAS3 based DFT computing Module                
 Release: version 1.0, May 2013, Q-Chem Inc. Pittsburgh 
 -------------------------------------------------------
 ---------------------------------------
  Cycle       Energy         DIIS Error
 ---------------------------------------
    1    -418.7456236575      6.22E-04
    2    -419.0883126515      6.97E-04
    3    -419.0978341870      3.06E-04
    4    -419.0994168709      2.24E-04
    5    -419.1003181228      1.68E-04
    6    -419.1008424111      1.25E-04
    7    -419.1012553377      7.77E-05
    8    -419.1014151664      4.78E-05
    9    -419.1014926654      2.15E-05
   10    -419.1015113149      4.62E-06
   11    -419.1015121287      1.24E-06
   12    -419.1015121892      2.49E-07
   13    -419.1015121914      5.16E-08
   14    -419.1015121915      8.21E-09 Convergence criterion met
 ---------------------------------------

************** Final PCM Free Energy Summary **************
 G_electrostatic  =      -0.35521018 hartree =    -222.89775496 kcal/mol
 G_cavitation     =       0.00000000 hartree =       0.00000000 kcal/mol
 G_dispersion     =       0.00000000 hartree =       0.00000000 kcal/mol
 G_repulsion      =       0.00000000 hartree =       0.00000000 kcal/mol
 --------------------------------------------------
 Non-electrostatic Free Energy =       0.00000000 hartree =       0.00000000 kcal/mol
 Total                         =      -0.35521018 hartree =    -222.89775496 kcal/mol
 --------------------------------------------------
 SCF Energy (H0 + V/2)                       =    -419.10151219 
 Solute Internal Energy (H0)                 =    -418.74630201 
 Total Free Energy (H0 + V/2 + non-elec)     =    -419.10151219 hartree
                                             = -262990.16821061 kcal/mol
***********************************************************

 SCF time:  CPU 1042.37 s  wall 272.04 s
 SCF   energy in the final basis set = -419.10151219
 Total energy in the final basis set = -419.10151219
 
 --------------------------------------------------------------
 
                    Orbital Energies (a.u.)
 --------------------------------------------------------------
 
 Alpha MOs
 -- Occupied --
-19.188 -19.142 -19.114 -19.114 -10.312 -10.280 -10.181  -1.117
 -1.108  -1.046  -1.012  -0.837  -0.709  -0.596  -0.579  -0.546
 -0.540  -0.502  -0.484  -0.474  -0.452  -0.438  -0.410  -0.367
 -0.363  -0.325  -0.320  -0.304  -0.252
 -- Virtual --
  0.061   0.080   0.084   0.089   0.111   0.116   0.123   0.127
  0.130   0.148   0.155   0.165   0.170   0.174   0.185   0.194
  0.196   0.200   0.225   0.238   0.250   0.260   0.263   0.278
  0.288   0.293   0.297   0.314   0.317   0.325   0.335   0.343
  0.345   0.350   0.362   0.370   0.377   0.383   0.393   0.396
  0.402   0.418   0.419   0.425   0.432   0.440   0.446   0.450
  0.465   0.475   0.480   0.486   0.496   0.498   0.503   0.514
  0.523   0.535   0.542   0.550   0.567   0.570   0.580   0.590
  0.595   0.603   0.613   0.619   0.630   0.637   0.644   0.652
  0.667   0.670   0.691   0.694   0.696   0.712   0.722   0.728
  0.749   0.758   0.760   0.767   0.780   0.791   0.805   0.810
  0.827   0.834   0.842   0.852   0.861   0.863   0.871   0.878
  0.916   0.924   0.944   0.957   0.984   0.994   1.016   1.029
  1.052   1.076   1.081   1.088   1.122   1.127   1.135   1.159
  1.187   1.196   1.226   1.230   1.246   1.275   1.296   1.314
  1.324   1.350   1.365   1.388   1.396   1.432   1.467   1.520
  1.537   1.574   1.604   1.640   1.709   1.745   1.795   1.802
  1.822   1.831   1.857   1.901   1.917   1.921   1.930   1.964
  1.972   1.995   1.997   2.020   2.047   2.059   2.091   2.101
  2.134   2.186   2.215   2.232   2.258   2.267   2.289   2.291
  2.321   2.346   2.374   2.409   2.435   2.454   2.464   2.481
  2.491   2.507   2.586   2.606   2.665   2.702   2.710   2.729
  2.759   2.770   2.813   2.838   2.882   2.912   2.940   2.975
  2.980   3.009   3.022   3.046   3.086   3.112   3.124   3.158
  3.179   3.226   3.230   3.273   3.288   3.312   3.370   3.375
  3.415   3.433   3.436   3.487   3.488   3.505   3.527   3.552
  3.588   3.616   3.627   3.650   3.656   3.683   3.696   3.723
  3.748   3.757   3.797   3.817   3.862   3.895   4.014   4.064
  4.104   4.128   4.186   4.222   4.288   4.354   4.415   4.450
  4.549   4.631   4.756   4.835   4.838   4.914   4.952   5.134
  5.152   5.289   5.347   5.381   5.388   5.393   5.406   5.417
  5.497   5.519   5.544   5.607   5.615   5.631   5.710   5.747
  5.785   5.857   5.918   5.992   6.057   6.176   6.203   6.292
  6.376   6.475   6.487   6.566   6.647   6.648   6.707   6.709
  6.717   6.735   6.769   6.801   6.875   6.883   6.962   6.996
  7.053   7.075   7.262   7.288   7.294   7.349   7.387   7.402
  7.417  22.723  22.950  23.653  44.089  44.303  44.328  44.446
 --------------------------------------------------------------
 
          Ground-State Mulliken Net Atomic Charges

     Atom                 Charge (a.u.)
  ----------------------------------------
      1 C                    -0.093245
      2 C                     0.130499
      3 O                    -0.767989
      4 O                    -0.794146
      5 C                    -0.215266
      6 H                     0.225890
      7 H                     0.134909
      8 H                     0.192612
      9 O                    -0.532221
     10 H                    -0.033067
     11 O                    -0.882535
     12 H                     0.313645
     13 H                     0.320915
  ----------------------------------------
  Sum of atomic charges =    -2.000000

 -----------------------------------------------------------------
                    Cartesian Multipole Moments
 -----------------------------------------------------------------
    Charge (ESU x 10^10)
                -9.6064
    Dipole Moment (Debye)
         X       5.5968      Y     -12.6813      Z       2.7588
       Tot      14.1333
    Quadrupole Moments (Debye-Ang)
        XX     -64.8000     XY      -1.0151     YY     -77.0429
        XZ       6.8500     YZ      11.9603     ZZ     -67.5607
    Octopole Moments (Debye-Ang^2)
       XXX      28.7581    XXY     -31.2053    XYY      30.0590
       YYY    -154.4111    XXZ     -17.8657    XYZ      -6.6338
       YYZ      20.7176    XZZ      21.4689    YZZ     -39.3208
       ZZZ      52.0705
    Hexadecapole Moments (Debye-Ang^3)
      XXXX    -625.3017   XXXY      10.2572   XXYY    -180.6401
      XYYY      71.5237   YYYY    -765.1903   XXXZ     102.0670
      XXYZ      47.0805   XYYZ       7.3246   YYYZ     111.4812
      XXZZ    -178.8972   XYZZ      16.4910   YYZZ    -164.4707
      XZZZ      51.0000   YZZZ     110.9637   ZZZZ    -358.5327
 -----------------------------------------------------------------
 Calculating analytic gradient of the SCF energy
 Gradient of SCF Energy
            1           2           3           4           5           6
    1   0.0206282   0.0066842   0.0091119   0.0080507  -0.0613019  -0.0640316
    2   0.0683189   0.0176328   0.0116807  -0.0584176  -0.0796205  -0.0461948
    3   0.1066416  -0.0590084   0.0591384  -0.0060314  -0.0107038  -0.0666527
            7           8           9          10          11          12
    1   0.0510466   0.0254696   0.0302593  -0.0015517  -0.0297646   0.0379658
    2   0.0281522   0.0480703  -0.0290768  -0.0009004   0.0054709  -0.0022366
    3   0.0502586  -0.0596705  -0.0161020  -0.0202521  -0.0535625   0.0601230
           13
    1  -0.0325666
    2   0.0371208
    3   0.0158218
 Max gradient component =       1.066E-01
 RMS gradient           =       4.380E-02
 Computing fast CPCM-ISWIG gradient
 Updating gradient with PCM contributions...
 -- total gradient after adding PCM contribution --
---------------------------------------------------
  Atom         X              Y              Z     
---------------------------------------------------
   1      -0.000488       0.000200      -0.000211
   2       0.000178      -0.000090       0.000109
   3      -0.000040       0.000012       0.000010
   4      -0.000002       0.000001       0.000046
   5       0.000137      -0.000103      -0.000020
   6       0.000140       0.000033       0.000157
   7      -0.000040       0.000019      -0.000014
   8      -0.000008      -0.000032      -0.000024
   9       0.000059      -0.000095      -0.000057
  10      -0.000070      -0.000033       0.000038
  11       0.000145       0.000086      -0.000012
  12      -0.000001       0.000042       0.000025
  13      -0.000009      -0.000040      -0.000047
---------------------------------------------------
 Number of fixed atoms: 0
 Gradient time:  CPU 255.64 s  wall 66.86 s
 ----------------------------------------------------------------
             Standard Nuclear Orientation (Angstroms)
    I     Atom           X                Y                Z
 ----------------------------------------------------------------
    1      C       0.0829277092     0.4388858722     0.4002889604
    2      C      -0.2160301985     1.4326830295    -0.6439183386
    3      O      -0.3268168024     1.0597691983    -1.8633955258
    4      O      -0.4371148648     2.6454747155    -0.2887116945
    5      C       0.8358139804    -0.7879423033     0.0182006545
    6      H       0.4607569526     0.9002511509     1.3202374708
    7      H       0.3846405156    -1.2559499255    -0.8656689306
    8      H       0.8215186307    -1.5230020633     0.8362076104
    9      O       2.2438411301    -0.5161534275    -0.2912169349
   10      H      -1.3117308972    -0.0728361648     0.7359758654
   11      O      -2.3537812459    -0.4796373497     1.0038616272
   12      H      -2.8418211570    -0.4873224274     0.1725948844
   13      H       2.6577962474    -1.3532203050    -0.5344556489
 ----------------------------------------------------------------
 Nuclear Repulsion Energy =   298.0980502587 hartrees
 There are       29 alpha and       29 beta electrons
 Discretize the solute cavity surface with Lebedev spheres
	Using 110 Lebedev grid points for each H atom
	Using 110 Lebedev grid points for other atoms
	Atomic van der Waals radii will be scaled by 1.20
 Remove points where switching function is < 1.0e-08
 Keep 841 surface tesserae and discard 589 interior tesserae
 Molecular Surface Area = 155.678 Angst**2

                       Distance Matrix (Angstroms)
             C (  1)   C (  2)   O (  3)   O (  4)   C (  5)   H (  6)
   C (  2)  1.472202
   O (  3)  2.382783  1.280025
   O (  4)  2.369430  1.282932  2.237467
   C (  5)  1.489274  2.544790  2.882040  3.674629
   H (  6)  1.096320  2.144629  3.283479  2.537853  2.164709
   H (  7)  2.136855  2.763824  2.619959  4.028558  1.097185  3.071349
   H (  8)  2.141155  3.464586  3.908611  4.497310  1.099842  2.497317
   O (  9)  2.461672  3.158058  3.400523  4.145289  1.467020  2.789691
   H ( 10)  1.523029  2.317597  3.001597  3.033835  2.374558  2.104750
   O ( 11)  2.673113  3.307889  3.833995  3.887246  3.352625  3.150526
   H ( 12)  3.076339  3.353788  3.586641  3.976158  3.693130  3.761578
   H ( 13)  3.273429  4.004013  4.061590  5.062453  1.986099  3.653081
             H (  7)   H (  8)   O (  9)   H ( 10)   O ( 11)   H ( 12)
   H (  8)  1.777235
   O (  9)  2.081807  2.075532
   H ( 10)  2.615856  2.581430  3.727432
   O ( 11)  3.405402  3.346528  4.776682  1.150269
   H ( 12)  3.475462  3.864333  5.106850  1.682371  0.963974
   H ( 13)  2.299217  2.297707  0.964990  4.360106  5.314647  5.612084

 
 Requested basis set is def2-TZVPD
 There are 125 shells and 325 basis functions
 A cutoff of  1.0D-14 yielded   7447 shell pairs
 There are     50835 function pairs (     64681 Cartesian)
 Smallest overlap matrix eigenvalue = 5.78E-06
 Guess MOs from SCF MO coefficient file
 Reading MOs from coefficient file
 Reading MOs from coefficient file
 Long-range K will be added via erf
 Coulomb attenuation parameter = 0.3 bohr**(-1)
 A restricted hybrid HF-DFT SCF calculation will be
 performed using Pulay DIIS extrapolation
 Polarizable Continuum solvation model will be applied
 Exchange:     0.1670 Hartree-Fock + 1.0000 wB97X-V + LR-HF
 Correlation:  1.0000 wB97X-V
 Using SG-2 standard quadrature grid
 Nonlocal Correlation:  VV10 with C = 0.0100 and b = 6.00
 Grid used for NLC:  SG-1 standard quadrature
 SCF converges when DIIS error is below 1.0E-08
Using Q-Chem read-in guess as SCF_GUESS READ specified.

 using 4 threads for integral computing
 -------------------------------------------------------
 OpenMP Integral computing Module                
 Release: version 1.0, May 2013, Q-Chem Inc. Pittsburgh 
 -------------------------------------------------------
 using 4 threads for integral computing
 -------------------------------------------------------
 OpenMP Integral computing Module                
 Release: version 1.0, May 2013, Q-Chem Inc. Pittsburgh 
 -------------------------------------------------------
 -------------------------------------------------------
 OpenMP BLAS3 based DFT computing Module                
 Release: version 1.0, May 2013, Q-Chem Inc. Pittsburgh 
 -------------------------------------------------------
 -------------------------------------------------------
 OpenMP BLAS3 based DFT computing Module                
 Release: version 1.0, May 2013, Q-Chem Inc. Pittsburgh 
 -------------------------------------------------------
 -------------------------------------------------------
 OpenMP BLAS3 based DFT computing Module                
 Release: version 1.0, May 2013, Q-Chem Inc. Pittsburgh 
 -------------------------------------------------------
 ---------------------------------------
  Cycle       Energy         DIIS Error
 ---------------------------------------
    1    -418.7465600660      6.21E-04
    2    -419.0882897387      6.97E-04
    3    -419.0978200566      3.06E-04
    4    -419.0994040643      2.24E-04
    5    -419.1002944904      1.70E-04
    6    -419.1007965305      1.30E-04
    7    -419.1011899978      8.70E-05
    8    -419.1013595631      5.99E-05
    9    -419.1014669922      3.26E-05
   10    -419.1015084817      8.90E-06
   11    -419.1015115158      2.49E-06
   12    -419.1015117643      3.68E-07
   13    -419.1015117692      7.32E-08
   14    -419.1015117694      1.16E-08
   15    -419.1015117694      5.66E-09 Convergence criterion met
 ---------------------------------------

************** Final PCM Free Energy Summary **************
 G_electrostatic  =      -0.35524484 hartree =    -222.91950016 kcal/mol
 G_cavitation     =       0.00000000 hartree =       0.00000000 kcal/mol
 G_dispersion     =       0.00000000 hartree =       0.00000000 kcal/mol
 G_repulsion      =       0.00000000 hartree =       0.00000000 kcal/mol
 --------------------------------------------------
 Non-electrostatic Free Energy =       0.00000000 hartree =       0.00000000 kcal/mol
 Total                         =      -0.35524484 hartree =    -222.91950016 kcal/mol
 --------------------------------------------------
 SCF Energy (H0 + V/2)                       =    -419.10151177 
 Solute Internal Energy (H0)                 =    -418.74626693 
 Total Free Energy (H0 + V/2 + non-elec)     =    -419.10151177 hartree
                                             = -262990.16794572 kcal/mol
***********************************************************

 SCF time:  CPU 1117.53 s  wall 291.73 s
 SCF   energy in the final basis set = -419.10151177
 Total energy in the final basis set = -419.10151177
 
 --------------------------------------------------------------
 
                    Orbital Energies (a.u.)
 --------------------------------------------------------------
 
 Alpha MOs
 -- Occupied --
-19.188 -19.143 -19.114 -19.114 -10.312 -10.280 -10.181  -1.117
 -1.108  -1.046  -1.012  -0.837  -0.709  -0.596  -0.579  -0.546
 -0.540  -0.502  -0.484  -0.474  -0.452  -0.438  -0.410  -0.367
 -0.363  -0.325  -0.320  -0.303  -0.252
 -- Virtual --
  0.061   0.080   0.084   0.089   0.111   0.116   0.123   0.127
  0.130   0.148   0.155   0.165   0.170   0.174   0.185   0.194
  0.196   0.200   0.225   0.238   0.250   0.260   0.263   0.278
  0.288   0.293   0.297   0.314   0.317   0.325   0.335   0.343
  0.345   0.350   0.362   0.370   0.377   0.383   0.393   0.396
  0.402   0.418   0.419   0.425   0.432   0.440   0.445   0.450
  0.465   0.475   0.480   0.486   0.496   0.498   0.503   0.514
  0.523   0.535   0.542   0.550   0.567   0.570   0.580   0.590
  0.595   0.603   0.613   0.619   0.630   0.637   0.644   0.652
  0.667   0.670   0.691   0.694   0.696   0.712   0.722   0.728
  0.749   0.758   0.760   0.767   0.780   0.791   0.805   0.810
  0.827   0.834   0.842   0.852   0.861   0.863   0.871   0.879
  0.916   0.924   0.944   0.957   0.984   0.994   1.016   1.029
  1.052   1.076   1.081   1.088   1.122   1.127   1.135   1.159
  1.187   1.196   1.226   1.230   1.246   1.275   1.296   1.314
  1.324   1.350   1.365   1.388   1.396   1.432   1.467   1.520
  1.537   1.573   1.604   1.640   1.710   1.745   1.795   1.802
  1.822   1.831   1.857   1.901   1.917   1.921   1.930   1.964
  1.972   1.995   1.997   2.020   2.047   2.059   2.091   2.101
  2.134   2.186   2.215   2.232   2.258   2.267   2.289   2.291
  2.321   2.346   2.374   2.409   2.435   2.454   2.464   2.481
  2.491   2.507   2.586   2.606   2.665   2.702   2.710   2.729
  2.759   2.770   2.813   2.838   2.882   2.913   2.940   2.975
  2.980   3.009   3.022   3.046   3.086   3.112   3.124   3.158
  3.179   3.226   3.230   3.272   3.288   3.312   3.370   3.375
  3.415   3.433   3.436   3.486   3.488   3.505   3.527   3.552
  3.588   3.616   3.627   3.650   3.656   3.683   3.696   3.723
  3.748   3.757   3.797   3.817   3.862   3.895   4.014   4.063
  4.104   4.128   4.186   4.223   4.288   4.354   4.416   4.450
  4.549   4.632   4.757   4.836   4.838   4.914   4.952   5.134
  5.152   5.289   5.347   5.381   5.388   5.393   5.406   5.417
  5.497   5.519   5.544   5.607   5.615   5.630   5.710   5.747
  5.786   5.857   5.918   5.992   6.057   6.175   6.203   6.292
  6.377   6.475   6.487   6.566   6.647   6.648   6.707   6.709
  6.717   6.735   6.769   6.801   6.876   6.883   6.963   6.996
  7.053   7.075   7.263   7.288   7.294   7.349   7.388   7.402
  7.417  22.723  22.951  23.653  44.089  44.303  44.329  44.446
 --------------------------------------------------------------
 
          Ground-State Mulliken Net Atomic Charges

     Atom                 Charge (a.u.)
  ----------------------------------------
      1 C                    -0.095960
      2 C                     0.131048
      3 O                    -0.768154
      4 O                    -0.794327
      5 C                    -0.214802
      6 H                     0.227104
      7 H                     0.135006
      8 H                     0.192658
      9 O                    -0.532220
     10 H                    -0.032614
     11 O                    -0.882281
     12 H                     0.313707
     13 H                     0.320836
  ----------------------------------------
  Sum of atomic charges =    -2.000000

 -----------------------------------------------------------------
                    Cartesian Multipole Moments
 -----------------------------------------------------------------
    Charge (ESU x 10^10)
                -9.6064
    Dipole Moment (Debye)
         X       5.5900      Y     -12.6883      Z       2.7648
       Tot      14.1381
    Quadrupole Moments (Debye-Ang)
        XX     -64.7883     XY      -1.0081     YY     -77.0540
        XZ       6.8429     YZ      11.9628     ZZ     -67.5576
    Octopole Moments (Debye-Ang^2)
       XXX      28.6747    XXY     -31.2261    XYY      30.0543
       YYY    -154.4738    XXZ     -17.8412    XYZ      -6.6332
       YYZ      20.7288    XZZ      21.4569    YZZ     -39.3320
       ZZZ      52.0968
    Hexadecapole Moments (Debye-Ang^3)
      XXXX    -625.1432   XXXY      10.3070   XXYY    -180.6531
      XYYY      71.5566   YYYY    -765.3500   XXXZ     101.9993
      XXYZ      47.0700   XYYZ       7.3101   YYYZ     111.4961
      XXZZ    -178.8725   XYZZ      16.5017   YYZZ    -164.4815
      XZZZ      50.9699   YZZZ     110.9711   ZZZZ    -358.5184
 -----------------------------------------------------------------
 Calculating analytic gradient of the SCF energy
 Gradient of SCF Energy
            1           2           3           4           5           6
    1   0.0208756   0.0065972   0.0091512   0.0080834  -0.0611699  -0.0642300
    2   0.0689657   0.0175428   0.0117218  -0.0584454  -0.0798624  -0.0464023
    3   0.1070204  -0.0590114   0.0591456  -0.0060279  -0.0106906  -0.0672044
            7           8           9          10          11          12
    1   0.0510501   0.0254355   0.0302570  -0.0016121  -0.0298110   0.0379547
    2   0.0281013   0.0480716  -0.0290474  -0.0009528   0.0054410  -0.0022489
    3   0.0502407  -0.0596500  -0.0161043  -0.0201111  -0.0535574   0.0601316
           13
    1  -0.0325817
    2   0.0371150
    3   0.0158187
 Max gradient component =       1.070E-01
 RMS gradient           =       4.390E-02
 Computing fast CPCM-ISWIG gradient
 Updating gradient with PCM contributions...
 -- total gradient after adding PCM contribution --
---------------------------------------------------
  Atom         X              Y              Z     
---------------------------------------------------
   1      -0.000197       0.000931       0.000132
   2       0.000038      -0.000216       0.000085
   3       0.000003       0.000049       0.000035
   4       0.000077      -0.000125       0.000070
   5       0.000129      -0.000362      -0.000084
   6      -0.000030      -0.000194      -0.000163
   7      -0.000016      -0.000015      -0.000027
   8       0.000008      -0.000052      -0.000037
   9       0.000015      -0.000019      -0.000034
  10       0.000084      -0.000021       0.000000
  11      -0.000076       0.000019       0.000038
  12      -0.000009       0.000038       0.000027
  13      -0.000027      -0.000034      -0.000042
---------------------------------------------------
 Number of fixed atoms: 0
 Gradient time:  CPU 256.38 s  wall 67.03 s
 ----------------------------------------------------------------
             Standard Nuclear Orientation (Angstroms)
    I     Atom           X                Y                Z
 ----------------------------------------------------------------
    1      C       0.0829277092     0.4368858722     0.4002889604
    2      C      -0.2160301985     1.4326830295    -0.6439183386
    3      O      -0.3268168024     1.0597691983    -1.8633955258
    4      O      -0.4371148648     2.6454747155    -0.2887116945
    5      C       0.8358139804    -0.7879423033     0.0182006545
    6      H       0.4607569526     0.9002511509     1.3202374708
    7      H       0.3846405156    -1.2559499255    -0.8656689306
    8      H       0.8215186307    -1.5230020633     0.8362076104
    9      O       2.2438411301    -0.5161534275    -0.2912169349
   10      H      -1.3117308972    -0.0728361648     0.7359758654
   11      O      -2.3537812459    -0.4796373497     1.0038616272
   12      H      -2.8418211570    -0.4873224274     0.1725948844
   13      H       2.6577962474    -1.3532203050    -0.5344556489
 ----------------------------------------------------------------
 Nuclear Repulsion Energy =   298.0968807168 hartrees
 There are       29 alpha and       29 beta electrons
 Discretize the solute cavity surface with Lebedev spheres
	Using 110 Lebedev grid points for each H atom
	Using 110 Lebedev grid points for other atoms
	Atomic van der Waals radii will be scaled by 1.20
 Remove points where switching function is < 1.0e-08
 Keep 841 surface tesserae and discard 589 interior tesserae
 Molecular Surface Area = 155.665 Angst**2

                       Distance Matrix (Angstroms)
             C (  1)   C (  2)   O (  3)   O (  4)   C (  5)   H (  6)
   C (  2)  1.473552
   O (  3)  2.383305  1.280025
   O (  4)  2.371293  1.282932  2.237467
   C (  5)  1.487627  2.544790  2.882040  3.674629
   H (  6)  1.097163  2.144629  3.283479  2.537853  2.164709
   H (  7)  2.135269  2.763824  2.619959  4.028558  1.097185  3.071349
   H (  8)  2.139323  3.464586  3.908611  4.497310  1.099842  2.497317
   O (  9)  2.460896  3.158058  3.400523  4.145289  1.467020  2.789691
   H ( 10)  1.522358  2.317597  3.001597  3.033835  2.374558  2.104750
   O ( 11)  2.672427  3.307889  3.833995  3.887246  3.352625  3.150526
   H ( 12)  3.075738  3.353788  3.586641  3.976158  3.693130  3.761578
   H ( 13)  3.272335  4.004013  4.061590  5.062453  1.986099  3.653081
             H (  7)   H (  8)   O (  9)   H ( 10)   O ( 11)   H ( 12)
   H (  8)  1.777235
   O (  9)  2.081807  2.075532
   H ( 10)  2.615856  2.581430  3.727432
   O ( 11)  3.405402  3.346528  4.776682  1.150269
   H ( 12)  3.475462  3.864333  5.106850  1.682371  0.963974
   H ( 13)  2.299217  2.297707  0.964990  4.360106  5.314647  5.612084

 
 Requested basis set is def2-TZVPD
 There are 125 shells and 325 basis functions
 A cutoff of  1.0D-14 yielded   7447 shell pairs
 There are     50835 function pairs (     64681 Cartesian)
 Smallest overlap matrix eigenvalue = 5.79E-06
 Guess MOs from SCF MO coefficient file
 Reading MOs from coefficient file
 Reading MOs from coefficient file
 Long-range K will be added via erf
 Coulomb attenuation parameter = 0.3 bohr**(-1)
 A restricted hybrid HF-DFT SCF calculation will be
 performed using Pulay DIIS extrapolation
 Polarizable Continuum solvation model will be applied
 Exchange:     0.1670 Hartree-Fock + 1.0000 wB97X-V + LR-HF
 Correlation:  1.0000 wB97X-V
 Using SG-2 standard quadrature grid
 Nonlocal Correlation:  VV10 with C = 0.0100 and b = 6.00
 Grid used for NLC:  SG-1 standard quadrature
 SCF converges when DIIS error is below 1.0E-08
Using Q-Chem read-in guess as SCF_GUESS READ specified.

 using 4 threads for integral computing
 -------------------------------------------------------
 OpenMP Integral computing Module                
 Release: version 1.0, May 2013, Q-Chem Inc. Pittsburgh 
 -------------------------------------------------------
 using 4 threads for integral computing
 -------------------------------------------------------
 OpenMP Integral computing Module                
 Release: version 1.0, May 2013, Q-Chem Inc. Pittsburgh 
 -------------------------------------------------------
 -------------------------------------------------------
 OpenMP BLAS3 based DFT computing Module                
 Release: version 1.0, May 2013, Q-Chem Inc. Pittsburgh 
 -------------------------------------------------------
 -------------------------------------------------------
 OpenMP BLAS3 based DFT computing Module                
 Release: version 1.0, May 2013, Q-Chem Inc. Pittsburgh 
 -------------------------------------------------------
 -------------------------------------------------------
 OpenMP BLAS3 based DFT computing Module                
 Release: version 1.0, May 2013, Q-Chem Inc. Pittsburgh 
 -------------------------------------------------------
 ---------------------------------------
  Cycle       Energy         DIIS Error
 ---------------------------------------
    1    -418.7464357626      6.23E-04
    2    -419.0883129837      6.97E-04
    3    -419.0978350681      3.06E-04
    4    -419.0994184186      2.24E-04
    5    -419.1003242514      1.68E-04
    6    -419.1008583389      1.24E-04
    7    -419.1012752773      7.46E-05
    8    -419.1014289131      4.42E-05
    9    -419.1014972864      1.85E-05
   10    -419.1015112413      3.54E-06
   11    -419.1015117215      8.60E-07
   12    -419.1015117512      1.52E-07
   13    -419.1015117519      3.19E-08
   14    -419.1015117520      1.22E-08
   15    -419.1015117520      4.72E-09 Convergence criterion met
 ---------------------------------------

************** Final PCM Free Energy Summary **************
 G_electrostatic  =      -0.35518213 hartree =    -222.88014770 kcal/mol
 G_cavitation     =       0.00000000 hartree =       0.00000000 kcal/mol
 G_dispersion     =       0.00000000 hartree =       0.00000000 kcal/mol
 G_repulsion      =       0.00000000 hartree =       0.00000000 kcal/mol
 --------------------------------------------------
 Non-electrostatic Free Energy =       0.00000000 hartree =       0.00000000 kcal/mol
 Total                         =      -0.35518213 hartree =    -222.88014770 kcal/mol
 --------------------------------------------------
 SCF Energy (H0 + V/2)                       =    -419.10151175 
 Solute Internal Energy (H0)                 =    -418.74632963 
 Total Free Energy (H0 + V/2 + non-elec)     =    -419.10151175 hartree
                                             = -262990.16793480 kcal/mol
***********************************************************

 SCF time:  CPU 1116.05 s  wall 291.07 s
 SCF   energy in the final basis set = -419.10151175
 Total energy in the final basis set = -419.10151175
 
 --------------------------------------------------------------
 
                    Orbital Energies (a.u.)
 --------------------------------------------------------------
 
 Alpha MOs
 -- Occupied --
-19.188 -19.143 -19.114 -19.114 -10.313 -10.280 -10.181  -1.117
 -1.108  -1.046  -1.013  -0.837  -0.709  -0.596  -0.579  -0.546
 -0.540  -0.502  -0.484  -0.474  -0.452  -0.438  -0.410  -0.367
 -0.363  -0.325  -0.320  -0.304  -0.252
 -- Virtual --
  0.061   0.080   0.084   0.089   0.111   0.116   0.123   0.127
  0.130   0.148   0.155   0.165   0.170   0.174   0.185   0.194
  0.196   0.200   0.225   0.238   0.250   0.260   0.263   0.278
  0.288   0.293   0.297   0.314   0.317   0.325   0.335   0.343
  0.345   0.350   0.362   0.370   0.377   0.383   0.393   0.396
  0.402   0.418   0.419   0.425   0.432   0.440   0.446   0.450
  0.465   0.475   0.480   0.486   0.496   0.498   0.503   0.514
  0.523   0.535   0.542   0.550   0.567   0.570   0.580   0.590
  0.595   0.603   0.613   0.619   0.630   0.637   0.644   0.652
  0.667   0.670   0.691   0.694   0.696   0.712   0.722   0.728
  0.749   0.758   0.760   0.767   0.780   0.791   0.805   0.810
  0.827   0.834   0.842   0.852   0.861   0.863   0.871   0.879
  0.916   0.924   0.944   0.957   0.984   0.994   1.016   1.029
  1.052   1.076   1.081   1.089   1.122   1.127   1.135   1.159
  1.187   1.196   1.226   1.230   1.246   1.275   1.296   1.314
  1.324   1.350   1.365   1.388   1.396   1.432   1.467   1.520
  1.537   1.574   1.604   1.640   1.709   1.745   1.795   1.802
  1.822   1.831   1.857   1.901   1.917   1.921   1.930   1.964
  1.972   1.995   1.997   2.020   2.047   2.059   2.091   2.101
  2.134   2.186   2.214   2.232   2.258   2.267   2.290   2.291
  2.321   2.346   2.374   2.409   2.436   2.454   2.464   2.481
  2.491   2.506   2.586   2.606   2.665   2.702   2.710   2.729
  2.759   2.770   2.813   2.838   2.882   2.913   2.939   2.975
  2.980   3.009   3.022   3.046   3.085   3.112   3.124   3.158
  3.179   3.226   3.230   3.273   3.288   3.312   3.370   3.375
  3.415   3.433   3.436   3.486   3.488   3.504   3.527   3.552
  3.588   3.616   3.627   3.650   3.656   3.683   3.697   3.723
  3.748   3.757   3.797   3.817   3.862   3.895   4.014   4.064
  4.104   4.128   4.185   4.223   4.288   4.355   4.415   4.450
  4.549   4.632   4.757   4.835   4.839   4.915   4.952   5.134
  5.152   5.289   5.347   5.380   5.388   5.393   5.406   5.417
  5.496   5.519   5.544   5.608   5.615   5.630   5.710   5.747
  5.785   5.857   5.918   5.992   6.057   6.175   6.202   6.291
  6.376   6.475   6.487   6.566   6.647   6.648   6.707   6.709
  6.717   6.735   6.769   6.801   6.876   6.883   6.962   6.996
  7.053   7.075   7.262   7.288   7.294   7.349   7.387   7.402
  7.417  22.724  22.951  23.652  44.089  44.303  44.328  44.446
 --------------------------------------------------------------
 
          Ground-State Mulliken Net Atomic Charges

     Atom                 Charge (a.u.)
  ----------------------------------------
      1 C                    -0.095115
      2 C                     0.131455
      3 O                    -0.767873
      4 O                    -0.794087
      5 C                    -0.214535
      6 H                     0.225915
      7 H                     0.134775
      8 H                     0.192352
      9 O                    -0.532232
     10 H                    -0.032752
     11 O                    -0.882448
     12 H                     0.313655
     13 H                     0.320891
  ----------------------------------------
  Sum of atomic charges =    -2.000000

 -----------------------------------------------------------------
                    Cartesian Multipole Moments
 -----------------------------------------------------------------
    Charge (ESU x 10^10)
                -9.6064
    Dipole Moment (Debye)
         X       5.5905      Y     -12.6781      Z       2.7580
       Tot      14.1278
    Quadrupole Moments (Debye-Ang)
        XX     -64.8020     XY      -1.0137     YY     -77.0349
        XZ       6.8473     YZ      11.9581     ZZ     -67.5602
    Octopole Moments (Debye-Ang^2)
       XXX      28.6991    XXY     -31.1981    XYY      30.0417
       YYY    -154.3622    XXZ     -17.8586    XYZ      -6.6343
       YYZ      20.7124    XZZ      21.4566    YZZ     -39.3122
       ZZZ      52.0666
    Hexadecapole Moments (Debye-Ang^3)
      XXXX    -625.3180   XXXY      10.2808   XXYY    -180.6367
      XYYY      71.5194   YYYY    -765.0557   XXXZ     102.0464
      XXYZ      47.0733   XYYZ       7.3201   YYYZ     111.4656
      XXZZ    -178.8963   XYZZ      16.4922   YYZZ    -164.4545
      XZZZ      50.9827   YZZZ     110.9621   ZZZZ    -358.5312
 -----------------------------------------------------------------
 Calculating analytic gradient of the SCF energy
 Gradient of SCF Energy
            1           2           3           4           5           6
    1   0.0209408   0.0063475   0.0091418   0.0080723  -0.0613184  -0.0639531
    2   0.0673037   0.0180930   0.0116567  -0.0583906  -0.0790190  -0.0462375
    3   0.1069554  -0.0593505   0.0591253  -0.0060598  -0.0107505  -0.0666194
            7           8           9          10          11          12
    1   0.0510829   0.0254630   0.0301997  -0.0015665  -0.0297914   0.0379640
    2   0.0281007   0.0480746  -0.0290718  -0.0008570   0.0054649  -0.0022298
    3   0.0502136  -0.0596425  -0.0161065  -0.0201805  -0.0535463   0.0601281
           13
    1  -0.0325828
    2   0.0371122
    3   0.0158337
 Max gradient component =       1.070E-01
 RMS gradient           =       4.377E-02
 Computing fast CPCM-ISWIG gradient
 Updating gradient with PCM contributions...
 -- total gradient after adding PCM contribution --
---------------------------------------------------
  Atom         X              Y              Z     
---------------------------------------------------
   1       0.000214      -0.000941      -0.000127
   2      -0.000008       0.000235      -0.000052
   3      -0.000008      -0.000005      -0.000009
   4      -0.000006       0.000143      -0.000013
   5      -0.000155       0.000339       0.000052
   6       0.000087       0.000156       0.000169
   7      -0.000041       0.000021      -0.000005
   8      -0.000035       0.000011      -0.000010
   9      -0.000037      -0.000045      -0.000021
  10      -0.000057       0.000050       0.000023
  11       0.000072       0.000030       0.000009
  12      -0.000001       0.000040       0.000025
  13      -0.000025      -0.000035      -0.000041
---------------------------------------------------
 Number of fixed atoms: 0
 Gradient time:  CPU 256.06 s  wall 66.94 s
 ----------------------------------------------------------------
             Standard Nuclear Orientation (Angstroms)
    I     Atom           X                Y                Z
 ----------------------------------------------------------------
    1      C       0.0829277092     0.4378858722     0.4012889604
    2      C      -0.2160301985     1.4326830295    -0.6439183386
    3      O      -0.3268168024     1.0597691983    -1.8633955258
    4      O      -0.4371148648     2.6454747155    -0.2887116945
    5      C       0.8358139804    -0.7879423033     0.0182006545
    6      H       0.4607569526     0.9002511509     1.3202374708
    7      H       0.3846405156    -1.2559499255    -0.8656689306
    8      H       0.8215186307    -1.5230020633     0.8362076104
    9      O       2.2438411301    -0.5161534275    -0.2912169349
   10      H      -1.3117308972    -0.0728361648     0.7359758654
   11      O      -2.3537812459    -0.4796373497     1.0038616272
   12      H      -2.8418211570    -0.4873224274     0.1725948844
   13      H       2.6577962474    -1.3532203050    -0.5344556489
 ----------------------------------------------------------------
 Nuclear Repulsion Energy =   298.0852259716 hartrees
 There are       29 alpha and       29 beta electrons
 Discretize the solute cavity surface with Lebedev spheres
	Using 110 Lebedev grid points for each H atom
	Using 110 Lebedev grid points for other atoms
	Atomic van der Waals radii will be scaled by 1.20
 Remove points where switching function is < 1.0e-08
 Keep 841 surface tesserae and discard 589 interior tesserae
 Molecular Surface Area = 155.673 Angst**2

                       Distance Matrix (Angstroms)
             C (  1)   C (  2)   O (  3)   O (  4)   C (  5)   H (  6)
   C (  2)  1.473586
   O (  3)  2.383994  1.280025
   O (  4)  2.370653  1.282932  2.237467
   C (  5)  1.488707  2.544790  2.882040  3.674629
   H (  6)  1.095903  2.144629  3.283479  2.537853  2.164709
   H (  7)  2.136655  2.763824  2.619959  4.028558  1.097185  3.071349
   H (  8)  2.140036  3.464586  3.908611  4.497310  1.099842  2.497317
   O (  9)  2.461565  3.158058  3.400523  4.145289  1.467020  2.789691
   H ( 10)  1.522473  2.317597  3.001597  3.033835  2.374558  2.104750
   O ( 11)  2.672544  3.307889  3.833995  3.887246  3.352625  3.150526
   H ( 12)  3.076112  3.353788  3.586641  3.976158  3.693130  3.761578
   H ( 13)  3.273168  4.004013  4.061590  5.062453  1.986099  3.653081
             H (  7)   H (  8)   O (  9)   H ( 10)   O ( 11)   H ( 12)
   H (  8)  1.777235
   O (  9)  2.081807  2.075532
   H ( 10)  2.615856  2.581430  3.727432
   O ( 11)  3.405402  3.346528  4.776682  1.150269
   H ( 12)  3.475462  3.864333  5.106850  1.682371  0.963974
   H ( 13)  2.299217  2.297707  0.964990  4.360106  5.314647  5.612084

 
 Requested basis set is def2-TZVPD
 There are 125 shells and 325 basis functions
 A cutoff of  1.0D-14 yielded   7447 shell pairs
 There are     50835 function pairs (     64681 Cartesian)
 Smallest overlap matrix eigenvalue = 5.80E-06
 Guess MOs from SCF MO coefficient file
 Reading MOs from coefficient file
 Reading MOs from coefficient file
 Long-range K will be added via erf
 Coulomb attenuation parameter = 0.3 bohr**(-1)
 A restricted hybrid HF-DFT SCF calculation will be
 performed using Pulay DIIS extrapolation
 Polarizable Continuum solvation model will be applied
 Exchange:     0.1670 Hartree-Fock + 1.0000 wB97X-V + LR-HF
 Correlation:  1.0000 wB97X-V
 Using SG-2 standard quadrature grid
 Nonlocal Correlation:  VV10 with C = 0.0100 and b = 6.00
 Grid used for NLC:  SG-1 standard quadrature
 SCF converges when DIIS error is below 1.0E-08
Using Q-Chem read-in guess as SCF_GUESS READ specified.

 using 4 threads for integral computing
 -------------------------------------------------------
 OpenMP Integral computing Module                
[...]
 H         -0.010 -0.001  0.002    0.077  0.069 -0.276    0.125 -0.092  0.055
 H         -0.016 -0.001 -0.001   -0.152 -0.145 -0.248    0.283 -0.028  0.024
 O         -0.018  0.009  0.005    0.019 -0.046  0.063    0.114  0.060 -0.114
 H          0.913  0.330 -0.191   -0.052 -0.011  0.029    0.042  0.083 -0.025
 O          0.007  0.002 -0.001   -0.019  0.093  0.309   -0.103  0.334 -0.152
 H          0.011  0.002 -0.005   -0.233  0.090  0.435   -0.072  0.669 -0.173
 H         -0.014  0.016  0.002    0.034 -0.029  0.028    0.155  0.089 -0.145
 TransDip   2.503  1.231 -1.015   -0.048 -0.030 -0.024    0.106  0.065 -0.020

 Mode:                 4                      5                      6
 Frequency:       108.92                 124.91                 134.87
 Force Cnst:      0.0341                 0.0517                 0.0122
 Red. Mass:       4.8813                 5.6269                 1.1427
 IR Active:          YES                    YES                    YES
 IR Intens:        2.183                  1.376                165.425
 Raman Active:       YES                    YES                    YES
               X      Y      Z        X      Y      Z        X      Y      Z
 C         -0.113 -0.166 -0.084    0.112  0.030 -0.118   -0.006  0.012  0.007
 C          0.004 -0.072 -0.035   -0.076  0.045 -0.046    0.003  0.005 -0.005
 O         -0.116 -0.007 -0.046   -0.267  0.087 -0.043    0.011 -0.005 -0.002
 O          0.246 -0.044  0.018   -0.102  0.016  0.041    0.006  0.009 -0.017
 C          0.062 -0.038 -0.152    0.022 -0.020 -0.127   -0.009  0.007  0.016
 H         -0.131 -0.213 -0.050    0.132  0.002 -0.114   -0.004  0.020  0.002
 H          0.272  0.054 -0.307    0.155  0.204 -0.312   -0.018 -0.004  0.027
 H          0.035 -0.177 -0.278   -0.288 -0.156 -0.254   -0.002  0.019  0.026
 O          0.079  0.225  0.131    0.150 -0.208  0.285   -0.012  0.002 -0.002
 H         -0.180 -0.118 -0.017    0.161  0.061 -0.073    0.004 -0.015  0.002
 O         -0.170  0.034  0.123    0.153  0.059 -0.042    0.026 -0.084 -0.008
 H         -0.301  0.121  0.199    0.081  0.226 -0.001   -0.322  0.922  0.187
 H          0.260  0.328  0.086    0.098 -0.260  0.377   -0.016 -0.001  0.002
 TransDip  -0.020  0.013 -0.041    0.037 -0.002 -0.007   -0.136  0.380  0.081

 Mode:                 7                      8                      9
 Frequency:       245.83                 288.47                 384.21
 Force Cnst:      0.0444                 0.1018                 0.6914
 Red. Mass:       1.2474                 2.0768                 7.9492
 IR Active:          YES                    YES                    YES
 IR Intens:      173.610                 18.810                105.822
 Raman Active:       YES                    YES                    YES
               X      Y      Z        X      Y      Z        X      Y      Z
 C         -0.012 -0.017 -0.035    0.030  0.027  0.072    0.085 -0.015 -0.094
 C         -0.006  0.002 -0.021    0.018 -0.007  0.065    0.052 -0.150 -0.046
 O         -0.017  0.056 -0.037    0.053 -0.125  0.099   -0.012  0.025 -0.129
 O          0.009 -0.010  0.032   -0.014  0.021 -0.046    0.044 -0.195  0.153
 C          0.027 -0.023  0.053   -0.079  0.042 -0.167   -0.205 -0.107  0.058
 H         -0.037  0.005 -0.035    0.152 -0.040  0.054    0.117 -0.012 -0.120
 H         -0.001 -0.187  0.150   -0.095  0.348 -0.317   -0.174 -0.186  0.077
 H          0.113  0.099  0.162   -0.161 -0.188 -0.376   -0.153 -0.061  0.107
 O         -0.006  0.001 -0.072   -0.051  0.044 -0.019   -0.326  0.238  0.115
 H         -0.006 -0.012 -0.027    0.011  0.028  0.066   -0.045  0.059  0.028
 O         -0.009 -0.002  0.006    0.027  0.006 -0.013    0.339  0.111 -0.074
 H         -0.033 -0.012  0.020    0.089  0.032 -0.050    0.383  0.142 -0.100
 H          0.236 -0.159  0.889    0.140 -0.055  0.645   -0.023  0.432 -0.048
 TransDip   0.117 -0.085  0.397    0.011 -0.010  0.138   -0.236 -0.187  0.134

 Mode:                10                     11                     12
 Frequency:       520.45                 559.44                 605.82
 Force Cnst:      0.2832                 0.6293                 0.3313
 Red. Mass:       1.7747                 3.4126                 1.5323
 IR Active:          YES                    YES                    YES
 IR Intens:      292.923                 75.865                 90.969
 Raman Active:       YES                    YES                    YES
               X      Y      Z        X      Y      Z        X      Y      Z
 C          0.075  0.054  0.087   -0.088  0.130  0.019   -0.131 -0.050  0.006
 C          0.015 -0.030 -0.057   -0.036 -0.080 -0.061   -0.107 -0.034  0.029
 O         -0.010  0.054 -0.079    0.013 -0.081 -0.084    0.026  0.019 -0.006
 O          0.009 -0.075  0.020    0.078 -0.154  0.165    0.034  0.013 -0.023
 C          0.008  0.028  0.007   -0.035  0.264  0.014   -0.015  0.031  0.003
 H          0.590  0.291 -0.239   -0.391  0.263  0.066   -0.339 -0.072  0.101
 H         -0.076  0.167 -0.025   -0.087  0.454 -0.057    0.040  0.013 -0.015
 H         -0.010 -0.067 -0.078   -0.103  0.147 -0.097    0.025  0.017 -0.011
 O         -0.008 -0.001  0.007    0.074 -0.049 -0.039    0.051 -0.016 -0.017
 H          0.084  0.047  0.377   -0.015  0.058 -0.220   -0.017 -0.132  0.300
 O         -0.125 -0.055  0.038    0.027  0.014 -0.018    0.056  0.019  0.017
 H          0.390  0.176 -0.270   -0.327 -0.147  0.194    0.692  0.314 -0.364
 H         -0.018 -0.006  0.013   -0.233 -0.226  0.051   -0.032 -0.064  0.005
 TransDip   0.451  0.238 -0.201   -0.245  0.130  0.031   -0.248 -0.054  0.170

 Mode:                13                     14                     15
 Frequency:       674.99                 779.36                 885.24
 Force Cnst:      1.0092                 0.7918                 1.4439
 Red. Mass:       3.7594                 2.2126                 3.1272
 IR Active:          YES                    YES                    YES
 IR Intens:       87.900                151.564                 25.604
 Raman Active:       YES                    YES                    YES
               X      Y      Z        X      Y      Z        X      Y      Z
 C          0.003 -0.077  0.264    0.058  0.009 -0.025   -0.009 -0.025 -0.106
 C          0.009 -0.122  0.059    0.270  0.053 -0.046    0.056 -0.095  0.109
 O         -0.051  0.227 -0.044   -0.079 -0.010 -0.006   -0.008  0.109  0.145
 O          0.001 -0.090 -0.194   -0.060 -0.038  0.002    0.009 -0.140 -0.117
 C          0.009 -0.012  0.077    0.015  0.032  0.021    0.052  0.195 -0.127
 H         -0.204 -0.021  0.315   -0.667 -0.267  0.405    0.230 -0.122 -0.156
 H         -0.102  0.435 -0.105   -0.002  0.150 -0.035    0.095 -0.324  0.123
 H          0.038 -0.389 -0.264   -0.083 -0.026 -0.035    0.009  0.630  0.274
 O          0.008  0.002 -0.031   -0.037  0.004 -0.009   -0.067 -0.023  0.046
 H         -0.060 -0.059 -0.128    0.141 -0.017 -0.012    0.050 -0.037 -0.022
 O          0.068  0.033 -0.036   -0.061 -0.026  0.041   -0.012 -0.002  0.004
 H         -0.345 -0.161  0.213    0.321  0.150 -0.191    0.011  0.008 -0.010
 H          0.005 -0.020  0.035   -0.041 -0.008  0.025   -0.334 -0.151  0.043
 TransDip  -0.202 -0.134  0.178    0.365  0.136  0.061    0.161  0.004  0.020

 Mode:                16                     17                     18
 Frequency:       892.39                 967.33                1043.20
 Force Cnst:      2.2439                 2.0023                 1.2875
 Red. Mass:       4.7824                 3.6319                 2.0080
 IR Active:          YES                    YES                    YES
 IR Intens:      200.362                 72.806                 43.176
 Raman Active:       YES                    YES                    YES
               X      Y      Z        X      Y      Z        X      Y      Z
 C          0.247  0.036 -0.056   -0.219 -0.122  0.069    0.059 -0.052  0.174
 C         -0.275 -0.050  0.032    0.145  0.045 -0.036   -0.030  0.029 -0.016
 O          0.059 -0.005 -0.037   -0.030 -0.054 -0.054   -0.007 -0.038 -0.141
 O          0.066  0.047  0.006   -0.047  0.082  0.050   -0.001  0.049  0.032
 C          0.299  0.029 -0.017    0.266  0.071  0.002   -0.039  0.064 -0.110
 H         -0.602  0.028  0.280    0.361  0.166 -0.281    0.172 -0.588  0.399
 H          0.050  0.262 -0.033    0.235  0.174 -0.059   -0.006 -0.361  0.102
 H          0.034 -0.122 -0.132    0.231 -0.171 -0.189    0.138  0.374  0.177
 O         -0.243 -0.043  0.040   -0.152 -0.048  0.021    0.003  0.002  0.030
 H          0.293 -0.161 -0.115   -0.411 -0.138  0.123    0.047 -0.125  0.030
 O         -0.067 -0.015  0.022    0.081  0.031 -0.024    0.004  0.006 -0.005
 H          0.028  0.025 -0.038   -0.014 -0.012  0.036   -0.053 -0.022  0.030
 H         -0.086  0.043  0.035   -0.329 -0.141  0.060   -0.153 -0.074  0.024
 TransDip   0.451 -0.002 -0.050   -0.152 -0.227  0.011   -0.136  0.124  0.102

 Mode:                19                     20                     21
 Frequency:      1101.80                1203.67                1248.34
 Force Cnst:      1.5423                 0.9892                 1.0731
 Red. Mass:       2.1563                 1.1588                 1.1687
 IR Active:          YES                    YES                    YES
 IR Intens:       71.062                 30.403                 56.648
 Raman Active:       YES                    YES                    YES
               X      Y      Z        X      Y      Z        X      Y      Z
 C         -0.096  0.187  0.105   -0.010 -0.069 -0.000    0.029 -0.034  0.008
 C          0.029 -0.016  0.022    0.015  0.003 -0.006    0.027 -0.024 -0.009
 O         -0.010  0.008 -0.011   -0.002 -0.004 -0.003   -0.003  0.001  0.008
 O          0.006 -0.049 -0.000   -0.006  0.016  0.003   -0.010  0.034  0.007
 C          0.080 -0.088 -0.154    0.002  0.067  0.004   -0.035 -0.017 -0.068
 H         -0.284  0.306  0.119    0.070  0.034 -0.079   -0.232  0.434 -0.130
 H          0.002 -0.423  0.060   -0.351  0.213  0.107   -0.481 -0.086  0.186
 H          0.115  0.121  0.044   -0.179  0.197  0.112    0.545 -0.035 -0.082
 O         -0.032 -0.053  0.022   -0.017 -0.047  0.003    0.021  0.019  0.038
 H         -0.174  0.310  0.068    0.101 -0.436 -0.051    0.107 -0.249 -0.056
 O          0.012 -0.006 -0.003    0.003  0.014 -0.001   -0.005  0.006  0.002
 H          0.017  0.003 -0.005   -0.010  0.001  0.008    0.001  0.003 -0.001
 H          0.535  0.268 -0.092    0.631  0.313 -0.107   -0.242 -0.115  0.037
 TransDip   0.247 -0.066  0.087    0.124  0.057 -0.112   -0.047 -0.211 -0.108

 Mode:                22                     23                     24
 Frequency:      1304.06                1324.78                1418.39
 Force Cnst:      1.0980                 1.8724                 2.1964
 Red. Mass:       1.0958                 1.8108                 1.8529
 IR Active:          YES                    YES                    YES
 IR Intens:       29.038                253.226                188.433
 Raman Active:       YES                    YES                    YES
               X      Y      Z        X      Y      Z        X      Y      Z
 C          0.004 -0.053 -0.047   -0.044  0.094 -0.028    0.068 -0.097  0.032
 C         -0.013 -0.007  0.011   -0.051  0.151 -0.080   -0.008 -0.049 -0.135
 O          0.001 -0.001 -0.006    0.010  0.006  0.064    0.007  0.018  0.066
 O          0.001  0.008 -0.001    0.024 -0.120 -0.018   -0.006  0.040  0.015
 C          0.020  0.031  0.006   -0.002  0.008  0.029   -0.107  0.120  0.022
 H          0.038 -0.259  0.044    0.229 -0.458  0.152   -0.151  0.192 -0.037
 H         -0.459  0.234  0.139   -0.079  0.005  0.056    0.611 -0.202 -0.161
 H          0.249  0.019 -0.013    0.598 -0.288 -0.222    0.444 -0.051 -0.130
 O          0.003 -0.013  0.016   -0.022 -0.022  0.018   -0.040 -0.052  0.000
 H         -0.221  0.707  0.097   -0.001 -0.369 -0.047   -0.036  0.240  0.096
 O          0.003 -0.020 -0.001    0.008  0.012 -0.000   -0.000 -0.007 -0.004
 H          0.017 -0.002 -0.011    0.010  0.008 -0.001   -0.025 -0.015  0.012
 H          0.112  0.054 -0.022    0.092  0.047 -0.018    0.333  0.158 -0.054
 TransDip   0.042  0.163  0.038   -0.286  0.395 -0.148   -0.099  0.002 -0.428

 Mode:                25                     26                     27
 Frequency:      1452.10                1465.29                1482.09
 Force Cnst:      3.3077                 4.9482                 1.5679
 Red. Mass:       2.6624                 3.9115                 1.2115
 IR Active:          YES                    YES                    YES
 IR Intens:      494.684               1089.718                 76.354
 Raman Active:       YES                    YES                    YES
               X      Y      Z        X      Y      Z        X      Y      Z
 C         -0.046  0.116 -0.092    0.063 -0.144  0.003   -0.012  0.022  0.017
 C          0.067 -0.154  0.238   -0.029  0.337  0.248   -0.004 -0.021 -0.065
 O         -0.016 -0.016 -0.124   -0.008 -0.055 -0.122    0.003  0.010  0.033
 O         -0.019  0.080 -0.000    0.025 -0.147 -0.052   -0.000  0.005  0.007
 C         -0.063  0.025  0.052   -0.064  0.009  0.001   -0.004 -0.103 -0.019
 H          0.211 -0.233 -0.048   -0.237  0.546 -0.202    0.001 -0.021  0.036
 H          0.291  0.136 -0.166    0.311  0.152 -0.239    0.094  0.548 -0.391
 H          0.622 -0.115 -0.090    0.243  0.204  0.166    0.292  0.460  0.461
 O         -0.013 -0.037  0.000   -0.019 -0.014 -0.000   -0.009  0.002  0.003
 H          0.310 -0.101 -0.243   -0.071  0.158  0.108   -0.027 -0.053  0.019
 O         -0.027 -0.006  0.014    0.005 -0.003 -0.005    0.004  0.003 -0.002
 H          0.040  0.023 -0.030   -0.026 -0.015  0.015   -0.004 -0.002  0.003
 H          0.202  0.090 -0.039    0.079  0.040 -0.012   -0.067 -0.030  0.012
 TransDip   0.519 -0.190  0.449   -0.181  0.847  0.606   -0.133 -0.124 -0.213

 Mode:                28                     29                     30
 Frequency:      1628.16                3002.64                3051.66
 Force Cnst:      1.6679                 5.6539                 5.9720
 Red. Mass:       1.0679                 1.0644                 1.0884
 IR Active:          YES                    YES                    YES
 IR Intens:       44.464                151.883                  2.298
 Raman Active:       YES                    YES                    YES
               X      Y      Z        X      Y      Z        X      Y      Z
 C         -0.009  0.018 -0.040    0.002  0.003  0.006    0.017  0.022  0.047
 C          0.016 -0.011  0.012    0.001 -0.001  0.001    0.000  0.003 -0.002
 O         -0.003 -0.001 -0.005   -0.000 -0.000 -0.000   -0.000  0.000  0.001
 O         -0.002  0.004  0.000   -0.000  0.000 -0.000    0.000 -0.001 -0.000
 C          0.002 -0.002  0.003    0.009  0.063 -0.032   -0.021 -0.015 -0.061
 H         -0.106 -0.064  0.038   -0.031 -0.038 -0.077   -0.221 -0.281 -0.557
 H         -0.017  0.009  0.004   -0.147 -0.137 -0.303    0.284  0.304  0.584
 H          0.014 -0.019 -0.015    0.001 -0.605  0.698   -0.004 -0.139  0.146
 O          0.000  0.000  0.001    0.002 -0.000 -0.001   -0.001  0.000  0.000
 H          0.262 -0.083  0.881    0.006  0.005 -0.001   -0.005 -0.004  0.003
 O          0.006  0.011 -0.044   -0.000 -0.000  0.000    0.000  0.000 -0.000
 H         -0.291 -0.129  0.154   -0.000 -0.000  0.000   -0.000 -0.000 -0.000
 H         -0.001 -0.001  0.002    0.006  0.003 -0.000   -0.003 -0.002  0.002
 TransDip  -0.038 -0.078  0.195    0.081  0.365 -0.126   -0.039  0.006  0.028

 Mode:                31                     32                     33
 Frequency:      3063.17                3820.70                3847.22
 Force Cnst:      6.0439                 9.1692                 9.2945
 Red. Mass:       1.0933                 1.0661                 1.0658
 IR Active:          YES                    YES                    YES
 IR Intens:      210.276                 22.502                 15.319
 Raman Active:       YES                    YES                    YES
               X      Y      Z        X      Y      Z        X      Y      Z
 C         -0.020 -0.025 -0.054    0.001  0.000 -0.000    0.000  0.000  0.000
 C         -0.000 -0.004  0.000   -0.000  0.000 -0.000   -0.000 -0.000 -0.000
 O         -0.000  0.001  0.000   -0.000  0.000  0.000    0.000  0.000 -0.000
 O         -0.000  0.001  0.000    0.000 -0.000 -0.000    0.000  0.000 -0.000
 C         -0.021 -0.004 -0.058   -0.001 -0.001 -0.000   -0.000 -0.000  0.000
 H          0.248  0.315  0.627   -0.001  0.001  0.001    0.001  0.000 -0.001
 H          0.237  0.251  0.483   -0.002 -0.000  0.002    0.000  0.000  0.000
 H          0.002 -0.201  0.214   -0.003 -0.000  0.000    0.000  0.000 -0.000
 O         -0.000  0.000  0.000    0.028 -0.053 -0.016   -0.000  0.000  0.000
 H          0.004  0.001 -0.001   -0.002 -0.002  0.001   -0.002  0.002 -0.015
 O         -0.000 -0.000 -0.000    0.000  0.000 -0.000   -0.032 -0.001 -0.053
 H         -0.000 -0.000  0.001    0.001  0.000  0.001    0.514  0.012  0.855
 H          0.000 -0.002  0.001   -0.436  0.862  0.253    0.001 -0.002 -0.000
 TransDip  -0.143 -0.136 -0.420   -0.072  0.125  0.049    0.077  0.004  0.099

 STANDARD THERMODYNAMIC QUANTITIES AT   298.15 K  AND     1.00 ATM

   This Molecule has  1 Imaginary Frequencies
   Zero point vibrational energy:       55.449 kcal/mol

   Atom    1 Element C  Has Mass   12.00000
   Atom    2 Element C  Has Mass   12.00000
   Atom    3 Element O  Has Mass   15.99491
   Atom    4 Element O  Has Mass   15.99491
   Atom    5 Element C  Has Mass   12.00000
   Atom    6 Element H  Has Mass    1.00783
   Atom    7 Element H  Has Mass    1.00783
   Atom    8 Element H  Has Mass    1.00783
   Atom    9 Element O  Has Mass   15.99491
   Atom   10 Element H  Has Mass    1.00783
   Atom   11 Element O  Has Mass   15.99491
   Atom   12 Element H  Has Mass    1.00783
   Atom   13 Element H  Has Mass    1.00783
   Molecular Mass:   106.026620 amu
   Principal axes and moments of inertia in amu*Bohr^2:
                             1           2           3
    Eigenvalues --      756.71682   945.30988  1395.04847
          X               0.90556     0.29738     0.30253
          Y              -0.40987     0.79726     0.44316
          Z              -0.10941    -0.52530     0.84385
   Rotational Symmetry Number is   1
   The Molecule is an Asymmetric Top
   Translational Enthalpy:        0.889 kcal/mol
   Rotational Enthalpy:           0.889 kcal/mol
   Vibrational Enthalpy:         59.168 kcal/mol
   gas constant (RT):             0.592 kcal/mol
   Translational Entropy:        39.892  cal/mol.K
   Rotational Entropy:           28.391  cal/mol.K
   Vibrational Entropy:          24.153  cal/mol.K

   Total Enthalpy:               61.538 kcal/mol
   Total Entropy:                92.436  cal/mol.K
Archival summary:
1\1\c5-68\FREQ\ProcedureUnspecified\BasisUnspecified\436(2-,1)\lmgong\MonMay2106:54:112018MonMay2106:54:112018\0\\#,FREQ,ProcedureUnspecified,BasisUnspecified,\\-2,1\C\O,1,1.28002\O,1,1.28293,2,121.619\C,1,1.47288,2,119.75,3,175.793,0\H,4,1.09674,1,112.325,2,161.875,0\C,4,1.48845,1,118.484,2,27.4199,0\H,6,1.09718,4,110.493,1,-49.6146,0\H,6,1.09984,4,110.666,1,-169.167,0\O,6,1.46702,4,112.771,1,70.9565,0\H,9,0.96499,6,107.709,4,-179.558,0\H,4,1.52269,1,101.357,2,-85.6422,0\O,11,1.15027,4,178.611,1,167.81,0\H,12,0.963974,11,105.108,4,-132.184,0\\\@

 Total job time:  30805.74s(wall), 116202.46s(cpu) 
 Mon May 21 06:54:11 2018

        *************************************************************
        *                                                           *
        *  Thank you very much for using Q-Chem.  Have a nice day.  *
        *                                                           *
        *************************************************************


