
Running Job 1 of 1 qc-freq1.in
qchem qc-freq1.in_18257.0 /scratch/leeping/1862940/qc-freq1.d/ 1
/home/leeping/opt/qchem/5.0.2-openmp/exe/qcprog.exe_s qc-freq1.in_18257.0 /scratch/leeping/1862940/qc-freq1.d/
Check license passed

                  Welcome to Q-Chem
     A Quantum Leap Into The Future Of Chemistry


 Q-Chem 5.0, Q-Chem, Inc., Pleasanton, CA (2017)

 Yihan Shao,  Zhengting Gan,  E. Epifanovsky,  A. T. B. Gilbert,  M. Wormit,  
 J. Kussmann,  A. W. Lange,  A. Behn,  Jia Deng,  Xintian Feng,  D. Ghosh,  
 M. Goldey,  P. R. Horn,  L. D. Jacobson,  I. Kaliman,  T. Kus,  A. Landau,  
 Jie Liu,  E. I. Proynov,  R. M. Richard,  R. P. Steele,  E. J. Sundstrom,  
 H. L. Woodcock III,  P. M. Zimmerman,  D. Zuev,  B. Albrecht,  E. Alguire,  
 S. A. Baeppler,  D. Barton,  Z. Benda,  Y. A. Bernard,  E. J. Berquist,  
 K. B. Bravaya,  H. Burton,  D. Casanova,  Chun-Min Chang,  Yunqing Chen,  
 A. Chien,  K. D. Closser,  M. P. Coons,  S. Dasgupta,  A. L. Dempwolff,  
 M. Diedenhofen,  Hainam Do,  R. G. Edgar,  Po-Tung Fang,  S. Fatehi,  
 Qingguo Feng,  J. Fosso-Tande,  Qinghui Ge,  A. Ghysels,  G. Gidofalvi,  
 J. Gomes,  J. Gonthier,  A. Gunina,  M. W. D. Hanson-Heine,  
 P. H. P. Harbach,  A. W. Hauser,  J. E. Herr,  E. G. Hohenstein,  
 Z. C. Holden,  Kerwin Hui,  T.-C. Jagau,  Hyunjun Ji,  B. Kaduk,  
 K. Khistyaev,  Jaehoon Kim,  P. Klunzinger,  K. Koh,  D. Kosenkov,  
 L. Koulias,  T. Kowalczyk,  C. M. Krauter,  A. Kunitsa,  Ka Un Lao,  
 A. Laurent,  K. V. Lawler,  Joonho Lee,  D. Lefrancois,  S. Lehtola,  
 D. S. Levine,  Yi-Pei Li,  You-Sheng Lin,  Fenglai Liu,  E. Livshits,  
 A. Luenser,  P. Manohar,  E. Mansoor,  S. F. Manzer,  Shan-Ping Mao,  
 Yuezhi Mao,  N. Mardirossian,  A. V. Marenich,  T. Markovich,  
 L. A. Martinez-Martinez,  S. A. Maurer,  N. J. Mayhall,  S. C. McKenzie,  
 J.-M. Mewes,  A. F. Morrison,  J. W. Mullinax,  K. Nanda,  
 T. S. Nguyen-Beck,  R. Olivares-Amaya,  J. A. Parkhill,  T. M. Perrine,  
 F. Plasser,  S. Prager,  A. Prociuk,  E. Ramos,  D. R. Rehn,  F. Rob,  
 M. Schneider,  N. Sergueev,  S. M. Sharada,  S. Sharma,  D. W. Small,  
 T. Stauch,  T. Stein,  Yu-Chuan Su,  A. J. W. Thom,  A. Tkatchenko,  
 T. Tsuchimochi,  L. Vogt,  O. Vydrov,  M. A. Watson,  J. Wenzel,  
 M. de Wergifosse,  T. A. Wesolowski,  A. White,  J. Witte,  A. Yamada,  
 Jun Yang,  K. Yao,  S. Yeganeh,  S. R. Yost,  Zhi-Qiang You,  A. Zech,  
 Igor Ying Zhang,  Xing Zhang,  Yan Zhao,  Ying Zhu,  B. R. Brooks,  
 G. K. L. Chan,  C. J. Cramer,  M. S. Gordon,  W. J. Hehre,  A. Klamt,  
 M. W. Schmidt,  C. D. Sherrill,  D. G. Truhlar,  A. Aspuru-Guzik,  R. Baer,  
 A. T. Bell,  N. A. Besley,  Jeng-Da Chai,  R. A. DiStasio Jr.,  A. Dreuw,  
 B. D. Dunietz,  T. R. Furlani,  Chao-Ping Hsu,  Yousung Jung,  Jing Kong,  
 D. S. Lambrecht,  WanZhen Liang,  C. Ochsenfeld,  V. A. Rassolov,  
 L. V. Slipchenko,  J. E. Subotnik,  T. Van Voorhis,  J. M. Herbert,  
 A. I. Krylov,  P. M. W. Gill,  M. Head-Gordon

 Contributors to earlier versions of Q-Chem not listed above: 
 R. D. Adamson,  B. Austin,  J. Baker,  G. J. O. Beran,  K. Brandhorst,  
 S. T. Brown,  E. F. C. Byrd,  A. K. Chakraborty,  C.-L. Cheng,  
 Siu Hung Chien,  D. M. Chipman,  D. L. Crittenden,  H. Dachsel,  
 R. J. Doerksen,  A. D. Dutoi,  L. Fusti-Molnar,  W. A. Goddard III,  
 A. Golubeva-Zadorozhnaya,  S. R. Gwaltney,  G. Hawkins,  A. Heyden,  
 S. Hirata,  G. Kedziora,  F. J. Keil,  C. Kelley,  Jihan Kim,  R. A. King,  
 R. Z. Khaliullin,  P. P. Korambath,  W. Kurlancheek,  A. M. Lee,  M. S. Lee,  
 S. V. Levchenko,  Ching Yeh Lin,  D. Liotard,  R. C. Lochan,  I. Lotan,  
 P. E. Maslen,  N. Nair,  D. P. O'Neill,  D. Neuhauser,  E. Neuscamman,  
 C. M. Oana,  R. Olson,  B. Peters,  R. Peverati,  P. A. Pieniazek,  
 Y. M. Rhee,  J. Ritchie,  M. A. Rohrdanz,  E. Rosta,  N. J. Russ,  
 H. F. Schaefer III,  N. E. Schultz,  N. Shenvi,  A. C. Simmonett,  A. Sodt,  
 D. Stuck,  K. S. Thanthiriwatte,  V. Vanovschi,  Tao Wang,  A. Warshel,  
 C. F. Williams,  Q. Wu,  X. Xu,  W. Zhang

 Please cite Q-Chem as follows:
 Y. Shao et al., Mol. Phys. 113, 184-215 (2015)
 DOI: 10.1080/00268976.2014.952696

 Q-Chem 5.0.2 for Intel X86 EM64T Linux

 Parts of Q-Chem use Armadillo 5.200.1 (Boston Tea Smuggler).
 http://arma.sourceforge.net/

 Q-Chem begins on Sat Mar 21 01:58:05 2020  

Host: 
0

     Scratch files written to /scratch/leeping/1862940/qc-freq1.d//
 Dec517 15110_ 26548  26544 5633   
Processing $rem in /home/leeping/opt/qchem/5.0.2-openmp/config/preferences.
 MEM_STATIC 2000
 MEM_TOTAL  8000
 SYMMETRY   OFF
 SYM_IGNORE TRUE 
Symmetry turned off for PCM/SM12/SMD calculation

Checking the input file for inconsistencies... 	...done.

--------------------------------------------------------------
User input:
--------------------------------------------------------------
$molecule
-2 1
C       -0.3012746060    0.5995121361    1.5483982112
C       -0.4410339527    1.6509798415    0.4336929040
O       -0.6810149283    1.2313143831   -0.7278327793
O       -0.3337113321    2.8600721958    0.7689044956
C        0.5398261851   -0.5965458582    1.1565796783
H        0.1102132553    1.0678762933    2.4472061520
H        0.1422991374   -1.0492694578    0.2416793958
H        0.5208796633   -1.3480751603    1.9562640246
O        1.8846131757   -0.1494426256    0.9409840656
H       -1.3103832271    0.2447452833    1.7917090162
O       -3.0658781132   -1.2115479317   -0.4590016461
H       -2.3673627268   -0.5469333980   -0.4697453228
H        2.4080349278   -0.8998243895    0.6384877610
$end

$rem
jobtype               freq
method                wb97x-v
basis                 def2-tzvpd
symmetry              off
sym_ignore            true
incdft                false
incfock               0
!scf_algorithm        diis_gdm
scf_convergence       8
thresh                14
!purecart             112
max_scf_cycles        1000
geom_opt_max_cycles   500
geom_opt_dmax         100
geom_opt_tol_gradient 10
solvent_method        pcm
ideriv                1
rpath_tol_displacement 1000
rpath_max_cycles      100
rpath_direction       1
!scf_guess            read
scf_guess             read
$end

$pcm
theory              cosmo
method              iswig
Radii               bondi
vdwScale            1.20
hpoints             110
heavypoints         110
$end

$solvent
dielectric 78.400000
$end

--------------------------------------------------------------
 ----------------------------------------------------------------
             Standard Nuclear Orientation (Angstroms)
    I     Atom           X                Y                Z
 ----------------------------------------------------------------
    1      C      -0.3012746060     0.5995121361     1.5483982112
    2      C      -0.4410339527     1.6509798415     0.4336929040
    3      O      -0.6810149283     1.2313143831    -0.7278327793
    4      O      -0.3337113321     2.8600721958     0.7689044956
    5      C       0.5398261851    -0.5965458582     1.1565796783
    6      H       0.1102132553     1.0678762933     2.4472061520
    7      H       0.1422991374    -1.0492694578     0.2416793958
    8      H       0.5208796633    -1.3480751603     1.9562640246
    9      O       1.8846131757    -0.1494426256     0.9409840656
   10      H      -1.3103832271     0.2447452833     1.7917090162
   11      O      -3.0658781132    -1.2115479317    -0.4590016461
   12      H      -2.3673627268    -0.5469333980    -0.4697453228
   13      H       2.4080349278    -0.8998243895     0.6384877610
 ----------------------------------------------------------------
 Nuclear Repulsion Energy =   292.4515807106 hartrees
 There are       29 alpha and       29 beta electrons
 Requested basis set is def2-TZVPD
 There are 125 shells and 325 basis functions

 Total QAlloc Memory Limit   8000 MB
 Mega-Array Size      1956 MB
 MEM_STATIC part      2000 MB
 Discretize the solute cavity surface with Lebedev spheres
	Using 110 Lebedev grid points for each H atom
	Using 110 Lebedev grid points for other atoms
	Atomic van der Waals radii will be scaled by 1.20
 Remove points where switching function is < 1.0e-08
 Keep 866 surface tesserae and discard 564 interior tesserae
 Molecular Surface Area = 163.914 Angst**2

                       Distance Matrix (Angstroms)
             C (  1)   C (  2)   O (  3)   O (  4)   C (  5)   H (  6)
   C (  2)  1.538728
   O (  3)  2.392615  1.258114
   O (  4)  2.391400  1.259281  2.239128
   C (  5)  1.513779  2.556565  2.895261  3.586303
   H (  6)  1.093866  2.167514  3.276221  2.495142  2.149555
   H (  7)  2.150059  2.769204  2.611295  3.973349  1.095458  3.057398
   H (  8)  2.152995  3.498261  3.911800  4.455183  1.097566  2.499298
   O (  9)  2.389140  2.984544  3.357661  3.742693  1.433470  2.626607
   H ( 10)  1.096978  2.139503  2.778041  2.973206  2.129421  1.767856
   O ( 11)  3.866862  3.985069  3.424532  5.054758  3.998679  4.871281
   H ( 12)  3.107404  3.059047  2.464253  4.156643  3.331537  4.153866
   H ( 13)  3.227430  3.829587  3.993847  4.655212  1.962295  3.524669
             H (  7)   H (  8)   O (  9)   H ( 10)   O ( 11)   H ( 12)
   H (  8)  1.781126
   O (  9)  2.081916  2.080212
   H ( 10)  2.487439  2.432628  3.329733
   O ( 11)  3.287809  4.326312  5.253132  3.204411
   H ( 12)  2.656477  3.856072  4.497494  2.618804  0.964236
   H ( 13)  2.305070  2.344956  0.963612  4.057905  5.591545  4.914991

 
 A cutoff of  1.0D-14 yielded   7382 shell pairs
 There are     50228 function pairs (     63880 Cartesian)
 
 -------------------------------------------------------
 OpenMP Integral Computing Module                       
 Release: version 1.0, May 2013, Q-Chem Inc. Pittsburgh 
 -------------------------------------------------------
 Integral Job Info:
 Integral job number is                      11
 Integral operator is                         1
 short-range coefficients              16700000
 long-range coefficients              100000000
 Omega coefficients                         300
 if combine SR and LR in K                    1
 Integral screening is                        0
 Integral computing path is                   2
 max size of driver memory is            800000
 size of driver memory is                776718
 size of scratch memory is              4473992
 max col of scratch BK array              10000
 max len of scratch array in speh3          662
 max len of scratch index in speh4           32
 max int batch size is                      520
 min int batch size is                       52
 fixed nKL is                                52
 max L of basis functions is                  3
 order of int derivative is                   0
 number of shells is                        125
 number of basis is                         367
 number of cartesian basis is               367
 number of contracted shell pairs          7382
 number of primitive shell pairs          15259
 maxK2 (contraction) of shell pair           36
 max number of K2 of shell pair               1
 max number of CS2 of shell pair           1218
 max number of PS2 of shell pair           1710
 mem total for path MDJ                  648692
 -------------------------------------------------------
 Smallest overlap matrix eigenvalue = 7.14E-06
 Guess MOs from SCF MO coefficient file
 Reading MOs from coefficient file
 Reading MOs from coefficient file
 Long-range K will be added via erf
 Coulomb attenuation parameter = 0.3 bohr**(-1)
 A restricted hybrid HF-DFT SCF calculation will be
 performed using Pulay DIIS extrapolation
 Polarizable Continuum solvation model will be applied
 Exchange:     0.1670 Hartree-Fock + 1.0000 wB97X-V + LR-HF
 Correlation:  1.0000 wB97X-V
 Using SG-2 standard quadrature grid
 Nonlocal Correlation:  VV10 with C = 0.0100 and b = 6.00
 Grid used for NLC:  SG-1 standard quadrature
 SCF converges when DIIS error is below 1.0E-08
Using Q-Chem read-in guess as SCF_GUESS READ specified.

 using 16 threads for integral computing
 -------------------------------------------------------
 OpenMP Integral computing Module                
 Release: version 1.0, May 2013, Q-Chem Inc. Pittsburgh 
 -------------------------------------------------------
 using 16 threads for integral computing
 -------------------------------------------------------
 OpenMP Integral computing Module                
 Release: version 1.0, May 2013, Q-Chem Inc. Pittsburgh 
 -------------------------------------------------------
 -------------------------------------------------------
 OpenMP BLAS3 based DFT computing Module                
 Release: version 1.0, May 2013, Q-Chem Inc. Pittsburgh 
 -------------------------------------------------------
 -------------------------------------------------------
 OpenMP BLAS3 based DFT computing Module                
 Release: version 1.0, May 2013, Q-Chem Inc. Pittsburgh 
 -------------------------------------------------------
 -------------------------------------------------------
 OpenMP BLAS3 based DFT computing Module                
 Release: version 1.0, May 2013, Q-Chem Inc. Pittsburgh 
 -------------------------------------------------------
 ---------------------------------------
  Cycle       Energy         DIIS Error
 ---------------------------------------
    1    -418.7651452074      6.30E-04
    2    -419.1178974669      7.20E-04
    3    -419.1276072651      3.41E-04
    4    -419.1291975987      2.38E-04
    5    -419.1302250462      1.80E-04
    6    -419.1307824908      1.38E-04
    7    -419.1311563018      1.01E-04
    8    -419.1313375297      7.67E-05
    9    -419.1314498834      5.68E-05
   10    -419.1315210439      3.91E-05
   11    -419.1315440463      3.13E-05
   12    -419.1315625532      2.31E-05
   13    -419.1315710799      1.82E-05
   14    -419.1315761423      1.45E-05
   15    -419.1315802854      1.05E-05
   16    -419.1315823439      7.85E-06
   17    -419.1315849205      6.01E-09 Convergence criterion met
 ---------------------------------------

************** Final PCM Free Energy Summary **************
 G_electrostatic  =      -0.36644095 hartree =    -229.94516945 kcal/mol
 G_cavitation     =       0.00000000 hartree =       0.00000000 kcal/mol
 G_dispersion     =       0.00000000 hartree =       0.00000000 kcal/mol
 G_repulsion      =       0.00000000 hartree =       0.00000000 kcal/mol
 --------------------------------------------------
 Non-electrostatic Free Energy =       0.00000000 hartree =       0.00000000 kcal/mol
 Total                         =      -0.36644095 hartree =    -229.94516945 kcal/mol
 --------------------------------------------------
 SCF Energy (H0 + V/2)                       =    -419.13158492 
 Solute Internal Energy (H0)                 =    -418.76514397 
 Total Free Energy (H0 + V/2 + non-elec)     =    -419.13158492 hartree
                                             = -263009.03913287 kcal/mol
***********************************************************

 SCF time:  CPU 1432.11 s  wall 103.67 s
 SCF   energy in the final basis set = -419.13158492
 Total energy in the final basis set = -419.13158492
 
 --------------------------------------------------------------
 
                    Orbital Energies (a.u.)
 --------------------------------------------------------------
 
 Alpha MOs
 -- Occupied --
-19.207 -19.140 -19.139 -19.088 -10.341 -10.302 -10.249  -1.147
 -1.139  -1.049  -0.961  -0.879  -0.740  -0.627  -0.609  -0.564
 -0.530  -0.523  -0.505  -0.485  -0.450  -0.443  -0.435  -0.381
 -0.347  -0.335  -0.330  -0.309  -0.309
 -- Virtual --
  0.061   0.080   0.084   0.090   0.115   0.115   0.118   0.126
  0.130   0.145   0.154   0.161   0.167   0.172   0.177   0.177
  0.188   0.206   0.219   0.227   0.235   0.247   0.260   0.269
  0.277   0.280   0.298   0.303   0.306   0.318   0.333   0.337
  0.345   0.354   0.357   0.365   0.373   0.380   0.385   0.392
  0.396   0.404   0.407   0.420   0.426   0.438   0.447   0.450
  0.458   0.459   0.474   0.484   0.491   0.499   0.510   0.514
  0.518   0.527   0.537   0.542   0.557   0.561   0.566   0.571
  0.578   0.588   0.596   0.598   0.611   0.624   0.638   0.649
  0.664   0.669   0.673   0.679   0.684   0.699   0.706   0.718
  0.722   0.734   0.739   0.762   0.776   0.780   0.790   0.801
  0.811   0.814   0.823   0.832   0.843   0.846   0.859   0.865
  0.871   0.893   0.919   0.939   0.970   0.978   0.999   1.016
  1.027   1.048   1.053   1.060   1.087   1.101   1.128   1.135
  1.154   1.171   1.201   1.207   1.213   1.257   1.284   1.305
  1.314   1.334   1.341   1.376   1.385   1.401   1.435   1.487
  1.489   1.525   1.552   1.646   1.661   1.761   1.780   1.804
  1.829   1.860   1.886   1.894   1.912   1.922   1.937   1.951
  1.963   1.968   1.984   1.996   2.006   2.038   2.064   2.072
  2.128   2.138   2.165   2.180   2.215   2.240   2.259   2.276
  2.292   2.351   2.354   2.367   2.393   2.419   2.430   2.472
  2.476   2.502   2.528   2.576   2.640   2.657   2.701   2.712
  2.739   2.741   2.765   2.804   2.825   2.853   2.879   2.938
  2.944   2.997   3.020   3.046   3.057   3.104   3.120   3.146
  3.165   3.178   3.202   3.208   3.259   3.286   3.325   3.353
  3.380   3.386   3.421   3.439   3.457   3.499   3.527   3.542
  3.558   3.566   3.567   3.625   3.638   3.661   3.682   3.697
  3.722   3.750   3.766   3.804   3.812   3.854   3.959   4.084
  4.097   4.122   4.134   4.166   4.249   4.262   4.326   4.400
  4.569   4.659   4.705   4.770   4.836   4.872   4.900   5.049
  5.092   5.322   5.349   5.351   5.353   5.365   5.375   5.377
  5.378   5.408   5.503   5.531   5.601   5.672   5.680   5.712
  5.718   5.777   5.879   5.958   6.003   6.073   6.259   6.307
  6.336   6.444   6.488   6.619   6.623   6.630   6.647   6.696
  6.699   6.719   6.729   6.769   6.786   6.869   6.885   6.955
  6.989   7.062   7.224   7.287   7.296   7.370   7.372   7.401
  7.422  22.731  22.803  23.730  44.001  44.279  44.303  44.450
 --------------------------------------------------------------
 
          Ground-State Mulliken Net Atomic Charges

     Atom                 Charge (a.u.)
  ----------------------------------------
      1 C                     0.050296
      2 C                     0.136148
      3 O                    -0.687900
      4 O                    -0.719306
      5 C                    -0.304644
      6 H                     0.192249
      7 H                     0.175528
      8 H                     0.195693
      9 O                    -0.516826
     10 H                     0.190804
     11 O                    -1.126888
     12 H                     0.090250
     13 H                     0.324597
  ----------------------------------------
  Sum of atomic charges =    -2.000000

 -----------------------------------------------------------------
                    Cartesian Multipole Moments
 -----------------------------------------------------------------
    Charge (ESU x 10^10)
                -9.6064
    Dipole Moment (Debye)
         X      17.5658      Y      -6.1593      Z       3.0662
       Tot      18.8652
    Quadrupole Moments (Debye-Ang)
        XX    -100.2591     XY     -20.2809     YY     -85.0217
        XZ     -11.2584     YZ      -7.3400     ZZ     -53.7858
    Octopole Moments (Debye-Ang^2)
       XXX     240.7912    XXY      28.6070    XYY      66.2327
       YYY    -147.4082    XXZ      -1.1950    XYZ       6.5226
       YYZ     -33.2291    XZZ      28.7355    YZZ     -31.2381
       ZZZ     -66.0396
    Hexadecapole Moments (Debye-Ang^3)
      XXXX   -1261.3041   XXXY    -249.5701   XXYY    -307.6702
      XYYY     -39.7050   YYYY    -929.9102   XXXZ    -161.7228
      XXYZ     -50.9967   XYYZ     -31.4843   YYYZ    -117.1182
      XXZZ    -210.3169   XYZZ     -15.9264   YYZZ    -189.6323
      XZZZ     -85.2013   YZZZ     -59.7066   ZZZZ    -332.1112
 -----------------------------------------------------------------
 Calculating analytic gradient of the SCF energy
 Gradient of SCF Energy
            1           2           3           4           5           6
    1  -0.0394842  -0.0028395   0.0131743  -0.0079777  -0.0416281  -0.0287986
    2   0.0185817   0.0026920   0.0168176  -0.0659565  -0.0600372  -0.0249195
    3   0.0955096  -0.0724626   0.0641580  -0.0085515  -0.0149114  -0.0566506
            7           8           9          10          11          12
    1   0.0385066   0.0070345   0.0282791   0.0706470   0.0787751  -0.0836565
    2   0.0267783   0.0526464  -0.0196934   0.0251536   0.0684852  -0.0689993
    3   0.0610138  -0.0552429  -0.0168706  -0.0124092   0.0120261  -0.0114125
           13
    1  -0.0320320
    2   0.0284512
    3   0.0158037
 Max gradient component =       9.551E-02
 RMS gradient           =       4.519E-02
 Computing fast CPCM-ISWIG gradient
 Updating gradient with PCM contributions...
 -- total gradient after adding PCM contribution --
---------------------------------------------------
  Atom         X              Y              Z     
---------------------------------------------------
   1      -0.000016       0.000005       0.000006
   2      -0.000005      -0.000010      -0.000010
   3       0.000008       0.000015       0.000003
   4       0.000008       0.000008       0.000011
   5       0.000016      -0.000005      -0.000014
   6      -0.000004      -0.000005       0.000000
   7       0.000003       0.000001      -0.000002
   8      -0.000006      -0.000003      -0.000003
   9      -0.000004      -0.000012       0.000027
  10       0.000003      -0.000004       0.000000
  11      -0.000001       0.000007       0.000004
  12      -0.000003      -0.000005      -0.000001
  13       0.000001       0.000007      -0.000022
---------------------------------------------------
 Number of fixed atoms: 0
 Gradient time:  CPU 287.08 s  wall 21.33 s
 ######################################################
 ######################################################
 # Starting finite difference calculation for IDERIV  #
 Finite diff step size:  1.88973e-03 a.u.
 ----------------------------------------------------------------
             Standard Nuclear Orientation (Angstroms)
    I     Atom           X                Y                Z
 ----------------------------------------------------------------
    1      C      -0.3002746060     0.5995121361     1.5483982112
    2      C      -0.4410339527     1.6509798415     0.4336929040
    3      O      -0.6810149283     1.2313143831    -0.7278327793
    4      O      -0.3337113321     2.8600721958     0.7689044956
    5      C       0.5398261851    -0.5965458582     1.1565796783
    6      H       0.1102132553     1.0678762933     2.4472061520
    7      H       0.1422991374    -1.0492694578     0.2416793958
    8      H       0.5208796633    -1.3480751603     1.9562640246
    9      O       1.8846131757    -0.1494426256     0.9409840656
   10      H      -1.3103832271     0.2447452833     1.7917090162
   11      O      -3.0658781132    -1.2115479317    -0.4590016461
   12      H      -2.3673627268    -0.5469333980    -0.4697453228
   13      H       2.4080349278    -0.8998243895     0.6384877610
 ----------------------------------------------------------------
 Nuclear Repulsion Energy =   292.4565710641 hartrees
 There are       29 alpha and       29 beta electrons
 Discretize the solute cavity surface with Lebedev spheres
	Using 110 Lebedev grid points for each H atom
	Using 110 Lebedev grid points for other atoms
	Atomic van der Waals radii will be scaled by 1.20
 Remove points where switching function is < 1.0e-08
 Keep 866 surface tesserae and discard 564 interior tesserae
 Molecular Surface Area = 163.911 Angst**2

                       Distance Matrix (Angstroms)
             C (  1)   C (  2)   O (  3)   O (  4)   C (  5)   H (  6)
   C (  2)  1.538819
   O (  3)  2.392773  1.258114
   O (  4)  2.391414  1.259281  2.239128
   C (  5)  1.513224  2.556565  2.895261  3.586303
   H (  6)  1.093490  2.167514  3.276221  2.495142  2.149555
   H (  7)  2.149853  2.769204  2.611295  3.973349  1.095458  3.057398
   H (  8)  2.152614  3.498261  3.911800  4.455183  1.097566  2.499298
   O (  9)  2.388225  2.984544  3.357661  3.742693  1.433470  2.626607
   H ( 10)  1.097898  2.139503  2.778041  2.973206  2.129421  1.767856
   O ( 11)  3.867577  3.985069  3.424532  5.054758  3.998679  4.871281
   H ( 12)  3.108069  3.059047  2.464253  4.156643  3.331537  4.153866
   H ( 13)  3.226591  3.829587  3.993847  4.655212  1.962295  3.524669
             H (  7)   H (  8)   O (  9)   H ( 10)   O ( 11)   H ( 12)
   H (  8)  1.781126
   O (  9)  2.081916  2.080212
   H ( 10)  2.487439  2.432628  3.329733
   O ( 11)  3.287809  4.326312  5.253132  3.204411
   H ( 12)  2.656477  3.856072  4.497494  2.618804  0.964236
   H ( 13)  2.305070  2.344956  0.963612  4.057905  5.591545  4.914991

 
 Requested basis set is def2-TZVPD
 There are 125 shells and 325 basis functions
 A cutoff of  1.0D-14 yielded   7382 shell pairs
 There are     50228 function pairs (     63880 Cartesian)
 Smallest overlap matrix eigenvalue = 7.14E-06
 Guess MOs from SCF MO coefficient file
 Reading MOs from coefficient file
 Reading MOs from coefficient file
 Long-range K will be added via erf
 Coulomb attenuation parameter = 0.3 bohr**(-1)
 A restricted hybrid HF-DFT SCF calculation will be
 performed using Pulay DIIS extrapolation
 Polarizable Continuum solvation model will be applied
 Exchange:     0.1670 Hartree-Fock + 1.0000 wB97X-V + LR-HF
 Correlation:  1.0000 wB97X-V
 Using SG-2 standard quadrature grid
 Nonlocal Correlation:  VV10 with C = 0.0100 and b = 6.00
 Grid used for NLC:  SG-1 standard quadrature
 SCF converges when DIIS error is below 1.0E-08
Using Q-Chem read-in guess as SCF_GUESS READ specified.

 using 16 threads for integral computing
 -------------------------------------------------------
 OpenMP Integral computing Module                
 Release: version 1.0, May 2013, Q-Chem Inc. Pittsburgh 
 -------------------------------------------------------
 using 16 threads for integral computing
 -------------------------------------------------------
 OpenMP Integral computing Module                
 Release: version 1.0, May 2013, Q-Chem Inc. Pittsburgh 
 -------------------------------------------------------
 -------------------------------------------------------
 OpenMP BLAS3 based DFT computing Module                
 Release: version 1.0, May 2013, Q-Chem Inc. Pittsburgh 
 -------------------------------------------------------
 -------------------------------------------------------
 OpenMP BLAS3 based DFT computing Module                
 Release: version 1.0, May 2013, Q-Chem Inc. Pittsburgh 
 -------------------------------------------------------
 -------------------------------------------------------
 OpenMP BLAS3 based DFT computing Module                
 Release: version 1.0, May 2013, Q-Chem Inc. Pittsburgh 
 -------------------------------------------------------
 ---------------------------------------
  Cycle       Energy         DIIS Error
 ---------------------------------------
    1    -418.7651524414      6.31E-04
    2    -419.1178969752      7.20E-04
    3    -419.1276072327      3.41E-04
    4    -419.1291981174      2.38E-04
    5    -419.1302292853      1.79E-04
    6    -419.1307991566      1.36E-04
    7    -419.1311946270      9.62E-05
    8    -419.1313916785      6.77E-05
    9    -419.1315170722      4.00E-05
   10    -419.1315774343      1.26E-05
   11    -419.1315830697      4.68E-06
   12    -419.1315839427      8.53E-07
   13    -419.1315839709      1.93E-07
   14    -419.1315839724      3.59E-08
   15    -419.1315839724      1.41E-08
   16    -419.1315839724      3.38E-09 Convergence criterion met
 ---------------------------------------

************** Final PCM Free Energy Summary **************
 G_electrostatic  =      -0.36644401 hartree =    -229.94708635 kcal/mol
 G_cavitation     =       0.00000000 hartree =       0.00000000 kcal/mol
 G_dispersion     =       0.00000000 hartree =       0.00000000 kcal/mol
 G_repulsion      =       0.00000000 hartree =       0.00000000 kcal/mol
 --------------------------------------------------
 Non-electrostatic Free Energy =       0.00000000 hartree =       0.00000000 kcal/mol
 Total                         =      -0.36644401 hartree =    -229.94708635 kcal/mol
 --------------------------------------------------
 SCF Energy (H0 + V/2)                       =    -419.13158397 
 Solute Internal Energy (H0)                 =    -418.76513996 
 Total Free Energy (H0 + V/2 + non-elec)     =    -419.13158397 hartree
                                             = -263009.03853794 kcal/mol
***********************************************************

 SCF time:  CPU 1343.72 s  wall 97.26 s
 SCF   energy in the final basis set = -419.13158397
 Total energy in the final basis set = -419.13158397
 
 --------------------------------------------------------------
 
                    Orbital Energies (a.u.)
 --------------------------------------------------------------
 
 Alpha MOs
 -- Occupied --
-19.207 -19.140 -19.139 -19.088 -10.341 -10.301 -10.249  -1.147
 -1.139  -1.049  -0.961  -0.879  -0.740  -0.627  -0.609  -0.564
 -0.530  -0.523  -0.505  -0.485  -0.449  -0.443  -0.435  -0.381
 -0.347  -0.335  -0.330  -0.309  -0.309
 -- Virtual --
  0.061   0.080   0.084   0.090   0.115   0.115   0.118   0.126
  0.130   0.145   0.154   0.161   0.167   0.172   0.177   0.177
  0.188   0.206   0.219   0.227   0.235   0.246   0.260   0.269
  0.277   0.280   0.298   0.303   0.306   0.318   0.333   0.337
  0.345   0.354   0.357   0.365   0.373   0.380   0.385   0.392
  0.396   0.404   0.407   0.420   0.425   0.438   0.447   0.450
  0.459   0.459   0.474   0.484   0.491   0.499   0.510   0.514
  0.518   0.527   0.537   0.542   0.557   0.561   0.566   0.571
  0.578   0.588   0.596   0.598   0.611   0.624   0.638   0.649
  0.664   0.669   0.673   0.679   0.684   0.699   0.706   0.718
  0.722   0.734   0.739   0.762   0.776   0.780   0.790   0.801
  0.811   0.814   0.823   0.832   0.843   0.846   0.859   0.865
  0.871   0.893   0.919   0.939   0.970   0.978   0.999   1.016
  1.027   1.048   1.053   1.060   1.087   1.101   1.128   1.135
  1.154   1.171   1.201   1.207   1.213   1.257   1.284   1.305
  1.314   1.334   1.341   1.376   1.385   1.401   1.435   1.487
  1.489   1.525   1.552   1.646   1.661   1.761   1.780   1.804
  1.829   1.860   1.886   1.895   1.912   1.922   1.937   1.951
  1.963   1.968   1.984   1.996   2.005   2.038   2.064   2.072
  2.128   2.138   2.165   2.180   2.215   2.240   2.259   2.276
  2.292   2.351   2.354   2.367   2.393   2.419   2.430   2.472
  2.476   2.502   2.528   2.576   2.640   2.657   2.701   2.711
  2.739   2.741   2.765   2.804   2.825   2.853   2.878   2.938
  2.944   2.997   3.020   3.046   3.057   3.105   3.120   3.146
  3.165   3.178   3.201   3.208   3.259   3.286   3.325   3.353
  3.380   3.386   3.421   3.439   3.456   3.499   3.528   3.543
  3.558   3.566   3.567   3.625   3.638   3.661   3.682   3.697
  3.722   3.750   3.766   3.804   3.812   3.854   3.959   4.084
  4.098   4.122   4.134   4.166   4.249   4.262   4.326   4.400
  4.569   4.659   4.705   4.771   4.836   4.872   4.901   5.049
  5.092   5.322   5.349   5.351   5.353   5.365   5.375   5.377
  5.378   5.408   5.504   5.531   5.601   5.672   5.680   5.712
  5.718   5.777   5.879   5.958   6.003   6.073   6.259   6.307
  6.336   6.444   6.488   6.619   6.623   6.630   6.647   6.696
  6.699   6.719   6.729   6.769   6.786   6.870   6.885   6.955
  6.989   7.062   7.224   7.287   7.296   7.370   7.372   7.401
  7.422  22.731  22.803  23.730  44.001  44.280  44.303  44.450
 --------------------------------------------------------------
 
          Ground-State Mulliken Net Atomic Charges

     Atom                 Charge (a.u.)
  ----------------------------------------
      1 C                     0.050497
      2 C                     0.136007
      3 O                    -0.687901
      4 O                    -0.719323
      5 C                    -0.304389
      6 H                     0.192681
      7 H                     0.175551
      8 H                     0.195552
      9 O                    -0.516818
     10 H                     0.190251
     11 O                    -1.126898
     12 H                     0.090252
     13 H                     0.324539
  ----------------------------------------
  Sum of atomic charges =    -2.000000

 -----------------------------------------------------------------
                    Cartesian Multipole Moments
 -----------------------------------------------------------------
    Charge (ESU x 10^10)
                -9.6064
    Dipole Moment (Debye)
         X      17.5664      Y      -6.1592      Z       3.0664
       Tot      18.8657
    Quadrupole Moments (Debye-Ang)
        XX    -100.2627     XY     -20.2800     YY     -85.0209
        XZ     -11.2577     YZ      -7.3388     ZZ     -53.7836
    Octopole Moments (Debye-Ang^2)
       XXX     240.7779    XXY      28.6069    XYY      66.2315
       YYY    -147.4099    XXZ      -1.1991    XYZ       6.5214
       YYZ     -33.2280    XZZ      28.7334    YZZ     -31.2330
       ZZZ     -66.0324
    Hexadecapole Moments (Debye-Ang^3)
      XXXX   -1261.3109   XXXY    -249.5711   XXYY    -307.6733
      XYYY     -39.7020   YYYY    -929.9103   XXXZ    -161.7400
      XXYZ     -50.9953   XYYZ     -31.4914   YYYZ    -117.1178
      XXZZ    -210.3225   XYZZ     -15.9314   YYZZ    -189.6241
      XZZZ     -85.2172   YZZZ     -59.6917   ZZZZ    -332.0803
 -----------------------------------------------------------------
 Calculating analytic gradient of the SCF energy
 Gradient of SCF Energy
            1           2           3           4           5           6
    1  -0.0385375  -0.0029898   0.0132019  -0.0079489  -0.0418187  -0.0288841
    2   0.0187013   0.0027250   0.0168156  -0.0659537  -0.0598647  -0.0250192
    3   0.0955860  -0.0725170   0.0641451  -0.0085588  -0.0148921  -0.0568495
            7           8           9          10          11          12
    1   0.0385135   0.0070395   0.0282469   0.0700982   0.0787768  -0.0836579
    2   0.0267291   0.0526504  -0.0196593   0.0249459   0.0684906  -0.0690067
    3   0.0609828  -0.0552207  -0.0168646  -0.0122375   0.0120292  -0.0114123
           13
    1  -0.0320400
    2   0.0284457
    3   0.0158093
 Max gradient component =       9.559E-02
 RMS gradient           =       4.515E-02
 Computing fast CPCM-ISWIG gradient
 Updating gradient with PCM contributions...
 -- total gradient after adding PCM contribution --
---------------------------------------------------
  Atom         X              Y              Z     
---------------------------------------------------
   1       0.001019       0.000077       0.000048
   2      -0.000185       0.000006      -0.000011
   3       0.000043       0.000022      -0.000023
   4       0.000054       0.000003       0.000003
   5      -0.000184       0.000099       0.000006
   6      -0.000169      -0.000086      -0.000157
   7       0.000018      -0.000013      -0.000006
   8      -0.000007       0.000004      -0.000001
   9      -0.000073       0.000046       0.000055
  10      -0.000501      -0.000164       0.000105
  11      -0.000001       0.000007       0.000004
  12      -0.000003      -0.000005      -0.000001
  13      -0.000012       0.000005      -0.000020
---------------------------------------------------
 Number of fixed atoms: 0
 Gradient time:  CPU 286.16 s  wall 21.16 s
 ----------------------------------------------------------------
             Standard Nuclear Orientation (Angstroms)
    I     Atom           X                Y                Z
 ----------------------------------------------------------------
    1      C      -0.3022746060     0.5995121361     1.5483982112
    2      C      -0.4410339527     1.6509798415     0.4336929040
    3      O      -0.6810149283     1.2313143831    -0.7278327793
    4      O      -0.3337113321     2.8600721958     0.7689044956
    5      C       0.5398261851    -0.5965458582     1.1565796783
    6      H       0.1102132553     1.0678762933     2.4472061520
    7      H       0.1422991374    -1.0492694578     0.2416793958
    8      H       0.5208796633    -1.3480751603     1.9562640246
    9      O       1.8846131757    -0.1494426256     0.9409840656
   10      H      -1.3103832271     0.2447452833     1.7917090162
   11      O      -3.0658781132    -1.2115479317    -0.4590016461
   12      H      -2.3673627268    -0.5469333980    -0.4697453228
   13      H       2.4080349278    -0.8998243895     0.6384877610
 ----------------------------------------------------------------
 Nuclear Repulsion Energy =   292.4465863177 hartrees
 There are       29 alpha and       29 beta electrons
 Discretize the solute cavity surface with Lebedev spheres
	Using 110 Lebedev grid points for each H atom
	Using 110 Lebedev grid points for other atoms
	Atomic van der Waals radii will be scaled by 1.20
 Remove points where switching function is < 1.0e-08
 Keep 866 surface tesserae and discard 564 interior tesserae
 Molecular Surface Area = 163.918 Angst**2

                       Distance Matrix (Angstroms)
             C (  1)   C (  2)   O (  3)   O (  4)   C (  5)   H (  6)
   C (  2)  1.538638
   O (  3)  2.392456  1.258114
   O (  4)  2.391387  1.259281  2.239128
   C (  5)  1.514335  2.556565  2.895261  3.586303
   H (  6)  1.094243  2.167514  3.276221  2.495142  2.149555
   H (  7)  2.150265  2.769204  2.611295  3.973349  1.095458  3.057398
   H (  8)  2.153377  3.498261  3.911800  4.455183  1.097566  2.499298
   O (  9)  2.390055  2.984544  3.357661  3.742693  1.433470  2.626607
   H ( 10)  1.096058  2.139503  2.778041  2.973206  2.129421  1.767856
   O ( 11)  3.866148  3.985069  3.424532  5.054758  3.998679  4.871281
   H ( 12)  3.106739  3.059047  2.464253  4.156643  3.331537  4.153866
   H ( 13)  3.228270  3.829587  3.993847  4.655212  1.962295  3.524669
             H (  7)   H (  8)   O (  9)   H ( 10)   O ( 11)   H ( 12)
   H (  8)  1.781126
   O (  9)  2.081916  2.080212
   H ( 10)  2.487439  2.432628  3.329733
   O ( 11)  3.287809  4.326312  5.253132  3.204411
   H ( 12)  2.656477  3.856072  4.497494  2.618804  0.964236
   H ( 13)  2.305070  2.344956  0.963612  4.057905  5.591545  4.914991

 
 Requested basis set is def2-TZVPD
 There are 125 shells and 325 basis functions
 A cutoff of  1.0D-14 yielded   7382 shell pairs
 There are     50228 function pairs (     63880 Cartesian)
 Smallest overlap matrix eigenvalue = 7.14E-06
 Guess MOs from SCF MO coefficient file
 Reading MOs from coefficient file
 Reading MOs from coefficient file
 Long-range K will be added via erf
 Coulomb attenuation parameter = 0.3 bohr**(-1)
 A restricted hybrid HF-DFT SCF calculation will be
 performed using Pulay DIIS extrapolation
 Polarizable Continuum solvation model will be applied
 Exchange:     0.1670 Hartree-Fock + 1.0000 wB97X-V + LR-HF
 Correlation:  1.0000 wB97X-V
 Using SG-2 standard quadrature grid
 Nonlocal Correlation:  VV10 with C = 0.0100 and b = 6.00
 Grid used for NLC:  SG-1 standard quadrature
 SCF converges when DIIS error is below 1.0E-08
Using Q-Chem read-in guess as SCF_GUESS READ specified.

 using 16 threads for integral computing
 -------------------------------------------------------
 OpenMP Integral computing Module                
 Release: version 1.0, May 2013, Q-Chem Inc. Pittsburgh 
 -------------------------------------------------------
 using 16 threads for integral computing
 -------------------------------------------------------
 OpenMP Integral computing Module                
 Release: version 1.0, May 2013, Q-Chem Inc. Pittsburgh 
 -------------------------------------------------------
 -------------------------------------------------------
 OpenMP BLAS3 based DFT computing Module                
 Release: version 1.0, May 2013, Q-Chem Inc. Pittsburgh 
 -------------------------------------------------------
 -------------------------------------------------------
 OpenMP BLAS3 based DFT computing Module                
 Release: version 1.0, May 2013, Q-Chem Inc. Pittsburgh 
 -------------------------------------------------------
 -------------------------------------------------------
 OpenMP BLAS3 based DFT computing Module                
 Release: version 1.0, May 2013, Q-Chem Inc. Pittsburgh 
 -------------------------------------------------------
 ---------------------------------------
  Cycle       Energy         DIIS Error
 ---------------------------------------
    1    -418.7651242313      6.32E-04
    2    -419.1178947974      7.20E-04
    3    -419.1276124455      3.41E-04
    4    -419.1292057035      2.38E-04
    5    -419.1302548286      1.78E-04
    6    -419.1308625686      1.31E-04
    7    -419.1312911511      8.34E-05
    8    -419.1314838532      4.88E-05
    9    -419.1315692023      1.88E-05
   10    -419.1315836383      2.62E-06
   11    -419.1315838954      6.54E-07
   12    -419.1315839116      8.59E-08
   13    -419.1315839118      1.93E-08
   14    -419.1315839118      6.41E-09 Convergence criterion met
 ---------------------------------------

************** Final PCM Free Energy Summary **************
 G_electrostatic  =      -0.36643786 hartree =    -229.94322811 kcal/mol
 G_cavitation     =       0.00000000 hartree =       0.00000000 kcal/mol
 G_dispersion     =       0.00000000 hartree =       0.00000000 kcal/mol
 G_repulsion      =       0.00000000 hartree =       0.00000000 kcal/mol
 --------------------------------------------------
 Non-electrostatic Free Energy =       0.00000000 hartree =       0.00000000 kcal/mol
 Total                         =      -0.36643786 hartree =    -229.94322811 kcal/mol
 --------------------------------------------------
 SCF Energy (H0 + V/2)                       =    -419.13158391 
 Solute Internal Energy (H0)                 =    -418.76514605 
 Total Free Energy (H0 + V/2 + non-elec)     =    -419.13158391 hartree
                                             = -263009.03849989 kcal/mol
***********************************************************

 SCF time:  CPU 1182.62 s  wall 85.40 s
 SCF   energy in the final basis set = -419.13158391
 Total energy in the final basis set = -419.13158391
 
 --------------------------------------------------------------
 
                    Orbital Energies (a.u.)
 --------------------------------------------------------------
 
 Alpha MOs
 -- Occupied --
-19.207 -19.140 -19.139 -19.088 -10.341 -10.302 -10.249  -1.147
 -1.139  -1.049  -0.961  -0.879  -0.740  -0.627  -0.609  -0.564
 -0.530  -0.523  -0.505  -0.485  -0.450  -0.443  -0.435  -0.381
 -0.347  -0.335  -0.330  -0.309  -0.309
 -- Virtual --
  0.061   0.080   0.084   0.090   0.115   0.115   0.118   0.126
  0.130   0.145   0.154   0.161   0.167   0.172   0.177   0.177
  0.188   0.206   0.219   0.227   0.235   0.247   0.260   0.269
  0.277   0.280   0.298   0.303   0.306   0.318   0.333   0.337
  0.345   0.354   0.357   0.365   0.373   0.380   0.385   0.392
  0.396   0.404   0.407   0.420   0.426   0.438   0.447   0.450
  0.458   0.459   0.474   0.484   0.491   0.499   0.510   0.514
  0.518   0.527   0.537   0.542   0.557   0.561   0.566   0.571
  0.578   0.588   0.596   0.598   0.611   0.624   0.638   0.649
  0.664   0.669   0.673   0.679   0.684   0.699   0.706   0.718
  0.722   0.734   0.739   0.762   0.776   0.780   0.790   0.801
  0.811   0.814   0.823   0.832   0.843   0.846   0.859   0.865
  0.871   0.893   0.919   0.939   0.970   0.978   0.999   1.016
  1.027   1.048   1.053   1.060   1.087   1.101   1.128   1.135
  1.154   1.171   1.201   1.207   1.213   1.257   1.284   1.305
  1.314   1.333   1.341   1.375   1.385   1.401   1.435   1.487
  1.489   1.525   1.551   1.646   1.661   1.761   1.780   1.804
  1.829   1.860   1.886   1.894   1.912   1.922   1.937   1.950
  1.963   1.968   1.984   1.996   2.006   2.038   2.064   2.072
  2.128   2.138   2.165   2.181   2.215   2.240   2.259   2.276
  2.292   2.351   2.354   2.367   2.393   2.419   2.430   2.472
  2.476   2.501   2.528   2.575   2.640   2.657   2.701   2.712
  2.739   2.741   2.765   2.804   2.825   2.853   2.879   2.938
  2.944   2.997   3.020   3.046   3.057   3.104   3.120   3.146
  3.165   3.178   3.202   3.208   3.259   3.286   3.326   3.353
  3.379   3.386   3.421   3.439   3.457   3.499   3.527   3.542
  3.558   3.566   3.567   3.625   3.637   3.661   3.682   3.697
  3.722   3.750   3.766   3.804   3.812   3.854   3.959   4.084
  4.097   4.122   4.134   4.166   4.249   4.262   4.325   4.400
  4.569   4.658   4.706   4.770   4.836   4.872   4.900   5.049
  5.092   5.322   5.349   5.351   5.353   5.365   5.375   5.377
  5.378   5.408   5.503   5.531   5.601   5.672   5.680   5.712
  5.718   5.777   5.879   5.957   6.003   6.073   6.259   6.307
  6.336   6.444   6.488   6.619   6.623   6.630   6.647   6.696
  6.699   6.719   6.729   6.768   6.786   6.869   6.885   6.955
  6.989   7.062   7.224   7.287   7.296   7.370   7.372   7.401
  7.422  22.730  22.803  23.730  44.001  44.279  44.303  44.450
 --------------------------------------------------------------
 
          Ground-State Mulliken Net Atomic Charges

     Atom                 Charge (a.u.)
  ----------------------------------------
      1 C                     0.050079
      2 C                     0.136291
      3 O                    -0.687897
      4 O                    -0.719289
      5 C                    -0.304894
      6 H                     0.191818
      7 H                     0.175506
      8 H                     0.195834
      9 O                    -0.516834
     10 H                     0.191362
     11 O                    -1.126878
     12 H                     0.090247
     13 H                     0.324655
  ----------------------------------------
  Sum of atomic charges =    -2.000000

 -----------------------------------------------------------------
                    Cartesian Multipole Moments
 -----------------------------------------------------------------
    Charge (ESU x 10^10)
                -9.6064
    Dipole Moment (Debye)
         X      17.5652      Y      -6.1595      Z       3.0660
       Tot      18.8646
    Quadrupole Moments (Debye-Ang)
        XX    -100.2556     XY     -20.2818     YY     -85.0225
        XZ     -11.2591     YZ      -7.3412     ZZ     -53.7880
    Octopole Moments (Debye-Ang^2)
       XXX     240.8045    XXY      28.6071    XYY      66.2339
       YYY    -147.4066    XXZ      -1.1910    XYZ       6.5237
       YYZ     -33.2303    XZZ      28.7377    YZZ     -31.2432
       ZZZ     -66.0469
    Hexadecapole Moments (Debye-Ang^3)
      XXXX   -1261.2980   XXXY    -249.5690   XXYY    -307.6671
      XYYY     -39.7079   YYYY    -929.9100   XXXZ    -161.7055
      XXYZ     -50.9980   XYYZ     -31.4771   YYYZ    -117.1185
      XXZZ    -210.3113   XYZZ     -15.9213   YYZZ    -189.6405
      XZZZ     -85.1853   YZZZ     -59.7215   ZZZZ    -332.1422
 -----------------------------------------------------------------
 Calculating analytic gradient of the SCF energy
 Gradient of SCF Energy
            1           2           3           4           5           6
    1  -0.0404327  -0.0026893   0.0131466  -0.0080063  -0.0414379  -0.0287129
    2   0.0184596   0.0026599   0.0168195  -0.0659593  -0.0602091  -0.0248200
    3   0.0954343  -0.0724086   0.0641709  -0.0085443  -0.0149301  -0.0564519
            7           8           9          10          11          12
    1   0.0384996   0.0070295   0.0283113   0.0711979   0.0787732  -0.0836550
    2   0.0268273   0.0526424  -0.0197275   0.0253624   0.0684801  -0.0689920
    3   0.0610447  -0.0552651  -0.0168766  -0.0125818   0.0120230  -0.0114126
           13
    1  -0.0320241
    2   0.0284567
    3   0.0157982
 Max gradient component =       9.543E-02
 RMS gradient           =       4.522E-02
 Computing fast CPCM-ISWIG gradient
 Updating gradient with PCM contributions...
 -- total gradient after adding PCM contribution --
---------------------------------------------------
  Atom         X              Y              Z     
---------------------------------------------------
   1      -0.001052      -0.000069      -0.000034
   2       0.000175      -0.000026      -0.000009
   3      -0.000028       0.000008       0.000029
   4      -0.000038       0.000013       0.000020
   5       0.000216      -0.000107      -0.000033
   6       0.000160       0.000075       0.000158
   7      -0.000012       0.000016       0.000003
   8      -0.000005      -0.000009      -0.000006
   9       0.000065      -0.000070      -0.000002
  10       0.000510       0.000156      -0.000106
  11      -0.000001       0.000007       0.000004
  12      -0.000003      -0.000004      -0.000001
  13       0.000013       0.000010      -0.000024
---------------------------------------------------
 Number of fixed atoms: 0
 Gradient time:  CPU 289.57 s  wall 21.32 s
 ----------------------------------------------------------------
             Standard Nuclear Orientation (Angstroms)
    I     Atom           X                Y                Z
 ----------------------------------------------------------------
    1      C      -0.3012746060     0.6005121361     1.5483982112
    2      C      -0.4410339527     1.6509798415     0.4336929040
    3      O      -0.6810149283     1.2313143831    -0.7278327793
    4      O      -0.3337113321     2.8600721958     0.7689044956
    5      C       0.5398261851    -0.5965458582     1.1565796783
    6      H       0.1102132553     1.0678762933     2.4472061520
    7      H       0.1422991374    -1.0492694578     0.2416793958
    8      H       0.5208796633    -1.3480751603     1.9562640246
    9      O       1.8846131757    -0.1494426256     0.9409840656
   10      H      -1.3103832271     0.2447452833     1.7917090162
   11      O      -3.0658781132    -1.2115479317    -0.4590016461
   12      H      -2.3673627268    -0.5469333980    -0.4697453228
   13      H       2.4080349278    -0.8998243895     0.6384877610
 ----------------------------------------------------------------
 Nuclear Repulsion Energy =   292.4525660400 hartrees
 There are       29 alpha and       29 beta electrons
 Discretize the solute cavity surface with Lebedev spheres
	Using 110 Lebedev grid points for each H atom
	Using 110 Lebedev grid points for other atoms
	Atomic van der Waals radii will be scaled by 1.20
 Remove points where switching function is < 1.0e-08
 Keep 866 surface tesserae and discard 564 interior tesserae
 Molecular Surface Area = 163.918 Angst**2

                       Distance Matrix (Angstroms)
             C (  1)   C (  2)   O (  3)   O (  4)   C (  5)   H (  6)
   C (  2)  1.538045
   O (  3)  2.392351  1.258114
   O (  4)  2.390455  1.259281  2.239128
   C (  5)  1.514569  2.556565  2.895261  3.586303
   H (  6)  1.093438  2.167514  3.276221  2.495142  2.149555
   H (  7)  2.150826  2.769204  2.611295  3.973349  1.095458  3.057398
   H (  8)  2.153900  3.498261  3.911800  4.455183  1.097566  2.499298
   O (  9)  2.389454  2.984544  3.357661  3.742693  1.433470  2.626607
   H ( 10)  1.097301  2.139503  2.778041  2.973206  2.129421  1.767856
   O ( 11)  3.867331  3.985069  3.424532  5.054758  3.998679  4.871281
   H ( 12)  3.107773  3.059047  2.464253  4.156643  3.331537  4.153866
   H ( 13)  3.227895  3.829587  3.993847  4.655212  1.962295  3.524669
             H (  7)   H (  8)   O (  9)   H ( 10)   O ( 11)   H ( 12)
   H (  8)  1.781126
   O (  9)  2.081916  2.080212
   H ( 10)  2.487439  2.432628  3.329733
   O ( 11)  3.287809  4.326312  5.253132  3.204411
   H ( 12)  2.656477  3.856072  4.497494  2.618804  0.964236
   H ( 13)  2.305070  2.344956  0.963612  4.057905  5.591545  4.914991

 
 Requested basis set is def2-TZVPD
 There are 125 shells and 325 basis functions
 A cutoff of  1.0D-14 yielded   7382 shell pairs
 There are     50228 function pairs (     63880 Cartesian)
 Smallest overlap matrix eigenvalue = 7.14E-06
 Guess MOs from SCF MO coefficient file
 Reading MOs from coefficient file
 Reading MOs from coefficient file
 Long-range K will be added via erf
 Coulomb attenuation parameter = 0.3 bohr**(-1)
 A restricted hybrid HF-DFT SCF calculation will be
 performed using Pulay DIIS extrapolation
 Polarizable Continuum solvation model will be applied
 Exchange:     0.1670 Hartree-Fock + 1.0000 wB97X-V + LR-HF
 Correlation:  1.0000 wB97X-V
 Using SG-2 standard quadrature grid
 Nonlocal Correlation:  VV10 with C = 0.0100 and b = 6.00
 Grid used for NLC:  SG-1 standard quadrature
 SCF converges when DIIS error is below 1.0E-08
Using Q-Chem read-in guess as SCF_GUESS READ specified.

 using 16 threads for integral computing
 -------------------------------------------------------
 OpenMP Integral computing Module                
 Release: version 1.0, May 2013, Q-Chem Inc. Pittsburgh 
 -------------------------------------------------------
 using 16 threads for integral computing
 -------------------------------------------------------
 OpenMP Integral computing Module                
 Release: version 1.0, May 2013, Q-Chem Inc. Pittsburgh 
 -------------------------------------------------------
 -------------------------------------------------------
 OpenMP BLAS3 based DFT computing Module                
 Release: version 1.0, May 2013, Q-Chem Inc. Pittsburgh 
 -------------------------------------------------------
 -------------------------------------------------------
 OpenMP BLAS3 based DFT computing Module                
 Release: version 1.0, May 2013, Q-Chem Inc. Pittsburgh 
 -------------------------------------------------------
 -------------------------------------------------------
 OpenMP BLAS3 based DFT computing Module                
 Release: version 1.0, May 2013, Q-Chem Inc. Pittsburgh 
 -------------------------------------------------------
 ---------------------------------------
  Cycle       Energy         DIIS Error
 ---------------------------------------
    1    -418.7649967369      6.31E-04
    2    -419.1179003655      7.20E-04
    3    -419.1276093214      3.41E-04
    4    -419.1292001911      2.38E-04
    5    -419.1302344622      1.79E-04
    6    -419.1308166196      1.35E-04
    7    -419.1312276414      9.20E-05
    8    -419.1314293743      6.07E-05
    9    -419.1315452659      3.05E-05
   10    -419.1315822094      6.60E-06
   11    -419.1315838223      2.07E-06
   12    -419.1315839923      3.41E-07
   13    -419.1315839967      7.13E-08
   14    -419.1315839969      1.23E-08
   15    -419.1315839969      8.82E-09 Convergence criterion met
 ---------------------------------------

************** Final PCM Free Energy Summary **************
 G_electrostatic  =      -0.36644983 hartree =    -229.95073788 kcal/mol
 G_cavitation     =       0.00000000 hartree =       0.00000000 kcal/mol
 G_dispersion     =       0.00000000 hartree =       0.00000000 kcal/mol
 G_repulsion      =       0.00000000 hartree =       0.00000000 kcal/mol
 --------------------------------------------------
 Non-electrostatic Free Energy =       0.00000000 hartree =       0.00000000 kcal/mol
 Total                         =      -0.36644983 hartree =    -229.95073788 kcal/mol
 --------------------------------------------------
 SCF Energy (H0 + V/2)                       =    -419.13158400 
 Solute Internal Energy (H0)                 =    -418.76513417 
 Total Free Energy (H0 + V/2 + non-elec)     =    -419.13158400 hartree
                                             = -263009.03855330 kcal/mol
***********************************************************

 SCF time:  CPU 1261.71 s  wall 91.36 s
 SCF   energy in the final basis set = -419.13158400
 Total energy in the final basis set = -419.13158400
 
 --------------------------------------------------------------
 
                    Orbital Energies (a.u.)
 --------------------------------------------------------------
 
 Alpha MOs
 -- Occupied --
-19.207 -19.140 -19.139 -19.088 -10.341 -10.302 -10.249  -1.147
 -1.139  -1.049  -0.961  -0.879  -0.740  -0.627  -0.609  -0.564
 -0.530  -0.523  -0.505  -0.485  -0.449  -0.443  -0.435  -0.381
 -0.347  -0.335  -0.330  -0.309  -0.309
 -- Virtual --
  0.061   0.080   0.084   0.090   0.115   0.115   0.118   0.126
  0.130   0.145   0.154   0.161   0.167   0.172   0.177   0.177
  0.188   0.206   0.219   0.227   0.235   0.247   0.260   0.269
  0.277   0.280   0.298   0.303   0.306   0.318   0.333   0.337
  0.345   0.354   0.357   0.365   0.373   0.380   0.385   0.392
  0.396   0.404   0.407   0.420   0.426   0.438   0.447   0.450
  0.458   0.459   0.474   0.484   0.491   0.499   0.510   0.514
  0.518   0.527   0.537   0.542   0.557   0.561   0.566   0.571
  0.578   0.588   0.596   0.598   0.611   0.624   0.638   0.649
  0.664   0.669   0.673   0.679   0.684   0.699   0.706   0.718
  0.722   0.734   0.739   0.762   0.776   0.780   0.790   0.801
  0.811   0.814   0.823   0.832   0.843   0.846   0.859   0.865
  0.871   0.893   0.919   0.939   0.970   0.978   0.999   1.016
  1.027   1.048   1.053   1.060   1.087   1.101   1.128   1.135
  1.154   1.171   1.201   1.207   1.213   1.257   1.284   1.305
  1.314   1.333   1.341   1.376   1.385   1.401   1.435   1.487
  1.489   1.525   1.552   1.646   1.661   1.761   1.780   1.804
  1.829   1.860   1.886   1.894   1.912   1.923   1.937   1.951
  1.963   1.968   1.984   1.996   2.005   2.038   2.064   2.072
  2.128   2.138   2.165   2.180   2.215   2.240   2.259   2.276
  2.292   2.351   2.354   2.367   2.393   2.419   2.430   2.472
  2.476   2.502   2.528   2.576   2.640   2.657   2.701   2.711
  2.739   2.741   2.765   2.804   2.825   2.853   2.879   2.938
  2.944   2.997   3.020   3.046   3.057   3.104   3.120   3.146
  3.165   3.178   3.201   3.208   3.259   3.286   3.325   3.353
  3.380   3.386   3.421   3.440   3.457   3.499   3.527   3.543
  3.558   3.566   3.567   3.625   3.638   3.661   3.682   3.697
  3.722   3.750   3.766   3.804   3.812   3.853   3.959   4.084
  4.097   4.122   4.134   4.166   4.249   4.262   4.326   4.401
  4.569   4.658   4.705   4.771   4.836   4.872   4.900   5.049
  5.092   5.322   5.349   5.351   5.353   5.365   5.375   5.377
  5.378   5.408   5.504   5.531   5.601   5.672   5.680   5.712
  5.718   5.777   5.879   5.957   6.003   6.073   6.259   6.307
  6.336   6.444   6.488   6.619   6.623   6.630   6.647   6.696
  6.699   6.719   6.729   6.769   6.786   6.869   6.885   6.956
  6.989   7.062   7.224   7.287   7.296   7.370   7.372   7.401
  7.422  22.730  22.803  23.731  44.001  44.279  44.303  44.451
 --------------------------------------------------------------
 
          Ground-State Mulliken Net Atomic Charges

     Atom                 Charge (a.u.)
  ----------------------------------------
      1 C                     0.050923
      2 C                     0.135908
      3 O                    -0.687940
      4 O                    -0.719331
      5 C                    -0.305134
      6 H                     0.192527
      7 H                     0.175674
      8 H                     0.195854
      9 O                    -0.516812
     10 H                     0.190413
     11 O                    -1.126889
     12 H                     0.090245
     13 H                     0.324564
  ----------------------------------------
  Sum of atomic charges =    -2.000000

 -----------------------------------------------------------------
                    Cartesian Multipole Moments
 -----------------------------------------------------------------
    Charge (ESU x 10^10)
                -9.6064
    Dipole Moment (Debye)
         X      17.5664      Y      -6.1604      Z       3.0672
       Tot      18.8663
    Quadrupole Moments (Debye-Ang)
        XX    -100.2606     XY     -20.2798     YY     -85.0250
        XZ     -11.2568     YZ      -7.3399     ZZ     -53.7818
    Octopole Moments (Debye-Ang^2)
       XXX     240.7918    XXY      28.6012    XYY      66.2354
       YYY    -147.4398    XXZ      -1.1969    XYZ       6.5242
       YYZ     -33.2287    XZZ      28.7392    YZZ     -31.2411
       ZZZ     -66.0258
    Hexadecapole Moments (Debye-Ang^3)
      XXXX   -1261.3163   XXXY    -249.5603   XXYY    -307.6785
      XYYY     -39.6949   YYYY    -930.0043   XXXZ    -161.7168
      XXYZ     -51.0056   XYYZ     -31.4807   YYYZ    -117.1458
      XXZZ    -210.3191   XYZZ     -15.9211   YYZZ    -189.6354
      XZZZ     -85.1904   YZZZ     -59.7209   ZZZZ    -332.0586
 -----------------------------------------------------------------
 Calculating analytic gradient of the SCF energy
 Gradient of SCF Energy
            1           2           3           4           5           6
    1  -0.0393015  -0.0028061   0.0131727  -0.0079833  -0.0415617  -0.0289060
    2   0.0192488   0.0024488   0.0168472  -0.0659929  -0.0603669  -0.0250153
    3   0.0956076  -0.0724162   0.0641570  -0.0085131  -0.0148678  -0.0568956
            7           8           9          10          11          12
    1   0.0385215   0.0070360   0.0282920   0.0704514   0.0787758  -0.0836576
    2   0.0267681   0.0526433  -0.0196796   0.0251593   0.0684887  -0.0690023
    3   0.0610135  -0.0552660  -0.0168699  -0.0123632   0.0120247  -0.0114095
           13
    1  -0.0320331
    2   0.0284529
    3   0.0157986
 Max gradient component =       9.561E-02
 RMS gradient           =       4.521E-02
 Computing fast CPCM-ISWIG gradient
 Updating gradient with PCM contributions...
 -- total gradient after adding PCM contribution --
---------------------------------------------------
  Atom         X              Y              Z     
---------------------------------------------------
   1       0.000058       0.000972       0.000107
   2       0.000007      -0.000218       0.000064
   3       0.000007       0.000033      -0.000006
   4       0.000007      -0.000088       0.000058
   5       0.000139      -0.000332      -0.000071
   6      -0.000085      -0.000188      -0.000172
   7       0.000017      -0.000019      -0.000011
   8       0.000018      -0.000037      -0.000020
   9      -0.000017       0.000011       0.000033
  10      -0.000143      -0.000143       0.000035
  11      -0.000001       0.000007       0.000003
  12      -0.000003      -0.000005      -0.000001
  13      -0.000006       0.000007      -0.000021
---------------------------------------------------
 Number of fixed atoms: 0
 Gradient time:  CPU 286.01 s  wall 21.05 s
 ----------------------------------------------------------------
             Standard Nuclear Orientation (Angstroms)
    I     Atom           X                Y                Z
 ----------------------------------------------------------------
    1      C      -0.3012746060     0.5985121361     1.5483982112
    2      C      -0.4410339527     1.6509798415     0.4336929040
    3      O      -0.6810149283     1.2313143831    -0.7278327793
    4      O      -0.3337113321     2.8600721958     0.7689044956
    5      C       0.5398261851    -0.5965458582     1.1565796783
    6      H       0.1102132553     1.0678762933     2.4472061520
    7      H       0.1422991374    -1.0492694578     0.2416793958
    8      H       0.5208796633    -1.3480751603     1.9562640246
    9      O       1.8846131757    -0.1494426256     0.9409840656
   10      H      -1.3103832271     0.2447452833     1.7917090162
   11      O      -3.0658781132    -1.2115479317    -0.4590016461
   12      H      -2.3673627268    -0.5469333980    -0.4697453228
   13      H       2.4080349278    -0.8998243895     0.6384877610
 ----------------------------------------------------------------
 Nuclear Repulsion Energy =   292.4506003310 hartrees
 There are       29 alpha and       29 beta electrons
 Discretize the solute cavity surface with Lebedev spheres
	Using 110 Lebedev grid points for each H atom
	Using 110 Lebedev grid points for other atoms
	Atomic van der Waals radii will be scaled by 1.20
 Remove points where switching function is < 1.0e-08
 Keep 866 surface tesserae and discard 564 interior tesserae
 Molecular Surface Area = 163.911 Angst**2

                       Distance Matrix (Angstroms)
             C (  1)   C (  2)   O (  3)   O (  4)   C (  5)   H (  6)
   C (  2)  1.539412
   O (  3)  2.392879  1.258114
   O (  4)  2.392345  1.259281  2.239128
   C (  5)  1.512989  2.556565  2.895261  3.586303
   H (  6)  1.094295  2.167514  3.276221  2.495142  2.149555
   H (  7)  2.149292  2.769204  2.611295  3.973349  1.095458  3.057398
   H (  8)  2.152091  3.498261  3.911800  4.455183  1.097566  2.499298
   O (  9)  2.388827  2.984544  3.357661  3.742693  1.433470  2.626607
   H ( 10)  1.096655  2.139503  2.778041  2.973206  2.129421  1.767856
   O ( 11)  3.866394  3.985069  3.424532  5.054758  3.998679  4.871281
   H ( 12)  3.107035  3.059047  2.464253  4.156643  3.331537  4.153866
   H ( 13)  3.226966  3.829587  3.993847  4.655212  1.962295  3.524669
             H (  7)   H (  8)   O (  9)   H ( 10)   O ( 11)   H ( 12)
   H (  8)  1.781126
   O (  9)  2.081916  2.080212
   H ( 10)  2.487439  2.432628  3.329733
   O ( 11)  3.287809  4.326312  5.253132  3.204411
   H ( 12)  2.656477  3.856072  4.497494  2.618804  0.964236
   H ( 13)  2.305070  2.344956  0.963612  4.057905  5.591545  4.914991

 
 Requested basis set is def2-TZVPD
 There are 125 shells and 325 basis functions
 A cutoff of  1.0D-14 yielded   7382 shell pairs
 There are     50228 function pairs (     63880 Cartesian)
 Smallest overlap matrix eigenvalue = 7.13E-06
 Guess MOs from SCF MO coefficient file
 Reading MOs from coefficient file
 Reading MOs from coefficient file
 Long-range K will be added via erf
 Coulomb attenuation parameter = 0.3 bohr**(-1)
 A restricted hybrid HF-DFT SCF calculation will be
 performed using Pulay DIIS extrapolation
 Polarizable Continuum solvation model will be applied
 Exchange:     0.1670 Hartree-Fock + 1.0000 wB97X-V + LR-HF
 Correlation:  1.0000 wB97X-V
 Using SG-2 standard quadrature grid
 Nonlocal Correlation:  VV10 with C = 0.0100 and b = 6.00
 Grid used for NLC:  SG-1 standard quadrature
 SCF converges when DIIS error is below 1.0E-08
Using Q-Chem read-in guess as SCF_GUESS READ specified.

 using 16 threads for integral computing
 -------------------------------------------------------
 OpenMP Integral computing Module                
 Release: version 1.0, May 2013, Q-Chem Inc. Pittsburgh 
 -------------------------------------------------------
 using 16 threads for integral computing
 -------------------------------------------------------
 OpenMP Integral computing Module                
 Release: version 1.0, May 2013, Q-Chem Inc. Pittsburgh 
 -------------------------------------------------------
 -------------------------------------------------------
 OpenMP BLAS3 based DFT computing Module                
 Release: version 1.0, May 2013, Q-Chem Inc. Pittsburgh 
 -------------------------------------------------------
 -------------------------------------------------------
 OpenMP BLAS3 based DFT computing Module                
 Release: version 1.0, May 2013, Q-Chem Inc. Pittsburgh 
 -------------------------------------------------------
 -------------------------------------------------------
 OpenMP BLAS3 based DFT computing Module                
 Release: version 1.0, May 2013, Q-Chem Inc. Pittsburgh 
 -------------------------------------------------------
 ---------------------------------------
  Cycle       Energy         DIIS Error
 ---------------------------------------
    1    -418.7654560108      6.32E-04
    2    -419.1178894436      7.21E-04
    3    -419.1276103051      3.41E-04
    4    -419.1292043528      2.38E-04
    5    -419.1302529299      1.78E-04
    6    -419.1308566529      1.31E-04
    7    -419.1312854369      8.43E-05
    8    -419.1314801892      4.98E-05
    9    -419.1315681955      1.95E-05
   10    -419.1315837090      2.77E-06
   11    -419.1315839962      7.15E-07
   12    -419.1315840156      8.07E-08
   13    -419.1315840158      2.17E-08
   14    -419.1315840158      6.46E-09 Convergence criterion met
 ---------------------------------------

************** Final PCM Free Energy Summary **************
 G_electrostatic  =      -0.36643194 hartree =    -229.93951364 kcal/mol
 G_cavitation     =       0.00000000 hartree =       0.00000000 kcal/mol
 G_dispersion     =       0.00000000 hartree =       0.00000000 kcal/mol
 G_repulsion      =       0.00000000 hartree =       0.00000000 kcal/mol
 --------------------------------------------------
 Non-electrostatic Free Energy =       0.00000000 hartree =       0.00000000 kcal/mol
 Total                         =      -0.36643194 hartree =    -229.93951364 kcal/mol
 --------------------------------------------------
 SCF Energy (H0 + V/2)                       =    -419.13158402 
 Solute Internal Energy (H0)                 =    -418.76515207 
 Total Free Energy (H0 + V/2 + non-elec)     =    -419.13158402 hartree
                                             = -263009.03856515 kcal/mol
***********************************************************

 SCF time:  CPU 1193.76 s  wall 86.12 s
 SCF   energy in the final basis set = -419.13158402
 Total energy in the final basis set = -419.13158402
 
 --------------------------------------------------------------
 
                    Orbital Energies (a.u.)
 --------------------------------------------------------------
 
 Alpha MOs
 -- Occupied --
-19.207 -19.140 -19.139 -19.088 -10.341 -10.301 -10.249  -1.147
 -1.139  -1.049  -0.961  -0.879  -0.740  -0.627  -0.609  -0.564
 -0.530  -0.523  -0.505  -0.485  -0.450  -0.443  -0.435  -0.381
 -0.347  -0.335  -0.330  -0.309  -0.309
 -- Virtual --
  0.061   0.080   0.084   0.090   0.115   0.115   0.118   0.126
  0.130   0.145   0.154   0.161   0.167   0.172   0.177   0.177
  0.188   0.206   0.219   0.227   0.235   0.246   0.260   0.269
  0.277   0.280   0.298   0.303   0.306   0.318   0.333   0.337
  0.345   0.354   0.357   0.365   0.373   0.380   0.385   0.392
  0.396   0.404   0.407   0.420   0.426   0.438   0.447   0.450
  0.459   0.459   0.474   0.484   0.491   0.499   0.510   0.514
  0.518   0.527   0.537   0.542   0.557   0.561   0.566   0.571
  0.578   0.588   0.596   0.598   0.611   0.624   0.638   0.649
  0.664   0.669   0.673   0.679   0.684   0.699   0.706   0.718
  0.722   0.734   0.739   0.762   0.776   0.780   0.790   0.801
  0.811   0.814   0.823   0.832   0.843   0.846   0.859   0.865
  0.871   0.893   0.919   0.939   0.970   0.978   0.999   1.016
  1.027   1.048   1.053   1.060   1.087   1.101   1.128   1.135
  1.154   1.171   1.201   1.207   1.213   1.257   1.284   1.305
  1.314   1.334   1.341   1.375   1.385   1.401   1.435   1.487
  1.489   1.525   1.552   1.646   1.661   1.761   1.780   1.804
  1.829   1.860   1.886   1.894   1.912   1.922   1.937   1.951
  1.963   1.968   1.984   1.996   2.006   2.037   2.064   2.072
  2.128   2.138   2.165   2.180   2.215   2.240   2.259   2.276
  2.292   2.351   2.354   2.367   2.393   2.419   2.430   2.472
  2.476   2.502   2.528   2.576   2.640   2.657   2.700   2.712
  2.739   2.741   2.765   2.804   2.825   2.853   2.879   2.938
  2.944   2.997   3.020   3.046   3.057   3.104   3.120   3.146
  3.165   3.178   3.202   3.209   3.259   3.286   3.326   3.353
  3.379   3.386   3.421   3.439   3.456   3.499   3.528   3.542
  3.558   3.566   3.567   3.625   3.638   3.661   3.682   3.697
  3.722   3.750   3.766   3.804   3.812   3.854   3.959   4.084
  4.098   4.122   4.134   4.166   4.250   4.262   4.326   4.400
  4.569   4.659   4.706   4.770   4.836   4.872   4.900   5.049
  5.092   5.322   5.349   5.351   5.353   5.365   5.375   5.377
  5.378   5.408   5.503   5.531   5.601   5.672   5.680   5.712
  5.718   5.777   5.879   5.958   6.003   6.073   6.259   6.307
  6.336   6.444   6.488   6.619   6.623   6.630   6.647   6.696
  6.699   6.719   6.729   6.768   6.786   6.869   6.885   6.955
  6.989   7.062   7.224   7.287   7.296   7.370   7.372   7.401
  7.422  22.731  22.803  23.729  44.001  44.280  44.303  44.450
 --------------------------------------------------------------
 
          Ground-State Mulliken Net Atomic Charges

     Atom                 Charge (a.u.)
  ----------------------------------------
      1 C                     0.049660
      2 C                     0.136388
      3 O                    -0.687859
      4 O                    -0.719280
      5 C                    -0.304150
      6 H                     0.191972
      7 H                     0.175384
      8 H                     0.195532
      9 O                    -0.516840
     10 H                     0.191197
     11 O                    -1.126887
     12 H                     0.090254
     13 H                     0.324630
  ----------------------------------------
  Sum of atomic charges =    -2.000000

 -----------------------------------------------------------------
                    Cartesian Multipole Moments
 -----------------------------------------------------------------
    Charge (ESU x 10^10)
                -9.6064
    Dipole Moment (Debye)
         X      17.5651      Y      -6.1583      Z       3.0651
       Tot      18.8640
    Quadrupole Moments (Debye-Ang)
        XX    -100.2577     XY     -20.2820     YY     -85.0185
        XZ     -11.2600     YZ      -7.3401     ZZ     -53.7899
    Octopole Moments (Debye-Ang^2)
       XXX     240.7906    XXY      28.6128    XYY      66.2300
       YYY    -147.3766    XXZ      -1.1931    XYZ       6.5209
       YYZ     -33.2295    XZZ      28.7318    YZZ     -31.2351
       ZZZ     -66.0535
    Hexadecapole Moments (Debye-Ang^3)
      XXXX   -1261.2930   XXXY    -249.5798   XXYY    -307.6619
      XYYY     -39.7150   YYYY    -929.8161   XXXZ    -161.7288
      XXYZ     -50.9877   XYYZ     -31.4878   YYYZ    -117.0905
      XXZZ    -210.3147   XYZZ     -15.9316   YYZZ    -189.6292
      XZZZ     -85.2121   YZZZ     -59.6923   ZZZZ    -332.1641
 -----------------------------------------------------------------
 Calculating analytic gradient of the SCF energy
 Gradient of SCF Energy
            1           2           3           4           5           6
    1  -0.0396658  -0.0028729   0.0131758  -0.0079718  -0.0416953  -0.0286911
    2   0.0179132   0.0029351   0.0167878  -0.0659200  -0.0597056  -0.0248230
    3   0.0954100  -0.0725075   0.0641586  -0.0085898  -0.0149547  -0.0564055
            7           8           9          10          11          12
    1   0.0384915   0.0070332   0.0282662   0.0708421   0.0787738  -0.0836548
    2   0.0267882   0.0526493  -0.0197072   0.0251471   0.0684818  -0.0689962
    3   0.0610138  -0.0552195  -0.0168712  -0.0124551   0.0120274  -0.0114153
           13
    1  -0.0320308
    2   0.0284493
    3   0.0158088
 Max gradient component =       9.541E-02
 RMS gradient           =       4.517E-02
 Computing fast CPCM-ISWIG gradient
 Updating gradient with PCM contributions...
 -- total gradient after adding PCM contribution --
---------------------------------------------------
  Atom         X              Y              Z     
---------------------------------------------------
   1      -0.000088      -0.000963      -0.000095
   2      -0.000017       0.000197      -0.000084
   3       0.000008      -0.000003       0.000012
   4       0.000008       0.000104      -0.000035
   5      -0.000108       0.000324       0.000044
   6       0.000076       0.000178       0.000172
   7      -0.000011       0.000022       0.000007
   8      -0.000029       0.000032       0.000013
   9       0.000009      -0.000036       0.000021
  10       0.000148       0.000134      -0.000035
  11      -0.000000       0.000007       0.000005
  12      -0.000003      -0.000004      -0.000001
  13       0.000007       0.000008      -0.000023
---------------------------------------------------
 Number of fixed atoms: 0
 Gradient time:  CPU 323.33 s  wall 23.45 s
 ----------------------------------------------------------------
             Standard Nuclear Orientation (Angstroms)
    I     Atom           X                Y                Z
 ----------------------------------------------------------------
    1      C      -0.3012746060     0.5995121361     1.5493982112
    2      C      -0.4410339527     1.6509798415     0.4336929040
    3      O      -0.6810149283     1.2313143831    -0.7278327793
    4      O      -0.3337113321     2.8600721958     0.7689044956
    5      C       0.5398261851    -0.5965458582     1.1565796783
    6      H       0.1102132553     1.0678762933     2.4472061520
    7      H       0.1422991374    -1.0492694578     0.2416793958
    8      H       0.5208796633    -1.3480751603     1.9562640246
    9      O       1.8846131757    -0.1494426256     0.9409840656
   10      H      -1.3103832271     0.2447452833     1.7917090162
   11      O      -3.0658781132    -1.2115479317    -0.4590016461
   12      H      -2.3673627268    -0.5469333980    -0.4697453228
   13      H       2.4080349278    -0.8998243895     0.6384877610
 ----------------------------------------------------------------
 Nuclear Repulsion Energy =   292.4380958556 hartrees
 There are       29 alpha and       29 beta electrons
 Discretize the solute cavity surface with Lebedev spheres
	Using 110 Lebedev grid points for each H atom
	Using 110 Lebedev grid points for other atoms
	Atomic van der Waals radii will be scaled by 1.20
 Remove points where switching function is < 1.0e-08
 Keep 866 surface tesserae and discard 564 interior tesserae
 Molecular Surface Area = 163.922 Angst**2

                       Distance Matrix (Angstroms)
             C (  1)   C (  2)   O (  3)   O (  4)   C (  5)   H (  6)
   C (  2)  1.539453
   O (  3)  2.393566  1.258114
   O (  4)  2.391726  1.259281  2.239128
   C (  5)  1.514038  2.556565  2.895261  3.586303
   H (  6)  1.093045  2.167514  3.276221  2.495142  2.149555
   H (  7)  2.150667  2.769204  2.611295  3.973349  1.095458  3.057398
   H (  8)  2.152806  3.498261  3.911800  4.455183  1.097566  2.499298
   O (  9)  2.389395  2.984544  3.357661  3.742693  1.433470  2.626607
   H ( 10)  1.096756  2.139503  2.778041  2.973206  2.129421  1.767856
   O ( 11)  3.867382  3.985069  3.424532  5.054758  3.998679  4.871281
   H ( 12)  3.108054  3.059047  2.464253  4.156643  3.331537  4.153866
   H ( 13)  3.227712  3.829587  3.993847  4.655212  1.962295  3.524669
             H (  7)   H (  8)   O (  9)   H ( 10)   O ( 11)   H ( 12)
   H (  8)  1.781126
   O (  9)  2.081916  2.080212
   H ( 10)  2.487439  2.432628  3.329733
   O ( 11)  3.287809  4.326312  5.253132  3.204411
   H ( 12)  2.656477  3.856072  4.497494  2.618804  0.964236
   H ( 13)  2.305070  2.344956  0.963612  4.057905  5.591545  4.914991

 
 Requested basis set is def2-TZVPD
 There are 125 shells and 325 basis functions
 A cutoff of  1.0D-14 yielded   7382 shell pairs
 There are     50228 function pairs (     63880 Cartesian)
 Smallest overlap matrix eigenvalue = 7.15E-06
 Guess MOs from SCF MO coefficient file
 Reading MOs from coefficient file
 Reading MOs from coefficient file
 Long-range K will be added via erf
 Coulomb attenuation parameter = 0.3 bohr**(-1)
 A restricted hybrid HF-DFT SCF calculation will be
 performed using Pulay DIIS extrapolation
 Polarizable Continuum solvation model will be applied
 Exchange:     0.1670 Hartree-Fock + 1.0000 wB97X-V + LR-HF
 Correlation:  1.0000 wB97X-V
 Using SG-2 standard quadrature grid
 Nonlocal Correlation:  VV10 with C = 0.0100 and b = 6.00
 Grid used for NLC:  SG-1 standard quadrature
 SCF converges when DIIS error is below 1.0E-08
Using Q-Chem read-in guess as SCF_GUESS READ specified.

 using 16 threads for integral computing
 -------------------------------------------------------
 OpenMP Integral computing Module                
 Release: version 1.0, May 2013, Q-Chem Inc. Pittsburgh 
[...]
 H          0.348 -0.057 -0.038    0.234  0.039 -0.108    0.097  0.096 -0.327
 H          0.251 -0.031 -0.012    0.103 -0.023 -0.090   -0.228 -0.156 -0.300
 O          0.172  0.167  0.116    0.036  0.243  0.128   -0.032 -0.011  0.134
 H          0.053 -0.272 -0.130   -0.133 -0.250 -0.286   -0.179 -0.127 -0.374
 O         -0.260  0.318  0.028   -0.182 -0.121 -0.062    0.035 -0.086  0.273
 H         -0.162  0.214 -0.005   -0.224 -0.077 -0.041    0.036 -0.090  0.211
 H          0.303  0.237  0.171    0.187  0.329  0.177    0.026  0.027  0.141
 TransDip   0.159 -0.089 -0.003    0.044  0.043  0.015   -0.076 -0.026 -0.163

 Mode:                 4                      5                      6
 Frequency:        91.00                 129.12                 213.59
 Force Cnst:      0.0408                 0.0564                 0.0312
 Red. Mass:       8.3530                 5.7377                 1.1592
 IR Active:          YES                    YES                    YES
 IR Intens:       16.174                  5.519                187.336
 Raman Active:       YES                    YES                    YES
               X      Y      Z        X      Y      Z        X      Y      Z
 C         -0.143 -0.116 -0.037    0.165  0.052 -0.077   -0.000 -0.006 -0.024
 C         -0.107 -0.106 -0.031   -0.063  0.063 -0.044   -0.006  0.009 -0.010
 O         -0.243 -0.093 -0.009   -0.281  0.073 -0.003   -0.024  0.039 -0.017
 O          0.079 -0.115 -0.061   -0.075  0.064 -0.044   -0.007  0.000  0.021
 C         -0.045 -0.050 -0.033    0.062 -0.007 -0.131    0.021 -0.013  0.036
 H         -0.214 -0.119 -0.003    0.305  0.047 -0.137   -0.041  0.002 -0.011
 H          0.017 -0.056 -0.057    0.189  0.244 -0.311   -0.012 -0.126  0.101
 H         -0.013 -0.070 -0.051   -0.258 -0.162 -0.285    0.073  0.074  0.116
 O         -0.075  0.064  0.019    0.202 -0.222  0.284    0.001 -0.011 -0.072
 H         -0.134 -0.183 -0.110    0.192  0.082  0.083   -0.003 -0.024 -0.059
 O          0.453  0.346  0.131   -0.001  0.003 -0.019    0.004 -0.000  0.001
 H          0.451  0.348  0.129   -0.057  0.063 -0.041   -0.010  0.015 -0.004
 H         -0.004  0.115  0.016    0.117 -0.256  0.220    0.220 -0.253  0.906
 TransDip  -0.101 -0.071 -0.037    0.061  0.003 -0.044    0.100 -0.114  0.411

 Mode:                 7                      8                      9
 Frequency:       277.57                 355.98                 375.29
 Force Cnst:      0.1046                 0.0785                 0.0886
 Red. Mass:       2.3033                 1.0513                 1.0680
 IR Active:          YES                    YES                    YES
 IR Intens:       10.402                125.844                120.011
 Raman Active:       YES                    YES                    YES
               X      Y      Z        X      Y      Z        X      Y      Z
 C         -0.031 -0.020 -0.073    0.006 -0.001  0.006   -0.017 -0.003 -0.007
 C         -0.022  0.010 -0.061    0.006 -0.006  0.001   -0.002  0.011  0.004
 O         -0.062  0.135 -0.099    0.014 -0.009  0.000    0.001 -0.007  0.012
 O         -0.009 -0.020  0.051   -0.001 -0.005 -0.004   -0.004  0.016 -0.013
 C          0.082 -0.039  0.200   -0.007 -0.003 -0.009    0.010  0.007  0.000
 H         -0.211  0.065 -0.035    0.030 -0.001 -0.004   -0.078 -0.019  0.029
 H          0.070 -0.354  0.358   -0.006  0.013 -0.016    0.010 -0.003  0.005
 H          0.151  0.200  0.430   -0.008 -0.016 -0.021    0.005  0.014  0.007
 O          0.057 -0.069 -0.007   -0.009  0.007  0.001    0.017 -0.015 -0.007
 H         -0.032 -0.098 -0.182    0.006  0.015  0.027   -0.021 -0.038 -0.068
 O          0.007 -0.004  0.005    0.035 -0.032 -0.001   -0.005  0.001 -0.048
 H         -0.090  0.097 -0.039   -0.683  0.723  0.062    0.038 -0.028  0.989
 H         -0.116  0.015 -0.516    0.003  0.009  0.017   -0.004 -0.026 -0.016
 TransDip  -0.043 -0.001 -0.094   -0.245  0.262  0.029    0.001 -0.013  0.351

 Mode:                10                     11                     12
 Frequency:       400.97                 511.53                 605.50
 Force Cnst:      0.2218                 0.6724                 0.9322
 Red. Mass:       2.3415                 4.3614                 4.3157
 IR Active:          YES                    YES                    YES
 IR Intens:       23.378                 36.428                 33.392
 Raman Active:       YES                    YES                    YES
               X      Y      Z        X      Y      Z        X      Y      Z
 C          0.145  0.017 -0.002   -0.096  0.154  0.092   -0.084 -0.148  0.250
 C          0.030 -0.063 -0.067   -0.149 -0.113 -0.044   -0.226 -0.023  0.076
 O         -0.029  0.070 -0.108    0.034 -0.021 -0.131    0.078  0.207 -0.061
 O          0.007 -0.102  0.068    0.074 -0.203  0.141    0.036  0.033 -0.216
 C         -0.049 -0.081  0.022   -0.023  0.284 -0.008    0.054 -0.087  0.015
 H          0.578  0.139 -0.265   -0.080  0.425 -0.063    0.215 -0.040  0.063
 H         -0.031 -0.104  0.022   -0.129  0.519 -0.078    0.016  0.072 -0.050
 H         -0.010 -0.063  0.040   -0.105  0.127 -0.163    0.163 -0.257 -0.144
 O         -0.116  0.100  0.054    0.123 -0.067 -0.041    0.045 -0.013 -0.015
 H          0.159  0.299  0.458    0.014 -0.036  0.264    0.072 -0.283  0.686
 O         -0.006  0.000 -0.016   -0.001  0.000 -0.004   -0.002 -0.001 -0.001
 H          0.059 -0.063  0.280   -0.005  0.006  0.055    0.010 -0.013  0.013
 H          0.042  0.210  0.059   -0.167 -0.305  0.042    0.081 -0.006  0.028
 TransDip   0.131 -0.007  0.083   -0.166  0.091  0.039   -0.043 -0.119  0.135

 Mode:                13                     14                     15
 Frequency:       699.00                 871.59                 906.59
 Force Cnst:      0.7723                 1.8532                 1.3240
 Red. Mass:       2.6828                 4.1405                 2.7342
 IR Active:          YES                    YES                    YES
 IR Intens:       15.150                 30.793                 18.453
 Raman Active:       YES                    YES                    YES
               X      Y      Z        X      Y      Z        X      Y      Z
 C          0.073 -0.012  0.161    0.047  0.010 -0.163    0.232 -0.011 -0.021
 C          0.239 -0.084 -0.024    0.019 -0.171  0.192   -0.187  0.028  0.010
 O         -0.073  0.112 -0.039    0.041  0.167  0.163    0.035 -0.024 -0.040
 O         -0.083 -0.075 -0.070   -0.034 -0.163 -0.163    0.046  0.019  0.013
 C         -0.006  0.037  0.059   -0.034  0.166 -0.087    0.096  0.062  0.016
 H         -0.383 -0.044  0.379    0.163 -0.112 -0.158   -0.256 -0.035  0.210
 H         -0.182  0.454 -0.076    0.060 -0.311  0.114   -0.140  0.203  0.037
 H         -0.002 -0.280 -0.243   -0.174  0.611  0.331   -0.089  0.023 -0.010
 O         -0.031  0.004 -0.017   -0.029 -0.009  0.030   -0.177 -0.031  0.030
 H         -0.062 -0.040 -0.421    0.100 -0.069 -0.084    0.359 -0.634 -0.369
 O         -0.000  0.000 -0.000   -0.001 -0.000 -0.000    0.000  0.000 -0.000
 H          0.006 -0.006  0.007    0.004 -0.004 -0.001   -0.001  0.001  0.004
 H         -0.050 -0.025  0.021   -0.181 -0.104  0.003   -0.029  0.085  0.019
 TransDip   0.087 -0.034  0.082    0.009 -0.126  0.125    0.129  0.027 -0.039

 Mode:                16                     17                     18
 Frequency:      1005.28                1060.15                1104.79
 Force Cnst:      1.2335                 1.3509                 2.3852
 Red. Mass:       2.0717                 2.0401                 3.3167
 IR Active:          YES                    YES                    YES
 IR Intens:        1.520                 36.055                125.861
 Raman Active:       YES                    YES                    YES
               X      Y      Z        X      Y      Z        X      Y      Z
 C         -0.023 -0.159  0.067   -0.086 -0.071 -0.116   -0.100  0.155  0.147
 C          0.115  0.040 -0.066    0.068 -0.011 -0.002    0.050 -0.012 -0.003
 O         -0.037 -0.039 -0.066   -0.001  0.008  0.065   -0.016 -0.001 -0.029
 O         -0.015  0.064  0.033   -0.013  0.024 -0.006   -0.010 -0.025  0.010
 C         -0.005  0.162 -0.044    0.167  0.053  0.093    0.240 -0.004 -0.206
 H          0.311 -0.440  0.071    0.080  0.432 -0.451   -0.148  0.182  0.159
 H          0.061 -0.141  0.079    0.178  0.413 -0.105    0.242 -0.509  0.034
 H          0.035  0.374  0.162    0.084 -0.307 -0.241    0.401  0.260  0.070
 O         -0.026 -0.007  0.024   -0.106 -0.033 -0.009   -0.154 -0.101  0.048
 H          0.121 -0.365  0.329    0.013 -0.051  0.279   -0.147  0.209  0.028
 O          0.000  0.000  0.000   -0.000  0.000  0.000   -0.000  0.000 -0.000
 H          0.000 -0.000 -0.001   -0.000  0.000 -0.003    0.002 -0.002 -0.000
 H         -0.331 -0.221  0.025   -0.217 -0.124  0.034    0.243  0.216 -0.013
 TransDip  -0.004  0.038 -0.009    0.163 -0.036 -0.095    0.346  0.096 -0.018

 Mode:                19                     20                     21
 Frequency:      1176.09                1248.32                1291.42
 Force Cnst:      0.9172                 1.0648                 1.2075
 Red. Mass:       1.1255                 1.1597                 1.2288
 IR Active:          YES                    YES                    YES
 IR Intens:       21.901                 47.680                 54.943
 Raman Active:       YES                    YES                    YES
               X      Y      Z        X      Y      Z        X      Y      Z
 C          0.037 -0.005  0.005    0.032 -0.041  0.001    0.010  0.082  0.028
 C         -0.070  0.010  0.014   -0.005 -0.008 -0.004    0.031 -0.007 -0.011
 O          0.009 -0.001 -0.015    0.003  0.001  0.012   -0.004  0.003  0.008
 O          0.011 -0.015 -0.004    0.002  0.018  0.001   -0.005 -0.001  0.002
 C          0.037  0.010  0.022   -0.043 -0.009 -0.065   -0.040 -0.076 -0.019
 H          0.084 -0.310  0.146   -0.131  0.370 -0.148   -0.211  0.290  0.020
 H          0.335 -0.024 -0.088   -0.474 -0.124  0.166    0.482 -0.274 -0.145
 H          0.189 -0.115 -0.088    0.641 -0.019 -0.071   -0.170 -0.079 -0.013
 O         -0.018  0.022  0.001    0.022  0.023  0.045    0.013  0.048 -0.009
 H         -0.193  0.503 -0.212    0.005 -0.023 -0.084    0.212 -0.449  0.110
 O         -0.000  0.000 -0.000    0.000 -0.000  0.000   -0.000  0.000 -0.000
 H          0.001 -0.001  0.001   -0.001  0.001  0.000    0.001 -0.001 -0.001
 H         -0.493 -0.329  0.035   -0.288 -0.191  0.021   -0.398 -0.266  0.033
 TransDip  -0.139  0.004  0.056   -0.168 -0.107 -0.096   -0.161 -0.173  0.028

 Mode:                22                     23                     24
 Frequency:      1342.86                1436.63                1442.78
 Force Cnst:      1.7638                 3.8920                 1.4438
 Red. Mass:       1.6602                 3.2006                 1.1772
 IR Active:          YES                    YES                    YES
 IR Intens:       54.135                231.883                 21.012
 Raman Active:       YES                    YES                    YES
               X      Y      Z        X      Y      Z        X      Y      Z
 C          0.058 -0.141  0.065   -0.074  0.150 -0.078    0.032 -0.026 -0.053
 C         -0.009 -0.085  0.069    0.047 -0.177  0.219    0.002  0.050 -0.036
 O         -0.010 -0.016 -0.061   -0.031 -0.032 -0.147    0.003  0.004  0.024
 O          0.010  0.093  0.014    0.004  0.121  0.017   -0.003 -0.037 -0.005
 C          0.009  0.018 -0.037    0.110 -0.125 -0.015    0.048 -0.030 -0.028
 H         -0.215  0.553 -0.179    0.156 -0.369  0.084   -0.582 -0.088  0.279
 H          0.128 -0.054 -0.044   -0.540  0.337  0.031   -0.221  0.083  0.029
 H         -0.497  0.244  0.168   -0.120  0.067  0.154   -0.175  0.108  0.096
 O          0.005  0.009 -0.012    0.013  0.045  0.012    0.002  0.018  0.005
 H         -0.179  0.383 -0.163    0.076 -0.158  0.095    0.068  0.279  0.592
 O         -0.000  0.000 -0.000   -0.000 -0.000 -0.000   -0.000 -0.000  0.000
 H          0.001 -0.000  0.002    0.001  0.000  0.004   -0.000  0.000 -0.003
 H         -0.008 -0.006 -0.001   -0.334 -0.216  0.029   -0.118 -0.074  0.013
 TransDip   0.023 -0.210  0.104    0.074 -0.323  0.358   -0.044  0.138  0.024

 Mode:                25                     26                     27
 Frequency:      1457.83                1504.72                1591.34
 Force Cnst:      2.1542                 1.4587                14.8913
 Red. Mass:       1.7204                 1.0935                 9.9806
 IR Active:          YES                    YES                    YES
 IR Intens:       86.774                 17.713               1295.686
 Raman Active:       YES                    YES                    YES
               X      Y      Z        X      Y      Z        X      Y      Z
 C          0.043  0.002 -0.076    0.002 -0.006  0.011   -0.000 -0.067 -0.023
 C          0.016 -0.097  0.098   -0.001  0.017 -0.013    0.120  0.556  0.509
 O         -0.013 -0.013 -0.064    0.001  0.002  0.009   -0.054 -0.111 -0.263
 O          0.005  0.072  0.008   -0.001 -0.010 -0.001   -0.027 -0.273 -0.090
 C         -0.115  0.083  0.042   -0.037 -0.072 -0.007   -0.023  0.008  0.012
 H         -0.365 -0.082  0.153    0.001  0.059 -0.023    0.008  0.401 -0.243
 H          0.427 -0.108 -0.086    0.204  0.543 -0.391    0.058 -0.056  0.019
 H          0.509 -0.144 -0.176    0.343  0.429  0.442    0.025 -0.075 -0.057
 O         -0.012 -0.045 -0.005   -0.009 -0.010 -0.000    0.001 -0.001 -0.002
 H          0.116  0.083  0.353   -0.002 -0.032 -0.031    0.015 -0.081 -0.027
 O         -0.000  0.000 -0.000   -0.000 -0.000  0.000   -0.001 -0.001 -0.000
 H          0.001 -0.000  0.001   -0.000  0.000 -0.000    0.009  0.001  0.000
 H          0.291  0.183 -0.021    0.016  0.011 -0.002    0.018  0.012 -0.002
 TransDip  -0.012 -0.154  0.255   -0.064  0.118 -0.014    0.191  0.857  0.747

 Mode:                28                     29                     30
 Frequency:      3035.50                3065.07                3089.16
 Force Cnst:      5.7642                 5.8802                 6.1966
 Red. Mass:       1.0618                 1.0623                 1.1021
 IR Active:          YES                    YES                    YES
 IR Intens:       84.632                 25.560                 35.816
 Raman Active:       YES                    YES                    YES
               X      Y      Z        X      Y      Z        X      Y      Z
 C         -0.010 -0.002  0.009   -0.044 -0.001  0.053    0.022  0.011  0.004
 C          0.000 -0.001  0.001   -0.000  0.002 -0.001    0.000 -0.000 -0.001
 O          0.000 -0.000 -0.000   -0.000 -0.000  0.000   -0.000  0.000  0.000
 O         -0.000  0.000 -0.000   -0.000 -0.001 -0.000   -0.000 -0.000  0.000
 C          0.009  0.064 -0.023   -0.005 -0.015 -0.007   -0.024 -0.005 -0.086
 H         -0.038 -0.042 -0.074   -0.216 -0.240 -0.444   -0.049 -0.056 -0.111
 H         -0.150 -0.159 -0.365    0.071  0.082  0.171    0.297  0.353  0.718
 H         -0.001 -0.593  0.651   -0.003  0.079 -0.086   -0.002 -0.300  0.308
 O          0.002 -0.000 -0.000   -0.000  0.000  0.000   -0.000  0.000  0.000
 H          0.158  0.060 -0.035    0.737  0.259 -0.169   -0.225 -0.081  0.057
 O          0.000 -0.000 -0.000   -0.000 -0.000 -0.000   -0.000  0.000 -0.000
 H         -0.000  0.000  0.000    0.000  0.000  0.001    0.000 -0.000 -0.000
 H          0.005  0.003  0.000   -0.003 -0.000  0.000   -0.001 -0.003  0.003
 TransDip   0.083  0.269 -0.086   -0.098 -0.036  0.124   -0.038 -0.007 -0.188

 Mode:                31                     32                     33
 Frequency:      3117.09                3822.07                3845.79
 Force Cnst:      6.3074                 9.1843                 9.2952
 Red. Mass:       1.1018                 1.0671                 1.0667
 IR Active:          YES                    YES                    YES
 IR Intens:       61.449                 15.532                 86.376
 Raman Active:       YES                    YES                    YES
               X      Y      Z        X      Y      Z        X      Y      Z
 C         -0.064 -0.042 -0.047   -0.000 -0.000 -0.000    0.000  0.000 -0.000
 C         -0.001 -0.003 -0.001   -0.000 -0.000 -0.001   -0.000 -0.000  0.000
 O          0.000  0.000  0.000    0.000  0.000  0.000   -0.000  0.000 -0.000
 O          0.000  0.001  0.000    0.000  0.000  0.000   -0.000  0.000 -0.000
 C         -0.008 -0.003 -0.022   -0.000  0.000 -0.000   -0.001 -0.001 -0.000
 H          0.305  0.356  0.672    0.000 -0.000  0.000    0.000  0.001  0.001
 H          0.078  0.096  0.193    0.000 -0.000  0.000   -0.003 -0.000  0.002
 H          0.003 -0.064  0.064    0.000 -0.000 -0.000   -0.003 -0.001  0.001
 O          0.000  0.000  0.000   -0.000  0.000  0.000    0.036 -0.048 -0.020
 H          0.468  0.162 -0.121   -0.000 -0.000 -0.000   -0.001 -0.001  0.000
 O         -0.000 -0.000 -0.000   -0.046 -0.043  0.001   -0.000 -0.000 -0.000
 H         -0.000 -0.000  0.001    0.723  0.688 -0.011    0.000  0.000  0.000
 H          0.001 -0.001  0.001    0.000 -0.000 -0.000   -0.552  0.770  0.315
 TransDip  -0.135 -0.094 -0.189    0.091  0.087  0.006   -0.217  0.182  0.093

 STANDARD THERMODYNAMIC QUANTITIES AT   298.15 K  AND     1.00 ATM

   This Molecule has  0 Imaginary Frequencies
   Zero point vibrational energy:       58.927 kcal/mol

   Atom    1 Element C  Has Mass   12.00000
   Atom    2 Element C  Has Mass   12.00000
   Atom    3 Element O  Has Mass   15.99491
   Atom    4 Element O  Has Mass   15.99491
   Atom    5 Element C  Has Mass   12.00000
   Atom    6 Element H  Has Mass    1.00783
   Atom    7 Element H  Has Mass    1.00783
   Atom    8 Element H  Has Mass    1.00783
   Atom    9 Element O  Has Mass   15.99491
   Atom   10 Element H  Has Mass    1.00783
   Atom   11 Element O  Has Mass   15.99491
   Atom   12 Element H  Has Mass    1.00783
   Atom   13 Element H  Has Mass    1.00783
   Molecular Mass:   106.026620 amu
   Principal axes and moments of inertia in amu*Bohr^2:
                             1           2           3
    Eigenvalues --      773.14554  1095.57221  1586.30408
          X               0.85608    -0.34883    -0.38136
          Y               0.38766     0.92140     0.02741
          Z               0.34182    -0.17130     0.92402
   Rotational Symmetry Number is   1
   The Molecule is an Asymmetric Top
   Translational Enthalpy:        0.889 kcal/mol
   Rotational Enthalpy:           0.889 kcal/mol
   Vibrational Enthalpy:         63.132 kcal/mol
   gas constant (RT):             0.592 kcal/mol
   Translational Entropy:        39.892  cal/mol.K
   Rotational Entropy:           28.687  cal/mol.K
   Vibrational Entropy:          30.241  cal/mol.K

   Total Enthalpy:               65.502 kcal/mol
   Total Entropy:                98.821  cal/mol.K
Archival summary:
1\1\c5-78\FREQ\ProcedureUnspecified\BasisUnspecified\436(2-,1)\leeping\SatMar2104:34:162020SatMar2104:34:162020\0\\#,FREQ,ProcedureUnspecified,BasisUnspecified,\\-2,1\O\C,1,1.25811\O,2,1.25928,1,125.611\C,2,1.53873,1,117.271,3,178.369,0\H,4,1.09387,2,109.684,1,168.073,0\H,4,1.09698,2,107.345,1,-75.3087,0\C,4,1.51378,2,113.758,1,44.4109,0\H,7,1.09546,4,109.942,2,-55.0404,0\H,7,1.09757,4,110.05,2,-174.641,0\O,7,1.43347,4,108.285,2,65.2901,0\H,10,0.963612,7,108.295,4,-176.523,0\H,1,2.46425,2,105.935,3,-136.116,0\O,12,0.964236,1,173.876,2,145.785,0\\\@

 Total job time:  9371.06s(wall), 129188.00s(cpu) 
 Sat Mar 21 04:34:16 2020

        *************************************************************
        *                                                           *
        *  Thank you very much for using Q-Chem.  Have a nice day.  *
        *                                                           *
        *************************************************************


