14   
From 1-reactant-freq.out: Frame 1 / 85, Energy=    -494.2460530007
C       -0.1632160805    0.4677295829    0.4072079458
C       -0.4103694557    1.6904402579   -0.3322291614
O       -0.2377826613    1.7200606394   -1.6084760568
O       -0.8561721083    2.7244453712    0.2975351933
C        0.6516563053   -0.6124799492   -0.1652222546
H       -0.1305435824    0.5741438140    1.4933550955
H        0.4154035697   -0.8022138171   -1.2191390550
H        0.5601571565   -1.5546628804    0.3935174097
O        2.1228888398   -0.3913284389   -0.2902109562
O        2.6879525156   -0.3280528700    1.0195172787
H       -1.8563514120   -0.2330712169    0.1176610728
O       -2.7805873298   -0.6314450138   -0.0394936750
H       -3.0179510105   -0.3599082285   -0.9332399861
H        2.8789342005   -1.2594081058    1.2087731321
