
Running Job 1 of 1 qc-freq2.in
qchem qc-freq2.in_11289.0 /scratch/lmgong/1862654/qc-freq2.d/ 1
/home/leeping/opt/qchem/5.0.2-openmp/exe/qcprog.exe_s qc-freq2.in_11289.0 /scratch/lmgong/1862654/qc-freq2.d/
Check license passed

                  Welcome to Q-Chem
     A Quantum Leap Into The Future Of Chemistry


 Q-Chem 5.0, Q-Chem, Inc., Pleasanton, CA (2017)

 Yihan Shao,  Zhengting Gan,  E. Epifanovsky,  A. T. B. Gilbert,  M. Wormit,  
 J. Kussmann,  A. W. Lange,  A. Behn,  Jia Deng,  Xintian Feng,  D. Ghosh,  
 M. Goldey,  P. R. Horn,  L. D. Jacobson,  I. Kaliman,  T. Kus,  A. Landau,  
 Jie Liu,  E. I. Proynov,  R. M. Richard,  R. P. Steele,  E. J. Sundstrom,  
 H. L. Woodcock III,  P. M. Zimmerman,  D. Zuev,  B. Albrecht,  E. Alguire,  
 S. A. Baeppler,  D. Barton,  Z. Benda,  Y. A. Bernard,  E. J. Berquist,  
 K. B. Bravaya,  H. Burton,  D. Casanova,  Chun-Min Chang,  Yunqing Chen,  
 A. Chien,  K. D. Closser,  M. P. Coons,  S. Dasgupta,  A. L. Dempwolff,  
 M. Diedenhofen,  Hainam Do,  R. G. Edgar,  Po-Tung Fang,  S. Fatehi,  
 Qingguo Feng,  J. Fosso-Tande,  Qinghui Ge,  A. Ghysels,  G. Gidofalvi,  
 J. Gomes,  J. Gonthier,  A. Gunina,  M. W. D. Hanson-Heine,  
 P. H. P. Harbach,  A. W. Hauser,  J. E. Herr,  E. G. Hohenstein,  
 Z. C. Holden,  Kerwin Hui,  T.-C. Jagau,  Hyunjun Ji,  B. Kaduk,  
 K. Khistyaev,  Jaehoon Kim,  P. Klunzinger,  K. Koh,  D. Kosenkov,  
 L. Koulias,  T. Kowalczyk,  C. M. Krauter,  A. Kunitsa,  Ka Un Lao,  
 A. Laurent,  K. V. Lawler,  Joonho Lee,  D. Lefrancois,  S. Lehtola,  
 D. S. Levine,  Yi-Pei Li,  You-Sheng Lin,  Fenglai Liu,  E. Livshits,  
 A. Luenser,  P. Manohar,  E. Mansoor,  S. F. Manzer,  Shan-Ping Mao,  
 Yuezhi Mao,  N. Mardirossian,  A. V. Marenich,  T. Markovich,  
 L. A. Martinez-Martinez,  S. A. Maurer,  N. J. Mayhall,  S. C. McKenzie,  
 J.-M. Mewes,  A. F. Morrison,  J. W. Mullinax,  K. Nanda,  
 T. S. Nguyen-Beck,  R. Olivares-Amaya,  J. A. Parkhill,  T. M. Perrine,  
 F. Plasser,  S. Prager,  A. Prociuk,  E. Ramos,  D. R. Rehn,  F. Rob,  
 M. Schneider,  N. Sergueev,  S. M. Sharada,  S. Sharma,  D. W. Small,  
 T. Stauch,  T. Stein,  Yu-Chuan Su,  A. J. W. Thom,  A. Tkatchenko,  
 T. Tsuchimochi,  L. Vogt,  O. Vydrov,  M. A. Watson,  J. Wenzel,  
 M. de Wergifosse,  T. A. Wesolowski,  A. White,  J. Witte,  A. Yamada,  
 Jun Yang,  K. Yao,  S. Yeganeh,  S. R. Yost,  Zhi-Qiang You,  A. Zech,  
 Igor Ying Zhang,  Xing Zhang,  Yan Zhao,  Ying Zhu,  B. R. Brooks,  
 G. K. L. Chan,  C. J. Cramer,  M. S. Gordon,  W. J. Hehre,  A. Klamt,  
 M. W. Schmidt,  C. D. Sherrill,  D. G. Truhlar,  A. Aspuru-Guzik,  R. Baer,  
 A. T. Bell,  N. A. Besley,  Jeng-Da Chai,  R. A. DiStasio Jr.,  A. Dreuw,  
 B. D. Dunietz,  T. R. Furlani,  Chao-Ping Hsu,  Yousung Jung,  Jing Kong,  
 D. S. Lambrecht,  WanZhen Liang,  C. Ochsenfeld,  V. A. Rassolov,  
 L. V. Slipchenko,  J. E. Subotnik,  T. Van Voorhis,  J. M. Herbert,  
 A. I. Krylov,  P. M. W. Gill,  M. Head-Gordon

 Contributors to earlier versions of Q-Chem not listed above: 
 R. D. Adamson,  B. Austin,  J. Baker,  G. J. O. Beran,  K. Brandhorst,  
 S. T. Brown,  E. F. C. Byrd,  A. K. Chakraborty,  C.-L. Cheng,  
 Siu Hung Chien,  D. M. Chipman,  D. L. Crittenden,  H. Dachsel,  
 R. J. Doerksen,  A. D. Dutoi,  L. Fusti-Molnar,  W. A. Goddard III,  
 A. Golubeva-Zadorozhnaya,  S. R. Gwaltney,  G. Hawkins,  A. Heyden,  
 S. Hirata,  G. Kedziora,  F. J. Keil,  C. Kelley,  Jihan Kim,  R. A. King,  
 R. Z. Khaliullin,  P. P. Korambath,  W. Kurlancheek,  A. M. Lee,  M. S. Lee,  
 S. V. Levchenko,  Ching Yeh Lin,  D. Liotard,  R. C. Lochan,  I. Lotan,  
 P. E. Maslen,  N. Nair,  D. P. O'Neill,  D. Neuhauser,  E. Neuscamman,  
 C. M. Oana,  R. Olson,  B. Peters,  R. Peverati,  P. A. Pieniazek,  
 Y. M. Rhee,  J. Ritchie,  M. A. Rohrdanz,  E. Rosta,  N. J. Russ,  
 H. F. Schaefer III,  N. E. Schultz,  N. Shenvi,  A. C. Simmonett,  A. Sodt,  
 D. Stuck,  K. S. Thanthiriwatte,  V. Vanovschi,  Tao Wang,  A. Warshel,  
 C. F. Williams,  Q. Wu,  X. Xu,  W. Zhang

 Please cite Q-Chem as follows:
 Y. Shao et al., Mol. Phys. 113, 184-215 (2015)
 DOI: 10.1080/00268976.2014.952696

 Q-Chem 5.0.2 for Intel X86 EM64T Linux

 Parts of Q-Chem use Armadillo 5.200.1 (Boston Tea Smuggler).
 http://arma.sourceforge.net/

 Q-Chem begins on Fri Mar 20 21:59:49 2020  

Host: 
0

     Scratch files written to /scratch/lmgong/1862654/qc-freq2.d//
 Dec517 15110_ 26548  26544 5633   
Processing $rem in /home/leeping/opt/qchem/5.0.2-openmp/config/preferences.
 MEM_STATIC 2000
 MEM_TOTAL  8000
 SYMMETRY   OFF
 SYM_IGNORE TRUE 
Symmetry turned off for PCM/SM12/SMD calculation

Checking the input file for inconsistencies... 	...done.

--------------------------------------------------------------
User input:
--------------------------------------------------------------
$molecule
-2 1
C       -0.1632160805    0.4677295829    0.4072079458
C       -0.4103694557    1.6904402579   -0.3322291614
O       -0.2377826613    1.7200606394   -1.6084760568
O       -0.8561721083    2.7244453712    0.2975351933
C        0.6516563053   -0.6124799492   -0.1652222546
H       -0.1305435824    0.5741438140    1.4933550955
H        0.4154035697   -0.8022138171   -1.2191390550
H        0.5601571565   -1.5546628804    0.3935174097
O        2.1228888398   -0.3913284389   -0.2902109562
O        2.6879525156   -0.3280528700    1.0195172787
H       -1.8563514120   -0.2330712169    0.1176610728
O       -2.7805873298   -0.6314450138   -0.0394936750
H       -3.0179510105   -0.3599082285   -0.9332399861
H        2.8789342005   -1.2594081058    1.2087731321
$end

$rem
jobtype               freq
method                wb97x-v
basis                 def2-tzvpd
symmetry              off
sym_ignore            true
incdft                false
incfock               0
!scf_algorithm        diis_gdm
scf_convergence       8
thresh                14
!purecart             112
max_scf_cycles        1000
geom_opt_max_cycles   500
geom_opt_dmax         100
geom_opt_tol_gradient 10
solvent_method        pcm
ideriv                1
rpath_tol_displacement 1000
rpath_max_cycles      100
rpath_direction       1
!scf_guess            read
scf_guess             read
$end

$pcm
theory              cosmo
method              iswig
Radii               bondi
vdwScale            1.20
hpoints             110
heavypoints         110
$end

$solvent
dielectric 78.400000
$end

--------------------------------------------------------------
 ----------------------------------------------------------------
             Standard Nuclear Orientation (Angstroms)
    I     Atom           X                Y                Z
 ----------------------------------------------------------------
    1      C      -0.1632160805     0.4677295829     0.4072079458
    2      C      -0.4103694557     1.6904402579    -0.3322291614
    3      O      -0.2377826613     1.7200606394    -1.6084760568
    4      O      -0.8561721083     2.7244453712     0.2975351933
    5      C       0.6516563053    -0.6124799492    -0.1652222546
    6      H      -0.1305435824     0.5741438140     1.4933550955
    7      H       0.4154035697    -0.8022138171    -1.2191390550
    8      H       0.5601571565    -1.5546628804     0.3935174097
    9      O       2.1228888398    -0.3913284389    -0.2902109562
   10      O       2.6879525156    -0.3280528700     1.0195172787
   11      H      -1.8563514120    -0.2330712169     0.1176610728
   12      O      -2.7805873298    -0.6314450138    -0.0394936750
   13      H      -3.0179510105    -0.3599082285    -0.9332399861
   14      H       2.8789342005    -1.2594081058     1.2087731321
 ----------------------------------------------------------------
 Nuclear Repulsion Energy =   372.6103176451 hartrees
 There are       33 alpha and       33 beta electrons
 Requested basis set is def2-TZVPD
 There are 139 shells and 365 basis functions

 Total QAlloc Memory Limit   8000 MB
 Mega-Array Size      1956 MB
 MEM_STATIC part      2000 MB
 Discretize the solute cavity surface with Lebedev spheres
	Using 110 Lebedev grid points for each H atom
	Using 110 Lebedev grid points for other atoms
	Atomic van der Waals radii will be scaled by 1.20
 Remove points where switching function is < 1.0e-08
 Keep 901 surface tesserae and discard 639 interior tesserae
 Molecular Surface Area = 170.943 Angst**2

                       Distance Matrix (Angstroms)
             C (  1)   C (  2)   O (  3)   O (  4)   C (  5)   H (  6)
   C (  2)  1.450129
   O (  3)  2.374210  1.288204
   O (  4)  2.363257  1.290159  2.241444
   C (  5)  1.469199  2.541502  2.883544  3.690903
   H (  6)  1.091837  2.158050  3.308471  2.565213  2.184214
   H (  7)  2.143026  2.771612  2.634408  4.044074  1.096611  3.090314
   H (  8)  2.147912  3.464004  3.920268  4.508433  1.099214  2.493698
   O (  9)  2.539813  3.279165  3.430533  4.350666  1.493002  3.031700
   O ( 10)  3.022806  3.937148  4.434078  4.732845  2.372975  2.997065
   H ( 11)  1.855173  2.448093  3.068230  3.127238  2.552269  2.350009
   O ( 12)  2.873736  3.330882  3.802255  3.883164  3.434598  3.290259
   H ( 13)  3.260567  3.371146  3.537167  3.962491  3.757614  3.885607
   H ( 14)  3.588898  4.679296  5.150539  5.536467  2.695764  3.535514
             H (  7)   H (  8)   O (  9)   O ( 10)   H ( 11)   O ( 12)
   H (  8)  1.785439
   O (  9)  1.986766  2.064694
   O ( 10)  3.225041  2.534553  1.427827
   H ( 11)  2.696633  2.768071  4.003218  4.633904
   O ( 12)  3.411024  3.492908  4.915750  5.578394  1.018632
   H ( 13)  3.473514  3.998823  5.180995  6.030888  1.571558  0.963772
   H ( 14)  3.488949  2.475590  1.890005  0.969389  4.966571  5.829468
             H ( 13)
   H ( 14)  6.338026
 
 A cutoff of  1.0D-14 yielded   8993 shell pairs
 There are     62353 function pairs (     79469 Cartesian)
 
 -------------------------------------------------------
 OpenMP Integral Computing Module                       
 Release: version 1.0, May 2013, Q-Chem Inc. Pittsburgh 
 -------------------------------------------------------
 Integral Job Info:
 Integral job number is                      11
 Integral operator is                         1
 short-range coefficients              16700000
 long-range coefficients              100000000
 Omega coefficients                         300
 if combine SR and LR in K                    1
 Integral screening is                        0
 Integral computing path is                   2
 max size of driver memory is            800000
 size of driver memory is                776718
 size of scratch memory is              4473992
 max col of scratch BK array              10000
 max len of scratch array in speh3          662
 max len of scratch index in speh4           32
 max int batch size is                      520
 min int batch size is                       52
 fixed nKL is                                52
 max L of basis functions is                  3
 order of int derivative is                   0
 number of shells is                        139
 number of basis is                         413
 number of cartesian basis is               413
 number of contracted shell pairs          8993
 number of primitive shell pairs          18385
 maxK2 (contraction) of shell pair           36
 max number of K2 of shell pair               1
 max number of CS2 of shell pair           1470
 max number of PS2 of shell pair           2028
 mem total for path MDJ                  688060
 -------------------------------------------------------
 Smallest overlap matrix eigenvalue = 4.99E-06
 Guess MOs from SCF MO coefficient file
 Reading MOs from coefficient file
 Reading MOs from coefficient file
 Long-range K will be added via erf
 Coulomb attenuation parameter = 0.3 bohr**(-1)
 A restricted hybrid HF-DFT SCF calculation will be
 performed using Pulay DIIS extrapolation
 Polarizable Continuum solvation model will be applied
 Exchange:     0.1670 Hartree-Fock + 1.0000 wB97X-V + LR-HF
 Correlation:  1.0000 wB97X-V
 Using SG-2 standard quadrature grid
 Nonlocal Correlation:  VV10 with C = 0.0100 and b = 6.00
 Grid used for NLC:  SG-1 standard quadrature
 SCF converges when DIIS error is below 1.0E-08
Using Q-Chem read-in guess as SCF_GUESS READ specified.

 using 16 threads for integral computing
 -------------------------------------------------------
 OpenMP Integral computing Module                
 Release: version 1.0, May 2013, Q-Chem Inc. Pittsburgh 
 -------------------------------------------------------
 using 16 threads for integral computing
 -------------------------------------------------------
 OpenMP Integral computing Module                
 Release: version 1.0, May 2013, Q-Chem Inc. Pittsburgh 
 -------------------------------------------------------
 -------------------------------------------------------
 OpenMP BLAS3 based DFT computing Module                
 Release: version 1.0, May 2013, Q-Chem Inc. Pittsburgh 
 -------------------------------------------------------
 -------------------------------------------------------
 OpenMP BLAS3 based DFT computing Module                
 Release: version 1.0, May 2013, Q-Chem Inc. Pittsburgh 
 -------------------------------------------------------
 -------------------------------------------------------
 OpenMP BLAS3 based DFT computing Module                
 Release: version 1.0, May 2013, Q-Chem Inc. Pittsburgh 
 -------------------------------------------------------
 ---------------------------------------
  Cycle       Energy         DIIS Error
 ---------------------------------------
    1    -493.8896205947      6.15E-04
    2    -494.2308840217      6.74E-04
    3    -494.2417442059      3.00E-04
    4    -494.2435567296      2.19E-04
    5    -494.2445905067      1.66E-04
    6    -494.2451464534      1.30E-04
    7    -494.2455530689      9.64E-05
    8    -494.2457308807      7.73E-05
    9    -494.2458597872      5.99E-05
   10    -494.2459581881      4.20E-05
   11    -494.2459984766      3.19E-05
   12    -494.2460243189      2.32E-05
   13    -494.2460339589      1.89E-05
   14    -494.2460413973      1.47E-05
   15    -494.2460446317      1.25E-05
   16    -494.2460482847      9.40E-06
   17    -494.2460530007      1.12E-08
   18    -494.2460530007      4.30E-09 Convergence criterion met
 ---------------------------------------

************** Final PCM Free Energy Summary **************
 G_electrostatic  =      -0.35643346 hartree =    -223.66537004 kcal/mol
 G_cavitation     =       0.00000000 hartree =       0.00000000 kcal/mol
 G_dispersion     =       0.00000000 hartree =       0.00000000 kcal/mol
 G_repulsion      =       0.00000000 hartree =       0.00000000 kcal/mol
 --------------------------------------------------
 Non-electrostatic Free Energy =       0.00000000 hartree =       0.00000000 kcal/mol
 Total                         =      -0.35643346 hartree =    -223.66537004 kcal/mol
 --------------------------------------------------
 SCF Energy (H0 + V/2)                       =    -494.24605300 
 Solute Internal Energy (H0)                 =    -493.88961954 
 Total Free Energy (H0 + V/2 + non-elec)     =    -494.24605300 hartree
                                             = -310144.07926228 kcal/mol
***********************************************************

 SCF time:  CPU 2097.26 s  wall 151.28 s
 SCF   energy in the final basis set = -494.24605300
 Total energy in the final basis set = -494.24605300
 
 --------------------------------------------------------------
 
                    Orbital Energies (a.u.)
 --------------------------------------------------------------
 
 Alpha MOs
 -- Occupied --
-19.251 -19.241 -19.176 -19.108 -19.108 -10.307 -10.283 -10.175
 -1.230  -1.101  -1.093  -1.006  -1.001  -0.829  -0.716  -0.618
 -0.599  -0.570  -0.554  -0.550  -0.502  -0.498  -0.482  -0.460
 -0.455  -0.420  -0.398  -0.387  -0.365  -0.320  -0.317  -0.298
 -0.241
 -- Virtual --
  0.061   0.076   0.083   0.085   0.102   0.110   0.114   0.119
  0.128   0.140   0.146   0.154   0.160   0.164   0.170   0.172
  0.184   0.191   0.197   0.205   0.213   0.226   0.229   0.248
  0.254   0.261   0.269   0.273   0.292   0.296   0.306   0.308
  0.320   0.327   0.342   0.347   0.348   0.355   0.368   0.370
  0.374   0.378   0.379   0.389   0.399   0.401   0.409   0.418
  0.425   0.429   0.439   0.449   0.452   0.466   0.470   0.483
  0.488   0.494   0.500   0.508   0.518   0.520   0.527   0.535
  0.550   0.557   0.567   0.577   0.581   0.585   0.593   0.597
  0.605   0.618   0.626   0.639   0.640   0.649   0.656   0.661
  0.663   0.692   0.702   0.708   0.717   0.721   0.732   0.734
  0.741   0.760   0.763   0.766   0.770   0.778   0.806   0.810
  0.826   0.835   0.841   0.856   0.859   0.867   0.874   0.880
  0.882   0.906   0.918   0.926   0.956   0.960   0.970   0.985
  1.001   1.013   1.037   1.049   1.061   1.072   1.087   1.099
  1.134   1.137   1.153   1.165   1.172   1.197   1.204   1.232
  1.257   1.269   1.277   1.302   1.324   1.336   1.370   1.378
  1.400   1.421   1.424   1.477   1.480   1.511   1.556   1.581
  1.591   1.645   1.699   1.707   1.747   1.753   1.763   1.792
  1.816   1.894   1.903   1.915   1.929   1.947   1.961   1.968
  1.984   1.987   2.024   2.051   2.055   2.063   2.084   2.116
  2.128   2.158   2.174   2.192   2.219   2.248   2.259   2.275
  2.293   2.319   2.342   2.361   2.395   2.412   2.431   2.449
  2.470   2.486   2.492   2.546   2.562   2.578   2.622   2.657
  2.690   2.723   2.730   2.750   2.789   2.809   2.825   2.882
  2.912   2.939   2.956   2.971   2.983   2.991   3.002   3.023
  3.052   3.071   3.126   3.143   3.158   3.190   3.222   3.256
  3.266   3.270   3.314   3.356   3.380   3.408   3.432   3.439
  3.466   3.482   3.500   3.514   3.539   3.552   3.564   3.583
  3.622   3.650   3.667   3.670   3.707   3.729   3.738   3.758
  3.792   3.841   3.862   3.904   4.010   4.038   4.057   4.087
  4.159   4.215   4.285   4.332   4.371   4.391   4.452   4.533
  4.638   4.741   4.809   4.862   4.918   4.957   4.972   5.071
  5.109   5.114   5.204   5.221   5.252   5.351   5.371   5.385
  5.389   5.402   5.415   5.494   5.507   5.557   5.576   5.612
  5.636   5.684   5.722   5.751   5.784   5.872   5.993   6.000
  6.086   6.183   6.205   6.218   6.282   6.329   6.393   6.471
  6.556   6.595   6.617   6.632   6.656   6.672   6.683   6.694
  6.742   6.756   6.775   6.806   6.870   6.959   6.997   7.012
  7.046   7.055   7.111   7.268   7.292   7.295   7.357   7.395
  7.409   7.419   7.513   8.288  22.751  22.966  23.634  44.025
 44.078  44.347  44.456  44.569
 --------------------------------------------------------------
 
          Ground-State Mulliken Net Atomic Charges

     Atom                 Charge (a.u.)
  ----------------------------------------
      1 C                    -0.587946
      2 C                     0.299872
      3 O                    -0.785536
      4 O                    -0.812257
      5 C                    -0.036233
      6 H                     0.177071
      7 H                     0.123182
      8 H                     0.213790
      9 O                    -0.268102
     10 O                    -0.397213
     11 H                     0.155926
     12 O                    -0.781103
     13 H                     0.346926
     14 H                     0.351623
  ----------------------------------------
  Sum of atomic charges =    -2.000000

 -----------------------------------------------------------------
                    Cartesian Multipole Moments
 -----------------------------------------------------------------
    Charge (ESU x 10^10)
                -9.6064
    Dipole Moment (Debye)
         X       4.6441      Y     -15.7440      Z       2.7614
       Tot      16.6454
    Quadrupole Moments (Debye-Ang)
        XX     -76.2955     XY       1.3518     YY     -91.8756
        XZ       7.0791     YZ       4.2847     ZZ     -64.2511
    Octopole Moments (Debye-Ang^2)
       XXX      12.7313    XXY     -39.2574    XYY      41.7621
       YYY    -197.0346    XXZ      -6.8980    XYZ      -8.5743
       YYZ      18.6015    XZZ      -2.7702    YZZ     -56.3845
       ZZZ      30.6829
    Hexadecapole Moments (Debye-Ang^3)
      XXXX   -1039.0536   XXXY      13.1130   XXYY    -279.5040
      XYYY     144.9074   YYYY    -956.1587   XXXZ      23.4867
      XXYZ      -4.9602   XYYZ      -1.1932   YYYZ      52.8607
      XXZZ    -176.2909   XYZZ      25.9057   YYZZ    -192.6555
      XZZZ     -43.6906   YZZZ      78.2152   ZZZZ    -283.3219
 -----------------------------------------------------------------
 Calculating analytic gradient of the SCF energy
 Gradient of SCF Energy
            1           2           3           4           5           6
    1  -0.0156215   0.0060939   0.0013920   0.0186775  -0.0279473  -0.0257059
    2  -0.0109482   0.0662812  -0.0023600  -0.0481484  -0.0474292  -0.0192936
    3   0.1524008  -0.0626864   0.0535687  -0.0184885  -0.0635107  -0.0917818
            7           8           9          10          11          12
    1   0.0296252   0.0230516  -0.0097025   0.0164120  -0.0500414   0.0289130
    2   0.0106124   0.0612672  -0.0098566  -0.0376405  -0.0224846   0.0390620
    3   0.0682151  -0.0274322  -0.0351738   0.0371883  -0.0217978  -0.0468728
           13          14
    1   0.0158616  -0.0110081
    2  -0.0232706   0.0442089
    3   0.0626791  -0.0063080
 Max gradient component =       1.524E-01
 RMS gradient           =       4.483E-02
 Computing fast CPCM-ISWIG gradient
 Updating gradient with PCM contributions...
 -- total gradient after adding PCM contribution --
---------------------------------------------------
  Atom         X              Y              Z     
---------------------------------------------------
   1      -0.000002      -0.000000      -0.000001
   2       0.000006      -0.000006       0.000005
   3      -0.000005       0.000004      -0.000004
   4      -0.000002      -0.000001      -0.000002
   5       0.000013       0.000001      -0.000004
   6      -0.000003       0.000001      -0.000001
   7      -0.000002      -0.000002      -0.000000
   8      -0.000002      -0.000001      -0.000002
   9      -0.000012       0.000003       0.000002
  10       0.000002      -0.000000      -0.000000
  11       0.000012       0.000004       0.000002
  12      -0.000012      -0.000001       0.000006
  13       0.000007      -0.000003      -0.000003
  14      -0.000002       0.000001       0.000002
---------------------------------------------------
 Number of fixed atoms: 0
 Gradient time:  CPU 407.02 s  wall 30.05 s
 ######################################################
 ######################################################
 # Starting finite difference calculation for IDERIV  #
 Finite diff step size:  1.88973e-03 a.u.
 ----------------------------------------------------------------
             Standard Nuclear Orientation (Angstroms)
    I     Atom           X                Y                Z
 ----------------------------------------------------------------
    1      C      -0.1622160805     0.4677295829     0.4072079458
    2      C      -0.4103694557     1.6904402579    -0.3322291614
    3      O      -0.2377826613     1.7200606394    -1.6084760568
    4      O      -0.8561721083     2.7244453712     0.2975351933
    5      C       0.6516563053    -0.6124799492    -0.1652222546
    6      H      -0.1305435824     0.5741438140     1.4933550955
    7      H       0.4154035697    -0.8022138171    -1.2191390550
    8      H       0.5601571565    -1.5546628804     0.3935174097
    9      O       2.1228888398    -0.3913284389    -0.2902109562
   10      O       2.6879525156    -0.3280528700     1.0195172787
   11      H      -1.8563514120    -0.2330712169     0.1176610728
   12      O      -2.7805873298    -0.6314450138    -0.0394936750
   13      H      -3.0179510105    -0.3599082285    -0.9332399861
   14      H       2.8789342005    -1.2594081058     1.2087731321
 ----------------------------------------------------------------
 Nuclear Repulsion Energy =   372.6151591201 hartrees
 There are       33 alpha and       33 beta electrons
 Discretize the solute cavity surface with Lebedev spheres
	Using 110 Lebedev grid points for each H atom
	Using 110 Lebedev grid points for other atoms
	Atomic van der Waals radii will be scaled by 1.20
 Remove points where switching function is < 1.0e-08
 Keep 901 surface tesserae and discard 639 interior tesserae
 Molecular Surface Area = 170.942 Angst**2

                       Distance Matrix (Angstroms)
             C (  1)   C (  2)   O (  3)   O (  4)   C (  5)   H (  6)
   C (  2)  1.450300
   O (  3)  2.374242  1.288204
   O (  4)  2.363550  1.290159  2.241444
   C (  5)  1.468645  2.541502  2.883544  3.690903
   H (  6)  1.091807  2.158050  3.308471  2.565213  2.184214
   H (  7)  2.142756  2.771612  2.634408  4.044074  1.096611  3.090314
   H (  8)  2.147576  3.464004  3.920268  4.508433  1.099214  2.493698
   O (  9)  2.538913  3.279165  3.430533  4.350666  1.493002  3.031700
   O ( 10)  3.021863  3.937148  4.434078  4.732845  2.372975  2.997065
   H ( 11)  1.856086  2.448093  3.068230  3.127238  2.552269  2.350009
   O ( 12)  2.874647  3.330882  3.802255  3.883164  3.434598  3.290259
   H ( 13)  3.261442  3.371146  3.537167  3.962491  3.757614  3.885607
   H ( 14)  3.588050  4.679296  5.150539  5.536467  2.695764  3.535514
             H (  7)   H (  8)   O (  9)   O ( 10)   H ( 11)   O ( 12)
   H (  8)  1.785439
   O (  9)  1.986766  2.064694
   O ( 10)  3.225041  2.534553  1.427827
   H ( 11)  2.696633  2.768071  4.003218  4.633904
   O ( 12)  3.411024  3.492908  4.915750  5.578394  1.018632
   H ( 13)  3.473514  3.998823  5.180995  6.030888  1.571558  0.963772
   H ( 14)  3.488949  2.475590  1.890005  0.969389  4.966571  5.829468
             H ( 13)
   H ( 14)  6.338026
 
 Requested basis set is def2-TZVPD
 There are 139 shells and 365 basis functions
 A cutoff of  1.0D-14 yielded   8993 shell pairs
 There are     62353 function pairs (     79469 Cartesian)
 Smallest overlap matrix eigenvalue = 4.99E-06
 Guess MOs from SCF MO coefficient file
 Reading MOs from coefficient file
 Reading MOs from coefficient file
 Long-range K will be added via erf
 Coulomb attenuation parameter = 0.3 bohr**(-1)
 A restricted hybrid HF-DFT SCF calculation will be
 performed using Pulay DIIS extrapolation
 Polarizable Continuum solvation model will be applied
 Exchange:     0.1670 Hartree-Fock + 1.0000 wB97X-V + LR-HF
 Correlation:  1.0000 wB97X-V
 Using SG-2 standard quadrature grid
 Nonlocal Correlation:  VV10 with C = 0.0100 and b = 6.00
 Grid used for NLC:  SG-1 standard quadrature
 SCF converges when DIIS error is below 1.0E-08
Using Q-Chem read-in guess as SCF_GUESS READ specified.

 using 16 threads for integral computing
 -------------------------------------------------------
 OpenMP Integral computing Module                
 Release: version 1.0, May 2013, Q-Chem Inc. Pittsburgh 
 -------------------------------------------------------
 using 16 threads for integral computing
 -------------------------------------------------------
 OpenMP Integral computing Module                
 Release: version 1.0, May 2013, Q-Chem Inc. Pittsburgh 
 -------------------------------------------------------
 -------------------------------------------------------
 OpenMP BLAS3 based DFT computing Module                
 Release: version 1.0, May 2013, Q-Chem Inc. Pittsburgh 
 -------------------------------------------------------
 -------------------------------------------------------
 OpenMP BLAS3 based DFT computing Module                
 Release: version 1.0, May 2013, Q-Chem Inc. Pittsburgh 
 -------------------------------------------------------
 -------------------------------------------------------
 OpenMP BLAS3 based DFT computing Module                
 Release: version 1.0, May 2013, Q-Chem Inc. Pittsburgh 
 -------------------------------------------------------
 ---------------------------------------
  Cycle       Energy         DIIS Error
 ---------------------------------------
    1    -493.8897423518      6.15E-04
    2    -494.2308817358      6.74E-04
    3    -494.2417443935      3.00E-04
    4    -494.2435578294      2.19E-04
    5    -494.2445949849      1.66E-04
    6    -494.2451593240      1.29E-04
    7    -494.2455829063      9.33E-05
    8    -494.2457806964      7.10E-05
    9    -494.2459251609      4.87E-05
   10    -494.2460266728      2.20E-05
   11    -494.2460477582      9.60E-06
   12    -494.2460523890      2.21E-06
   13    -494.2460526126      7.78E-07
   14    -494.2460526424      1.75E-07
   15    -494.2460526438      5.99E-08
   16    -494.2460526440      1.24E-08
   17    -494.2460526440      1.36E-09 Convergence criterion met
 ---------------------------------------

************** Final PCM Free Energy Summary **************
 G_electrostatic  =      -0.35643769 hartree =    -223.66802648 kcal/mol
 G_cavitation     =       0.00000000 hartree =       0.00000000 kcal/mol
 G_dispersion     =       0.00000000 hartree =       0.00000000 kcal/mol
 G_repulsion      =       0.00000000 hartree =       0.00000000 kcal/mol
 --------------------------------------------------
 Non-electrostatic Free Energy =       0.00000000 hartree =       0.00000000 kcal/mol
 Total                         =      -0.35643769 hartree =    -223.66802648 kcal/mol
 --------------------------------------------------
 SCF Energy (H0 + V/2)                       =    -494.24605264 
 Solute Internal Energy (H0)                 =    -493.88961495 
 Total Free Energy (H0 + V/2 + non-elec)     =    -494.24605264 hartree
                                             = -310144.07903846 kcal/mol
***********************************************************

 SCF time:  CPU 2047.78 s  wall 146.93 s
 SCF   energy in the final basis set = -494.24605264
 Total energy in the final basis set = -494.24605264
 
 --------------------------------------------------------------
 
                    Orbital Energies (a.u.)
 --------------------------------------------------------------
 
 Alpha MOs
 -- Occupied --
-19.251 -19.241 -19.176 -19.108 -19.108 -10.307 -10.283 -10.175
 -1.230  -1.101  -1.093  -1.006  -1.001  -0.829  -0.716  -0.618
 -0.599  -0.570  -0.554  -0.550  -0.502  -0.498  -0.482  -0.460
 -0.455  -0.420  -0.398  -0.387  -0.365  -0.320  -0.317  -0.298
 -0.241
 -- Virtual --
  0.061   0.076   0.083   0.085   0.102   0.110   0.114   0.119
  0.128   0.140   0.146   0.154   0.160   0.164   0.170   0.172
  0.184   0.191   0.197   0.205   0.213   0.226   0.229   0.248
  0.254   0.261   0.269   0.273   0.292   0.296   0.306   0.308
  0.320   0.327   0.342   0.347   0.348   0.355   0.368   0.370
  0.374   0.378   0.379   0.389   0.399   0.401   0.409   0.418
  0.425   0.429   0.439   0.449   0.452   0.466   0.470   0.483
  0.488   0.494   0.500   0.508   0.518   0.520   0.527   0.535
  0.550   0.557   0.567   0.578   0.581   0.585   0.593   0.597
  0.605   0.618   0.626   0.639   0.640   0.649   0.656   0.661
  0.663   0.692   0.702   0.708   0.717   0.721   0.732   0.734
  0.741   0.759   0.763   0.766   0.770   0.778   0.806   0.810
  0.826   0.835   0.841   0.856   0.859   0.867   0.874   0.880
  0.882   0.906   0.918   0.926   0.956   0.960   0.970   0.985
  1.001   1.013   1.036   1.049   1.061   1.072   1.087   1.099
  1.134   1.137   1.153   1.165   1.171   1.197   1.204   1.232
  1.257   1.268   1.277   1.302   1.324   1.336   1.370   1.378
  1.400   1.421   1.424   1.477   1.480   1.511   1.556   1.581
  1.591   1.645   1.699   1.707   1.747   1.753   1.763   1.792
  1.816   1.894   1.903   1.915   1.929   1.947   1.961   1.968
  1.984   1.987   2.024   2.051   2.055   2.063   2.084   2.116
  2.128   2.158   2.174   2.192   2.219   2.248   2.259   2.275
  2.293   2.319   2.342   2.361   2.395   2.412   2.431   2.449
  2.470   2.486   2.492   2.546   2.562   2.578   2.622   2.657
  2.690   2.723   2.730   2.750   2.789   2.809   2.825   2.882
  2.913   2.938   2.957   2.971   2.983   2.991   3.002   3.023
  3.052   3.071   3.126   3.144   3.158   3.190   3.223   3.256
  3.266   3.270   3.314   3.356   3.380   3.408   3.432   3.439
  3.466   3.482   3.500   3.514   3.539   3.552   3.564   3.583
  3.622   3.650   3.667   3.670   3.707   3.729   3.738   3.758
  3.793   3.841   3.862   3.903   4.009   4.038   4.057   4.087
  4.159   4.215   4.285   4.332   4.371   4.391   4.452   4.533
  4.639   4.741   4.809   4.862   4.918   4.957   4.972   5.072
  5.109   5.114   5.204   5.221   5.252   5.351   5.371   5.385
  5.389   5.402   5.415   5.494   5.507   5.557   5.576   5.612
  5.636   5.684   5.722   5.751   5.784   5.872   5.993   6.000
  6.086   6.183   6.205   6.218   6.282   6.329   6.393   6.471
  6.556   6.595   6.617   6.632   6.656   6.672   6.683   6.694
  6.742   6.756   6.775   6.806   6.870   6.959   6.997   7.012
  7.046   7.055   7.110   7.268   7.292   7.295   7.357   7.395
  7.409   7.419   7.513   8.288  22.751  22.967  23.634  44.025
 44.077  44.347  44.456  44.569
 --------------------------------------------------------------
 
          Ground-State Mulliken Net Atomic Charges

     Atom                 Charge (a.u.)
  ----------------------------------------
      1 C                    -0.589284
      2 C                     0.301084
      3 O                    -0.785527
      4 O                    -0.812279
      5 C                    -0.036471
      6 H                     0.177397
      7 H                     0.123092
      8 H                     0.213900
      9 O                    -0.268142
     10 O                    -0.397198
     11 H                     0.155940
     12 O                    -0.781031
     13 H                     0.346921
     14 H                     0.351597
  ----------------------------------------
  Sum of atomic charges =    -2.000000

 -----------------------------------------------------------------
                    Cartesian Multipole Moments
 -----------------------------------------------------------------
    Charge (ESU x 10^10)
                -9.6064
    Dipole Moment (Debye)
         X       4.6370      Y     -15.7456      Z       2.7615
       Tot      16.6449
    Quadrupole Moments (Debye-Ang)
        XX     -76.2912     XY       1.3545     YY     -91.8757
        XZ       7.0771     YZ       4.2849     ZZ     -64.2525
    Octopole Moments (Debye-Ang^2)
       XXX      12.6609    XXY     -39.2640    XYY      41.7507
       YYY    -197.0336    XXZ      -6.8987    XYZ      -8.5772
       YYZ      18.6018    XZZ      -2.7820    YZZ     -56.3873
       ZZZ      30.6850
    Hexadecapole Moments (Debye-Ang^3)
      XXXX   -1038.9751   XXXY      13.1433   XXYY    -279.5023
      XYYY     144.9118   YYYY    -956.1376   XXXZ      23.4811
      XXYZ      -4.9585   XYYZ      -1.1991   YYYZ      52.8622
      XXZZ    -176.2908   XYZZ      25.9075   YYZZ    -192.6602
      XZZZ     -43.7054   YZZZ      78.2190   ZZZZ    -283.3335
 -----------------------------------------------------------------
 Calculating analytic gradient of the SCF energy
 Gradient of SCF Energy
            1           2           3           4           5           6
    1  -0.0157567   0.0061049   0.0014103   0.0186991  -0.0278911  -0.0255337
    2  -0.0117204   0.0667330  -0.0023473  -0.0481396  -0.0471380  -0.0192144
    3   0.1523747  -0.0627766   0.0535668  -0.0185016  -0.0634615  -0.0917856
            7           8           9          10          11          12
    1   0.0295813   0.0230391  -0.0097574   0.0164238  -0.0500662   0.0289026
    2   0.0105920   0.0612192  -0.0098330  -0.0376490  -0.0224977   0.0390557
    3   0.0682480  -0.0274360  -0.0351738   0.0371923  -0.0217619  -0.0468656
           13          14
    1   0.0158621  -0.0110182
    2  -0.0232702   0.0442095
    3   0.0626872  -0.0063063
 Max gradient component =       1.524E-01
 RMS gradient           =       4.484E-02
 Computing fast CPCM-ISWIG gradient
 Updating gradient with PCM contributions...
 -- total gradient after adding PCM contribution --
---------------------------------------------------
  Atom         X              Y              Z     
---------------------------------------------------
   1       0.000379      -0.000342      -0.000052
   2      -0.000140       0.000100      -0.000035
   3       0.000030       0.000002       0.000019
   4       0.000025       0.000040      -0.000011
   5      -0.000135       0.000127       0.000043
   6      -0.000035       0.000032      -0.000012
   7       0.000003      -0.000008       0.000004
   8      -0.000002       0.000004      -0.000002
   9      -0.000107       0.000048       0.000040
  10       0.000002       0.000005       0.000001
  11       0.000074       0.000035       0.000020
  12      -0.000094      -0.000038      -0.000015
  13       0.000004      -0.000005      -0.000003
  14      -0.000002      -0.000000       0.000002
---------------------------------------------------
 Number of fixed atoms: 0
 Gradient time:  CPU 413.36 s  wall 30.40 s
 ----------------------------------------------------------------
             Standard Nuclear Orientation (Angstroms)
    I     Atom           X                Y                Z
 ----------------------------------------------------------------
    1      C      -0.1642160805     0.4677295829     0.4072079458
    2      C      -0.4103694557     1.6904402579    -0.3322291614
    3      O      -0.2377826613     1.7200606394    -1.6084760568
    4      O      -0.8561721083     2.7244453712     0.2975351933
    5      C       0.6516563053    -0.6124799492    -0.1652222546
    6      H      -0.1305435824     0.5741438140     1.4933550955
    7      H       0.4154035697    -0.8022138171    -1.2191390550
    8      H       0.5601571565    -1.5546628804     0.3935174097
    9      O       2.1228888398    -0.3913284389    -0.2902109562
   10      O       2.6879525156    -0.3280528700     1.0195172787
   11      H      -1.8563514120    -0.2330712169     0.1176610728
   12      O      -2.7805873298    -0.6314450138    -0.0394936750
   13      H      -3.0179510105    -0.3599082285    -0.9332399861
   14      H       2.8789342005    -1.2594081058     1.2087731321
 ----------------------------------------------------------------
 Nuclear Repulsion Energy =   372.6054700771 hartrees
 There are       33 alpha and       33 beta electrons
 Discretize the solute cavity surface with Lebedev spheres
	Using 110 Lebedev grid points for each H atom
	Using 110 Lebedev grid points for other atoms
	Atomic van der Waals radii will be scaled by 1.20
 Remove points where switching function is < 1.0e-08
 Keep 901 surface tesserae and discard 639 interior tesserae
 Molecular Surface Area = 170.945 Angst**2

                       Distance Matrix (Angstroms)
             C (  1)   C (  2)   O (  3)   O (  4)   C (  5)   H (  6)
   C (  2)  1.449959
   O (  3)  2.374179  1.288204
   O (  4)  2.362964  1.290159  2.241444
   C (  5)  1.469754  2.541502  2.883544  3.690903
   H (  6)  1.091867  2.158050  3.308471  2.565213  2.184214
   H (  7)  2.143296  2.771612  2.634408  4.044074  1.096611  3.090314
   H (  8)  2.148249  3.464004  3.920268  4.508433  1.099214  2.493698
   O (  9)  2.540713  3.279165  3.430533  4.350666  1.493002  3.031700
   O ( 10)  3.023749  3.937148  4.434078  4.732845  2.372975  2.997065
   H ( 11)  1.854260  2.448093  3.068230  3.127238  2.552269  2.350009
   O ( 12)  2.872825  3.330882  3.802255  3.883164  3.434598  3.290259
   H ( 13)  3.259691  3.371146  3.537167  3.962491  3.757614  3.885607
   H ( 14)  3.589746  4.679296  5.150539  5.536467  2.695764  3.535514
             H (  7)   H (  8)   O (  9)   O ( 10)   H ( 11)   O ( 12)
   H (  8)  1.785439
   O (  9)  1.986766  2.064694
   O ( 10)  3.225041  2.534553  1.427827
   H ( 11)  2.696633  2.768071  4.003218  4.633904
   O ( 12)  3.411024  3.492908  4.915750  5.578394  1.018632
   H ( 13)  3.473514  3.998823  5.180995  6.030888  1.571558  0.963772
   H ( 14)  3.488949  2.475590  1.890005  0.969389  4.966571  5.829468
             H ( 13)
   H ( 14)  6.338026
 
 Requested basis set is def2-TZVPD
 There are 139 shells and 365 basis functions
 A cutoff of  1.0D-14 yielded   8993 shell pairs
 There are     62353 function pairs (     79469 Cartesian)
 Smallest overlap matrix eigenvalue = 4.99E-06
 Guess MOs from SCF MO coefficient file
 Reading MOs from coefficient file
 Reading MOs from coefficient file
 Long-range K will be added via erf
 Coulomb attenuation parameter = 0.3 bohr**(-1)
 A restricted hybrid HF-DFT SCF calculation will be
 performed using Pulay DIIS extrapolation
 Polarizable Continuum solvation model will be applied
 Exchange:     0.1670 Hartree-Fock + 1.0000 wB97X-V + LR-HF
 Correlation:  1.0000 wB97X-V
 Using SG-2 standard quadrature grid
 Nonlocal Correlation:  VV10 with C = 0.0100 and b = 6.00
 Grid used for NLC:  SG-1 standard quadrature
 SCF converges when DIIS error is below 1.0E-08
Using Q-Chem read-in guess as SCF_GUESS READ specified.

 using 16 threads for integral computing
 -------------------------------------------------------
 OpenMP Integral computing Module                
 Release: version 1.0, May 2013, Q-Chem Inc. Pittsburgh 
 -------------------------------------------------------
 using 16 threads for integral computing
 -------------------------------------------------------
 OpenMP Integral computing Module                
 Release: version 1.0, May 2013, Q-Chem Inc. Pittsburgh 
 -------------------------------------------------------
 -------------------------------------------------------
 OpenMP BLAS3 based DFT computing Module                
 Release: version 1.0, May 2013, Q-Chem Inc. Pittsburgh 
 -------------------------------------------------------
 -------------------------------------------------------
 OpenMP BLAS3 based DFT computing Module                
 Release: version 1.0, May 2013, Q-Chem Inc. Pittsburgh 
 -------------------------------------------------------
 -------------------------------------------------------
 OpenMP BLAS3 based DFT computing Module                
 Release: version 1.0, May 2013, Q-Chem Inc. Pittsburgh 
 -------------------------------------------------------
 ---------------------------------------
  Cycle       Energy         DIIS Error
 ---------------------------------------
    1    -493.8893735827      6.16E-04
    2    -494.2308832907      6.73E-04
    3    -494.2417496130      2.99E-04
    4    -494.2435652041      2.19E-04
    5    -494.2446155875      1.65E-04
    6    -494.2452050665      1.26E-04
    7    -494.2456674036      8.43E-05
    8    -494.2458826718      5.60E-05
    9    -494.2460054893      2.95E-05
   10    -494.2460498049      7.29E-06
   11    -494.2460524143      2.06E-06
   12    -494.2460526319      3.55E-07
   13    -494.2460526377      1.06E-07
   14    -494.2460526382      2.41E-08
   15    -494.2460526382      8.48E-09 Convergence criterion met
 ---------------------------------------

************** Final PCM Free Energy Summary **************
 G_electrostatic  =      -0.35642909 hartree =    -223.66262722 kcal/mol
 G_cavitation     =       0.00000000 hartree =       0.00000000 kcal/mol
 G_dispersion     =       0.00000000 hartree =       0.00000000 kcal/mol
 G_repulsion      =       0.00000000 hartree =       0.00000000 kcal/mol
 --------------------------------------------------
 Non-electrostatic Free Energy =       0.00000000 hartree =       0.00000000 kcal/mol
 Total                         =      -0.35642909 hartree =    -223.66262722 kcal/mol
 --------------------------------------------------
 SCF Energy (H0 + V/2)                       =    -494.24605264 
 Solute Internal Energy (H0)                 =    -493.88962355 
 Total Free Energy (H0 + V/2 + non-elec)     =    -494.24605264 hartree
                                             = -310144.07903485 kcal/mol
***********************************************************

 SCF time:  CPU 1751.65 s  wall 126.05 s
 SCF   energy in the final basis set = -494.24605264
 Total energy in the final basis set = -494.24605264
 
 --------------------------------------------------------------
 
                    Orbital Energies (a.u.)
 --------------------------------------------------------------
 
 Alpha MOs
 -- Occupied --
-19.251 -19.241 -19.176 -19.108 -19.108 -10.307 -10.283 -10.175
 -1.230  -1.101  -1.093  -1.006  -1.001  -0.829  -0.716  -0.618
 -0.599  -0.570  -0.554  -0.550  -0.502  -0.498  -0.482  -0.460
 -0.455  -0.420  -0.398  -0.387  -0.365  -0.320  -0.317  -0.298
 -0.241
 -- Virtual --
  0.061   0.076   0.083   0.085   0.102   0.110   0.114   0.119
  0.128   0.140   0.146   0.154   0.160   0.164   0.170   0.172
  0.184   0.191   0.197   0.205   0.213   0.226   0.229   0.248
  0.254   0.261   0.269   0.273   0.292   0.296   0.306   0.308
  0.320   0.327   0.342   0.347   0.348   0.355   0.368   0.370
  0.374   0.378   0.379   0.389   0.399   0.401   0.410   0.418
  0.425   0.429   0.439   0.449   0.452   0.466   0.470   0.483
  0.488   0.494   0.500   0.508   0.518   0.520   0.527   0.535
  0.550   0.557   0.567   0.577   0.581   0.585   0.593   0.597
  0.605   0.618   0.626   0.639   0.640   0.649   0.656   0.661
  0.663   0.692   0.702   0.708   0.716   0.721   0.732   0.734
  0.741   0.760   0.763   0.766   0.770   0.778   0.806   0.810
  0.826   0.835   0.841   0.856   0.859   0.867   0.874   0.880
  0.882   0.906   0.918   0.926   0.956   0.960   0.970   0.985
  1.001   1.013   1.037   1.049   1.061   1.073   1.087   1.099
  1.134   1.137   1.153   1.165   1.172   1.197   1.205   1.232
  1.257   1.269   1.277   1.302   1.324   1.336   1.370   1.378
  1.400   1.421   1.424   1.477   1.480   1.511   1.556   1.581
  1.591   1.645   1.699   1.707   1.747   1.753   1.763   1.792
  1.816   1.893   1.903   1.915   1.929   1.948   1.961   1.968
  1.984   1.987   2.024   2.051   2.055   2.063   2.084   2.116
  2.128   2.158   2.174   2.192   2.219   2.248   2.259   2.274
  2.293   2.319   2.342   2.362   2.395   2.412   2.431   2.449
  2.470   2.486   2.492   2.546   2.562   2.577   2.621   2.657
  2.690   2.722   2.730   2.750   2.789   2.809   2.825   2.882
  2.912   2.939   2.956   2.971   2.983   2.991   3.002   3.023
  3.053   3.071   3.126   3.143   3.158   3.190   3.222   3.256
  3.266   3.269   3.313   3.355   3.380   3.408   3.432   3.438
  3.467   3.482   3.500   3.514   3.539   3.552   3.564   3.583
  3.623   3.650   3.667   3.670   3.707   3.729   3.738   3.758
  3.792   3.841   3.862   3.904   4.010   4.038   4.057   4.087
  4.159   4.215   4.285   4.332   4.371   4.391   4.452   4.533
  4.638   4.741   4.808   4.862   4.918   4.957   4.972   5.071
  5.109   5.114   5.204   5.221   5.252   5.351   5.371   5.385
  5.389   5.402   5.415   5.494   5.507   5.558   5.576   5.612
  5.636   5.683   5.722   5.751   5.784   5.872   5.993   6.000
  6.086   6.183   6.205   6.218   6.282   6.329   6.393   6.471
  6.556   6.595   6.617   6.632   6.656   6.672   6.683   6.694
  6.742   6.756   6.775   6.806   6.870   6.959   6.997   7.011
  7.046   7.055   7.111   7.268   7.292   7.295   7.357   7.395
  7.409   7.419   7.513   8.288  22.750  22.965  23.634  44.024
 44.078  44.347  44.456  44.569
 --------------------------------------------------------------
 
          Ground-State Mulliken Net Atomic Charges

     Atom                 Charge (a.u.)
  ----------------------------------------
      1 C                    -0.586600
      2 C                     0.298661
      3 O                    -0.785545
      4 O                    -0.812234
      5 C                    -0.036007
      6 H                     0.176744
      7 H                     0.123272
      8 H                     0.213682
      9 O                    -0.268061
     10 O                    -0.397229
     11 H                     0.155913
     12 O                    -0.781176
     13 H                     0.346932
     14 H                     0.351648
  ----------------------------------------
  Sum of atomic charges =    -2.000000

 -----------------------------------------------------------------
                    Cartesian Multipole Moments
 -----------------------------------------------------------------
    Charge (ESU x 10^10)
                -9.6064
    Dipole Moment (Debye)
         X       4.6512      Y     -15.7425      Z       2.7614
       Tot      16.6458
    Quadrupole Moments (Debye-Ang)
        XX     -76.2999     XY       1.3491     YY     -91.8755
        XZ       7.0812     YZ       4.2845     ZZ     -64.2497
    Octopole Moments (Debye-Ang^2)
       XXX      12.8019    XXY     -39.2507    XYY      41.7734
       YYY    -197.0355    XXZ      -6.8973    XYZ      -8.5712
       YYZ      18.6012    XZZ      -2.7584    YZZ     -56.3817
       ZZZ      30.6807
    Hexadecapole Moments (Debye-Ang^3)
      XXXX   -1039.1330   XXXY      13.0825   XXYY    -279.5059
      XYYY     144.9029   YYYY    -956.1796   XXXZ      23.4923
      XXYZ      -4.9619   XYYZ      -1.1874   YYYZ      52.8591
      XXZZ    -176.2911   XYZZ      25.9038   YYZZ    -192.6508
      XZZZ     -43.6758   YZZZ      78.2114   ZZZZ    -283.3104
 -----------------------------------------------------------------
 Calculating analytic gradient of the SCF energy
 Gradient of SCF Energy
            1           2           3           4           5           6
    1  -0.0154862   0.0060851   0.0013735   0.0186558  -0.0280058  -0.0258777
    2  -0.0101792   0.0658312  -0.0023728  -0.0481571  -0.0477197  -0.0193722
    3   0.1524244  -0.0625955   0.0535706  -0.0184753  -0.0635595  -0.0917767
            7           8           9          10          11          12
    1   0.0296686   0.0230644  -0.0096476   0.0164001  -0.0500164   0.0289234
    2   0.0106328   0.0613150  -0.0098799  -0.0376319  -0.0224715   0.0390683
    3   0.0681828  -0.0274285  -0.0351738   0.0371843  -0.0218338  -0.0468800
           13          14
    1   0.0158610  -0.0109981
    2  -0.0232710   0.0442082
    3   0.0626708  -0.0063097
 Max gradient component =       1.524E-01
 RMS gradient           =       4.482E-02
 Computing fast CPCM-ISWIG gradient
 Updating gradient with PCM contributions...
 -- total gradient after adding PCM contribution --
---------------------------------------------------
  Atom         X              Y              Z     
---------------------------------------------------
   1      -0.000382       0.000341       0.000049
   2       0.000152      -0.000111       0.000046
   3      -0.000039       0.000006      -0.000026
   4      -0.000029      -0.000042       0.000006
   5       0.000161      -0.000125      -0.000051
   6       0.000029      -0.000031       0.000012
   7      -0.000006       0.000005      -0.000005
   8      -0.000002      -0.000005      -0.000001
   9       0.000084      -0.000042      -0.000036
  10       0.000002      -0.000005      -0.000002
  11      -0.000050      -0.000028      -0.000016
  12       0.000071       0.000036       0.000027
  13       0.000011      -0.000000      -0.000003
  14      -0.000002       0.000002       0.000001
---------------------------------------------------
 Number of fixed atoms: 0
 Gradient time:  CPU 406.17 s  wall 29.88 s
 ----------------------------------------------------------------
             Standard Nuclear Orientation (Angstroms)
    I     Atom           X                Y                Z
 ----------------------------------------------------------------
    1      C      -0.1632160805     0.4687295829     0.4072079458
    2      C      -0.4103694557     1.6904402579    -0.3322291614
    3      O      -0.2377826613     1.7200606394    -1.6084760568
    4      O      -0.8561721083     2.7244453712     0.2975351933
    5      C       0.6516563053    -0.6124799492    -0.1652222546
    6      H      -0.1305435824     0.5741438140     1.4933550955
    7      H       0.4154035697    -0.8022138171    -1.2191390550
    8      H       0.5601571565    -1.5546628804     0.3935174097
    9      O       2.1228888398    -0.3913284389    -0.2902109562
   10      O       2.6879525156    -0.3280528700     1.0195172787
   11      H      -1.8563514120    -0.2330712169     0.1176610728
   12      O      -2.7805873298    -0.6314450138    -0.0394936750
   13      H      -3.0179510105    -0.3599082285    -0.9332399861
   14      H       2.8789342005    -1.2594081058     1.2087731321
 ----------------------------------------------------------------
 Nuclear Repulsion Energy =   372.6136105867 hartrees
 There are       33 alpha and       33 beta electrons
 Discretize the solute cavity surface with Lebedev spheres
	Using 110 Lebedev grid points for each H atom
	Using 110 Lebedev grid points for other atoms
	Atomic van der Waals radii will be scaled by 1.20
 Remove points where switching function is < 1.0e-08
 Keep 901 surface tesserae and discard 639 interior tesserae
 Molecular Surface Area = 170.944 Angst**2

                       Distance Matrix (Angstroms)
             C (  1)   C (  2)   O (  3)   O (  4)   C (  5)   H (  6)
   C (  2)  1.449286
   O (  3)  2.373683  1.288204
   O (  4)  2.362302  1.290159  2.241444
   C (  5)  1.469934  2.541502  2.883544  3.690903
   H (  6)  1.091740  2.158050  3.308471  2.565213  2.184214
   H (  7)  2.143619  2.771612  2.634408  4.044074  1.096611  3.090314
   H (  8)  2.148854  3.464004  3.920268  4.508433  1.099214  2.493698
   O (  9)  2.540151  3.279165  3.430533  4.350666  1.493002  3.031700
   O ( 10)  3.023069  3.937148  4.434078  4.732845  2.372975  2.997065
   H ( 11)  1.855551  2.448093  3.068230  3.127238  2.552269  2.350009
   O ( 12)  2.874119  3.330882  3.802255  3.883164  3.434598  3.290259
   H ( 13)  3.260821  3.371146  3.537167  3.962491  3.757614  3.885607
   H ( 14)  3.589379  4.679296  5.150539  5.536467  2.695764  3.535514
             H (  7)   H (  8)   O (  9)   O ( 10)   H ( 11)   O ( 12)
   H (  8)  1.785439
   O (  9)  1.986766  2.064694
   O ( 10)  3.225041  2.534553  1.427827
   H ( 11)  2.696633  2.768071  4.003218  4.633904
   O ( 12)  3.411024  3.492908  4.915750  5.578394  1.018632
   H ( 13)  3.473514  3.998823  5.180995  6.030888  1.571558  0.963772
   H ( 14)  3.488949  2.475590  1.890005  0.969389  4.966571  5.829468
             H ( 13)
   H ( 14)  6.338026
 
 Requested basis set is def2-TZVPD
 There are 139 shells and 365 basis functions
 A cutoff of  1.0D-14 yielded   8993 shell pairs
 There are     62353 function pairs (     79469 Cartesian)
 Smallest overlap matrix eigenvalue = 4.98E-06
 Guess MOs from SCF MO coefficient file
 Reading MOs from coefficient file
 Reading MOs from coefficient file
 Long-range K will be added via erf
 Coulomb attenuation parameter = 0.3 bohr**(-1)
 A restricted hybrid HF-DFT SCF calculation will be
 performed using Pulay DIIS extrapolation
 Polarizable Continuum solvation model will be applied
 Exchange:     0.1670 Hartree-Fock + 1.0000 wB97X-V + LR-HF
 Correlation:  1.0000 wB97X-V
 Using SG-2 standard quadrature grid
 Nonlocal Correlation:  VV10 with C = 0.0100 and b = 6.00
 Grid used for NLC:  SG-1 standard quadrature
 SCF converges when DIIS error is below 1.0E-08
Using Q-Chem read-in guess as SCF_GUESS READ specified.

 using 16 threads for integral computing
 -------------------------------------------------------
 OpenMP Integral computing Module                
 Release: version 1.0, May 2013, Q-Chem Inc. Pittsburgh 
 -------------------------------------------------------
 using 16 threads for integral computing
 -------------------------------------------------------
 OpenMP Integral computing Module                
 Release: version 1.0, May 2013, Q-Chem Inc. Pittsburgh 
 -------------------------------------------------------
 -------------------------------------------------------
 OpenMP BLAS3 based DFT computing Module                
 Release: version 1.0, May 2013, Q-Chem Inc. Pittsburgh 
 -------------------------------------------------------
 -------------------------------------------------------
 OpenMP BLAS3 based DFT computing Module                
 Release: version 1.0, May 2013, Q-Chem Inc. Pittsburgh 
 -------------------------------------------------------
 -------------------------------------------------------
 OpenMP BLAS3 based DFT computing Module                
 Release: version 1.0, May 2013, Q-Chem Inc. Pittsburgh 
 -------------------------------------------------------
 ---------------------------------------
  Cycle       Energy         DIIS Error
 ---------------------------------------
    1    -493.8896957432      6.15E-04
    2    -494.2308881204      6.73E-04
    3    -494.2417437084      3.00E-04
    4    -494.2435569804      2.19E-04
    5    -494.2445971628      1.66E-04
    6    -494.2451654919      1.29E-04
    7    -494.2456032101      9.12E-05
    8    -494.2458156261      6.62E-05
    9    -494.2459616431      4.09E-05
   10    -494.2460418138      1.39E-05
   11    -494.2460509919      4.70E-06
   12    -494.2460521223      8.25E-07
   13    -494.2460521534      2.70E-07
   14    -494.2460521570      5.34E-08
   15    -494.2460521571      1.78E-08
   16    -494.2460521571      3.45E-09 Convergence criterion met
 ---------------------------------------

************** Final PCM Free Energy Summary **************
 G_electrostatic  =      -0.35648572 hartree =    -223.69816688 kcal/mol
 G_cavitation     =       0.00000000 hartree =       0.00000000 kcal/mol
 G_dispersion     =       0.00000000 hartree =       0.00000000 kcal/mol
 G_repulsion      =       0.00000000 hartree =       0.00000000 kcal/mol
 --------------------------------------------------
 Non-electrostatic Free Energy =       0.00000000 hartree =       0.00000000 kcal/mol
 Total                         =      -0.35648572 hartree =    -223.69816688 kcal/mol
 --------------------------------------------------
 SCF Energy (H0 + V/2)                       =    -494.24605216 
 Solute Internal Energy (H0)                 =    -493.88956644 
 Total Free Energy (H0 + V/2 + non-elec)     =    -494.24605216 hartree
                                             = -310144.07873294 kcal/mol
***********************************************************

 SCF time:  CPU 1864.17 s  wall 134.31 s
 SCF   energy in the final basis set = -494.24605216
 Total energy in the final basis set = -494.24605216
 
 --------------------------------------------------------------
 
                    Orbital Energies (a.u.)
 --------------------------------------------------------------
 
 Alpha MOs
 -- Occupied --
-19.251 -19.241 -19.176 -19.108 -19.107 -10.307 -10.283 -10.175
 -1.230  -1.101  -1.093  -1.006  -1.001  -0.828  -0.716  -0.618
 -0.599  -0.570  -0.554  -0.550  -0.502  -0.498  -0.482  -0.460
 -0.455  -0.420  -0.398  -0.387  -0.365  -0.320  -0.317  -0.298
 -0.241
 -- Virtual --
  0.061   0.076   0.083   0.085   0.102   0.110   0.114   0.119
  0.128   0.140   0.146   0.154   0.160   0.164   0.170   0.172
  0.184   0.191   0.197   0.205   0.213   0.226   0.229   0.248
  0.254   0.261   0.269   0.273   0.292   0.296   0.306   0.308
  0.320   0.327   0.342   0.347   0.348   0.355   0.368   0.370
  0.374   0.378   0.379   0.388   0.399   0.401   0.410   0.418
  0.425   0.429   0.439   0.449   0.452   0.466   0.470   0.483
  0.488   0.494   0.500   0.508   0.518   0.520   0.527   0.535
  0.550   0.557   0.567   0.577   0.581   0.585   0.593   0.597
  0.605   0.618   0.626   0.639   0.640   0.649   0.656   0.661
  0.663   0.692   0.702   0.708   0.717   0.721   0.732   0.734
  0.741   0.760   0.763   0.766   0.770   0.778   0.806   0.810
  0.826   0.835   0.841   0.856   0.859   0.867   0.874   0.880
  0.882   0.906   0.918   0.926   0.956   0.960   0.970   0.985
  1.001   1.013   1.036   1.049   1.061   1.072   1.087   1.099
  1.134   1.137   1.153   1.165   1.171   1.197   1.204   1.232
  1.257   1.269   1.277   1.302   1.324   1.336   1.370   1.378
  1.400   1.421   1.424   1.477   1.480   1.511   1.556   1.581
  1.591   1.645   1.699   1.707   1.747   1.753   1.763   1.792
  1.816   1.893   1.903   1.915   1.929   1.947   1.961   1.968
  1.984   1.987   2.024   2.051   2.055   2.063   2.084   2.116
  2.128   2.158   2.174   2.192   2.219   2.248   2.259   2.275
  2.293   2.319   2.342   2.361   2.395   2.412   2.431   2.449
  2.470   2.486   2.492   2.546   2.562   2.578   2.622   2.657
  2.690   2.723   2.730   2.751   2.789   2.809   2.825   2.882
  2.912   2.938   2.957   2.971   2.983   2.991   3.002   3.022
  3.053   3.071   3.126   3.143   3.158   3.190   3.222   3.256
  3.266   3.270   3.314   3.356   3.380   3.408   3.432   3.439
  3.466   3.482   3.500   3.514   3.539   3.553   3.564   3.583
  3.622   3.650   3.667   3.670   3.707   3.729   3.738   3.758
  3.793   3.841   3.862   3.904   4.010   4.037   4.057   4.087
  4.159   4.215   4.285   4.333   4.371   4.390   4.452   4.533
  4.638   4.741   4.809   4.862   4.918   4.957   4.972   5.071
  5.109   5.114   5.204   5.221   5.252   5.351   5.371   5.386
  5.389   5.402   5.416   5.494   5.507   5.557   5.576   5.612
  5.636   5.684   5.722   5.751   5.784   5.872   5.993   6.000
  6.086   6.183   6.205   6.218   6.282   6.329   6.393   6.471
  6.556   6.595   6.617   6.632   6.656   6.672   6.683   6.694
  6.742   6.756   6.775   6.806   6.870   6.959   6.997   7.011
  7.046   7.055   7.110   7.268   7.292   7.295   7.358   7.396
  7.409   7.419   7.513   8.288  22.750  22.966  23.635  44.024
 44.077  44.347  44.456  44.569
 --------------------------------------------------------------
 
          Ground-State Mulliken Net Atomic Charges

     Atom                 Charge (a.u.)
  ----------------------------------------
      1 C                    -0.587846
      2 C                     0.299840
      3 O                    -0.785748
      4 O                    -0.812451
      5 C                    -0.036594
      6 H                     0.177330
      7 H                     0.123310
      8 H                     0.214045
      9 O                    -0.268130
     10 O                    -0.397206
     11 H                     0.155922
     12 O                    -0.781039
     13 H                     0.346944
     14 H                     0.351623
  ----------------------------------------
  Sum of atomic charges =    -2.000000

 -----------------------------------------------------------------
                    Cartesian Multipole Moments
 -----------------------------------------------------------------
    Charge (ESU x 10^10)
                -9.6064
    Dipole Moment (Debye)
         X       4.6447      Y     -15.7528      Z       2.7636
       Tot      16.6542
    Quadrupole Moments (Debye-Ang)
        XX     -76.2881     XY       1.3570     YY     -91.8909
        XZ       7.0785     YZ       4.2857     ZZ     -64.2523
    Octopole Moments (Debye-Ang^2)
       XXX      12.7259    XXY     -39.2793    XYY      41.7765
       YYY    -197.1143    XXZ      -6.8966    XYZ      -8.5745
       YYZ      18.6047    XZZ      -2.7682    YZZ     -56.4017
       ZZZ      30.6952
    Hexadecapole Moments (Debye-Ang^3)
      XXXX   -1038.9506   XXXY      13.1414   XXYY    -279.5265
      XYYY     144.9567   YYYY    -956.3757   XXXZ      23.4897
      XXYZ      -4.9607   XYYZ      -1.1935   YYYZ      52.8589
      XXZZ    -176.2844   XYZZ      25.9117   YYZZ    -192.6828
      XZZZ     -43.6937   YZZZ      78.2203   ZZZZ    -283.3327
 -----------------------------------------------------------------
 Calculating analytic gradient of the SCF energy
 Gradient of SCF Energy
            1           2           3           4           5           6
    1  -0.0160622   0.0063313   0.0013934   0.0186961  -0.0278394  -0.0256116
    2  -0.0102581   0.0660002  -0.0023266  -0.0481816  -0.0478936  -0.0191800
    3   0.1522918  -0.0625428   0.0535971  -0.0184903  -0.0635297  -0.0918483
            7           8           9          10          11          12
    1   0.0295917   0.0230602  -0.0096776   0.0164041  -0.0500416   0.0289054
    2   0.0105793   0.0612441  -0.0098320  -0.0376346  -0.0224997   0.0390589
    3   0.0682487  -0.0274492  -0.0351700   0.0371801  -0.0217850  -0.0468758
           13          14
    1   0.0158600  -0.0110096
    2  -0.0232763   0.0442000
    3   0.0626819  -0.0063084
 Max gradient component =       1.523E-01
 RMS gradient           =       4.482E-02
 Computing fast CPCM-ISWIG gradient
 Updating gradient with PCM contributions...
 -- total gradient after adding PCM contribution --
---------------------------------------------------
  Atom         X              Y              Z     
---------------------------------------------------
   1      -0.000343       0.000893      -0.000001
   2       0.000045      -0.000299       0.000084
   3      -0.000006       0.000002       0.000075
   4       0.000058      -0.000147      -0.000008
   5       0.000128      -0.000327      -0.000079
   6       0.000027      -0.000087      -0.000041
   7       0.000009      -0.000003      -0.000010
   8       0.000030      -0.000036      -0.000022
   9       0.000044       0.000021      -0.000008
  10       0.000007      -0.000002       0.000002
  11       0.000061      -0.000003       0.000014
  12      -0.000061      -0.000008      -0.000006
  13       0.000004      -0.000004      -0.000003
  14      -0.000003       0.000002       0.000002
---------------------------------------------------
 Number of fixed atoms: 0
 Gradient time:  CPU 411.42 s  wall 30.28 s
 ----------------------------------------------------------------
             Standard Nuclear Orientation (Angstroms)
    I     Atom           X                Y                Z
 ----------------------------------------------------------------
    1      C      -0.1632160805     0.4667295829     0.4072079458
    2      C      -0.4103694557     1.6904402579    -0.3322291614
    3      O      -0.2377826613     1.7200606394    -1.6084760568
    4      O      -0.8561721083     2.7244453712     0.2975351933
    5      C       0.6516563053    -0.6124799492    -0.1652222546
    6      H      -0.1305435824     0.5741438140     1.4933550955
    7      H       0.4154035697    -0.8022138171    -1.2191390550
    8      H       0.5601571565    -1.5546628804     0.3935174097
    9      O       2.1228888398    -0.3913284389    -0.2902109562
   10      O       2.6879525156    -0.3280528700     1.0195172787
   11      H      -1.8563514120    -0.2330712169     0.1176610728
   12      O      -2.7805873298    -0.6314450138    -0.0394936750
   13      H      -3.0179510105    -0.3599082285    -0.9332399861
   14      H       2.8789342005    -1.2594081058     1.2087731321
 ----------------------------------------------------------------
 Nuclear Repulsion Energy =   372.6070339942 hartrees
 There are       33 alpha and       33 beta electrons
 Discretize the solute cavity surface with Lebedev spheres
	Using 110 Lebedev grid points for each H atom
	Using 110 Lebedev grid points for other atoms
	Atomic van der Waals radii will be scaled by 1.20
 Remove points where switching function is < 1.0e-08
 Keep 901 surface tesserae and discard 639 interior tesserae
 Molecular Surface Area = 170.943 Angst**2

                       Distance Matrix (Angstroms)
             C (  1)   C (  2)   O (  3)   O (  4)   C (  5)   H (  6)
   C (  2)  1.450972
   O (  3)  2.374738  1.288204
   O (  4)  2.364212  1.290159  2.241444
   C (  5)  1.468464  2.541502  2.883544  3.690903
   H (  6)  1.091934  2.158050  3.308471  2.565213  2.184214
   H (  7)  2.142434  2.771612  2.634408  4.044074  1.096611  3.090314
   H (  8)  2.146971  3.464004  3.920268  4.508433  1.099214  2.493698
   O (  9)  2.539475  3.279165  3.430533  4.350666  1.493002  3.031700
   O ( 10)  3.022543  3.937148  4.434078  4.732845  2.372975  2.997065
   H ( 11)  1.854795  2.448093  3.068230  3.127238  2.552269  2.350009
   O ( 12)  2.873354  3.330882  3.802255  3.883164  3.434598  3.290259
   H ( 13)  3.260313  3.371146  3.537167  3.962491  3.757614  3.885607
   H ( 14)  3.588417  4.679296  5.150539  5.536467  2.695764  3.535514
             H (  7)   H (  8)   O (  9)   O ( 10)   H ( 11)   O ( 12)
   H (  8)  1.785439
   O (  9)  1.986766  2.064694
   O ( 10)  3.225041  2.534553  1.427827
   H ( 11)  2.696633  2.768071  4.003218  4.633904
   O ( 12)  3.411024  3.492908  4.915750  5.578394  1.018632
   H ( 13)  3.473514  3.998823  5.180995  6.030888  1.571558  0.963772
   H ( 14)  3.488949  2.475590  1.890005  0.969389  4.966571  5.829468
             H ( 13)
   H ( 14)  6.338026
 
 Requested basis set is def2-TZVPD
 There are 139 shells and 365 basis functions
 A cutoff of  1.0D-14 yielded   8993 shell pairs
 There are     62353 function pairs (     79469 Cartesian)
 Smallest overlap matrix eigenvalue = 5.00E-06
 Guess MOs from SCF MO coefficient file
 Reading MOs from coefficient file
 Reading MOs from coefficient file
 Long-range K will be added via erf
 Coulomb attenuation parameter = 0.3 bohr**(-1)
 A restricted hybrid HF-DFT SCF calculation will be
 performed using Pulay DIIS extrapolation
 Polarizable Continuum solvation model will be applied
 Exchange:     0.1670 Hartree-Fock + 1.0000 wB97X-V + LR-HF
 Correlation:  1.0000 wB97X-V
 Using SG-2 standard quadrature grid
 Nonlocal Correlation:  VV10 with C = 0.0100 and b = 6.00
 Grid used for NLC:  SG-1 standard quadrature
 SCF converges when DIIS error is below 1.0E-08
Using Q-Chem read-in guess as SCF_GUESS READ specified.

 using 16 threads for integral computing
 -------------------------------------------------------
 OpenMP Integral computing Module                
 Release: version 1.0, May 2013, Q-Chem Inc. Pittsburgh 
 -------------------------------------------------------
 using 16 threads for integral computing
 -------------------------------------------------------
 OpenMP Integral computing Module                
 Release: version 1.0, May 2013, Q-Chem Inc. Pittsburgh 
 -------------------------------------------------------
 -------------------------------------------------------
 OpenMP BLAS3 based DFT computing Module                
 Release: version 1.0, May 2013, Q-Chem Inc. Pittsburgh 
 -------------------------------------------------------
 -------------------------------------------------------
 OpenMP BLAS3 based DFT computing Module                
 Release: version 1.0, May 2013, Q-Chem Inc. Pittsburgh 
 -------------------------------------------------------
 -------------------------------------------------------
 OpenMP BLAS3 based DFT computing Module                
 Release: version 1.0, May 2013, Q-Chem Inc. Pittsburgh 
 -------------------------------------------------------
 ---------------------------------------
  Cycle       Energy         DIIS Error
 ---------------------------------------
    1    -493.8896751748      6.17E-04
    2    -494.2308639446      6.75E-04
    3    -494.2417518952      3.00E-04
    4    -494.2435699969      2.19E-04
    5    -494.2446244752      1.64E-04
    6    -494.2452283234      1.24E-04
    7    -494.2456973604      8.10E-05
    8    -494.2459060449      5.19E-05
    9    -494.2460157416      2.59E-05
   10    -494.2460504549      5.65E-06
   11    -494.2460520419      1.47E-06
   12    -494.2460521551      2.18E-07
   13    -494.2460521573      5.55E-08
   14    -494.2460521574      1.89E-08
   15    -494.2460521574      6.31E-09 Convergence criterion met
 ---------------------------------------

************** Final PCM Free Energy Summary **************
 G_electrostatic  =      -0.35638124 hartree =    -223.63260270 kcal/mol
 G_cavitation     =       0.00000000 hartree =       0.00000000 kcal/mol
 G_dispersion     =       0.00000000 hartree =       0.00000000 kcal/mol
 G_repulsion      =       0.00000000 hartree =       0.00000000 kcal/mol
 --------------------------------------------------
 Non-electrostatic Free Energy =       0.00000000 hartree =       0.00000000 kcal/mol
 Total                         =      -0.35638124 hartree =    -223.63260270 kcal/mol
 --------------------------------------------------
 SCF Energy (H0 + V/2)                       =    -494.24605216 
 Solute Internal Energy (H0)                 =    -493.88967092 
 Total Free Energy (H0 + V/2 + non-elec)     =    -494.24605216 hartree
                                             = -310144.07873314 kcal/mol
***********************************************************

 SCF time:  CPU 1737.44 s  wall 125.30 s
 SCF   energy in the final basis set = -494.24605216
 Total energy in the final basis set = -494.24605216
 
 --------------------------------------------------------------
 
                    Orbital Energies (a.u.)
 --------------------------------------------------------------
 
 Alpha MOs
 -- Occupied --
-19.251 -19.241 -19.176 -19.108 -19.108 -10.307 -10.283 -10.175
 -1.230  -1.101  -1.093  -1.006  -1.001  -0.829  -0.716  -0.618
 -0.599  -0.570  -0.554  -0.550  -0.502  -0.498  -0.482  -0.460
 -0.455  -0.420  -0.398  -0.387  -0.365  -0.320  -0.317  -0.298
 -0.241
 -- Virtual --
  0.061   0.076   0.083   0.085   0.102   0.110   0.114   0.119
  0.128   0.140   0.146   0.154   0.160   0.164   0.170   0.172
  0.184   0.191   0.197   0.205   0.213   0.226   0.229   0.248
  0.254   0.261   0.269   0.273   0.292   0.296   0.306   0.308
  0.320   0.327   0.342   0.347   0.348   0.355   0.368   0.370
  0.374   0.378   0.379   0.389   0.399   0.402   0.409   0.418
  0.425   0.429   0.439   0.449   0.452   0.466   0.470   0.483
  0.487   0.494   0.500   0.508   0.518   0.520   0.527   0.535
  0.550   0.557   0.567   0.577   0.581   0.585   0.593   0.597
  0.605   0.618   0.626   0.639   0.640   0.649   0.656   0.661
  0.663   0.692   0.702   0.708   0.717   0.721   0.731   0.734
  0.741   0.760   0.763   0.766   0.770   0.778   0.806   0.810
  0.826   0.835   0.841   0.856   0.859   0.867   0.874   0.880
  0.882   0.906   0.918   0.926   0.956   0.960   0.970   0.985
  1.001   1.013   1.037   1.049   1.061   1.072   1.087   1.099
  1.134   1.137   1.153   1.165   1.172   1.197   1.205   1.232
  1.257   1.268   1.277   1.302   1.324   1.336   1.370   1.378
  1.400   1.421   1.424   1.477   1.480   1.511   1.556   1.581
  1.591   1.645   1.699   1.707   1.747   1.753   1.763   1.792
  1.816   1.894   1.903   1.915   1.929   1.947   1.961   1.968
  1.984   1.987   2.024   2.051   2.055   2.063   2.084   2.116
  2.128   2.158   2.174   2.192   2.219   2.248   2.259   2.275
  2.293   2.319   2.342   2.362   2.395   2.411   2.431   2.449
  2.470   2.486   2.492   2.546   2.562   2.578   2.622   2.657
  2.690   2.722   2.730   2.750   2.789   2.810   2.825   2.882
  2.912   2.939   2.956   2.971   2.983   2.991   3.002   3.023
  3.052   3.071   3.126   3.143   3.158   3.190   3.223   3.257
  3.266   3.270   3.314   3.356   3.380   3.408   3.432   3.439
  3.466   3.482   3.500   3.514   3.539   3.552   3.564   3.583
  3.622   3.650   3.667   3.670   3.707   3.729   3.738   3.759
  3.792   3.841   3.862   3.903   4.010   4.038   4.057   4.088
  4.159   4.215   4.285   4.331   4.371   4.391   4.452   4.532
  4.638   4.741   4.809   4.862   4.918   4.957   4.972   5.071
  5.109   5.114   5.204   5.221   5.252   5.351   5.371   5.385
  5.389   5.402   5.415   5.494   5.507   5.557   5.576   5.612
  5.636   5.684   5.722   5.751   5.784   5.873   5.993   5.999
  6.086   6.183   6.205   6.218   6.281   6.329   6.393   6.471
  6.556   6.595   6.617   6.632   6.656   6.672   6.683   6.694
  6.742   6.756   6.775   6.806   6.870   6.959   6.997   7.012
  7.046   7.055   7.111   7.268   7.292   7.295   7.357   7.395
  7.409   7.419   7.513   8.288  22.751  22.966  23.633  44.025
 44.078  44.347  44.456  44.569
 --------------------------------------------------------------
 
          Ground-State Mulliken Net Atomic Charges

     Atom                 Charge (a.u.)
  ----------------------------------------
      1 C                    -0.588047
      2 C                     0.299903
      3 O                    -0.785324
      4 O                    -0.812063
      5 C                    -0.035873
      6 H                     0.176812
      7 H                     0.123055
      8 H                     0.213535
      9 O                    -0.268074
     10 O                    -0.397221
     11 H                     0.155931
     12 O                    -0.781166
     13 H                     0.346910
     14 H                     0.351623
  ----------------------------------------
  Sum of atomic charges =    -2.000000

 -----------------------------------------------------------------
                    Cartesian Multipole Moments
 -----------------------------------------------------------------
    Charge (ESU x 10^10)
                -9.6064
    Dipole Moment (Debye)
         X       4.6436      Y     -15.7353      Z       2.7592
       Tot      16.6366
    Quadrupole Moments (Debye-Ang)
        XX     -76.3030     XY       1.3467     YY     -91.8603
        XZ       7.0797     YZ       4.2837     ZZ     -64.2498
    Octopole Moments (Debye-Ang^2)
       XXX      12.7369    XXY     -39.2355    XYY      41.7477
       YYY    -196.9550    XXZ      -6.8993    XYZ      -8.5740
       YYZ      18.5984    XZZ      -2.7722    YZZ     -56.3674
       ZZZ      30.6706
    Hexadecapole Moments (Debye-Ang^3)
      XXXX   -1039.1569   XXXY      13.0844   XXYY    -279.4817
      XYYY     144.8581   YYYY    -955.9422   XXXZ      23.4838
      XXYZ      -4.9597   XYYZ      -1.1929   YYYZ      52.8625
      XXZZ    -176.2974   XYZZ      25.8996   YYZZ    -192.6282
      XZZZ     -43.6875   YZZZ      78.2101   ZZZZ    -283.3112
 -----------------------------------------------------------------
 Calculating analytic gradient of the SCF energy
 Gradient of SCF Energy
            1           2           3           4           5           6
    1  -0.0151821   0.0058590   0.0013906   0.0186589  -0.0280571  -0.0257997
    2  -0.0116387   0.0665602  -0.0023935  -0.0481153  -0.0469628  -0.0194068
    3   0.1525066  -0.0628283   0.0535404  -0.0184867  -0.0634912  -0.0917143
            7           8           9          10          11          12
    1   0.0296588   0.0230431  -0.0097274   0.0164198  -0.0500411   0.0289206
    2   0.0106456   0.0612902  -0.0098811  -0.0376464  -0.0224695   0.0390651
    3   0.0681816  -0.0274152  -0.0351777   0.0371965  -0.0218106  -0.0468699
           13          14
    1   0.0158632  -0.0110066
    2  -0.0232649   0.0442179
    3   0.0626764  -0.0063077
 Max gradient component =       1.525E-01
 RMS gradient           =       4.484E-02
 Computing fast CPCM-ISWIG gradient
 Updating gradient with PCM contributions...
 -- total gradient after adding PCM contribution --
---------------------------------------------------
  Atom         X              Y              Z     
---------------------------------------------------
   1       0.000340      -0.000892      -0.000003
   2      -0.000033       0.000286      -0.000072
   3      -0.000004       0.000007      -0.000082
   4      -0.000061       0.000145       0.000003
   5      -0.000103       0.000330       0.000071
   6      -0.000033       0.000088       0.000041
   7      -0.000012      -0.000001       0.000009
   8      -0.000035       0.000035       0.000019
   9      -0.000067      -0.000015       0.000011
  10      -0.000003       0.000001      -0.000002
  11      -0.000037       0.000011      -0.000010
  12       0.000038       0.000006       0.000018
  13       0.000011      -0.000001      -0.000003
  14      -0.000001       0.000000       0.000001
---------------------------------------------------
 Number of fixed atoms: 0
 Gradient time:  CPU 403.48 s  wall 29.73 s
 ----------------------------------------------------------------
             Standard Nuclear Orientation (Angstroms)
[...]
 Red. Mass:       6.1192                 1.1582                 4.2774
 IR Active:          YES                    YES                    YES
 IR Intens:       84.631                160.523                  7.756
 Raman Active:       YES                    YES                    YES
               X      Y      Z        X      Y      Z        X      Y      Z
 C         -0.132 -0.103  0.050   -0.005  0.003 -0.033    0.246  0.104  0.155
 C         -0.002 -0.087  0.024   -0.005  0.014 -0.019    0.066 -0.008  0.094
 O          0.115 -0.146  0.043   -0.020  0.051 -0.021    0.047 -0.173  0.078
 O         -0.015 -0.063 -0.040   -0.001 -0.001  0.010   -0.050  0.046 -0.053
 C         -0.064 -0.012 -0.043   -0.010 -0.033  0.018    0.039  0.103 -0.129
 H          0.004 -0.071  0.044   -0.031  0.008 -0.032    0.368  0.044  0.151
 H         -0.120  0.043 -0.038    0.007 -0.072  0.020   -0.066  0.445 -0.160
 H          0.052 -0.063 -0.110   -0.034 -0.003  0.058   -0.045 -0.035 -0.375
 O         -0.153  0.237 -0.045   -0.009 -0.046  0.023    0.044 -0.028 -0.082
 O         -0.198 -0.043 -0.014   -0.016  0.003  0.032   -0.212  0.024  0.023
 H          0.405  0.156  0.144    0.010  0.010 -0.017   -0.185 -0.056  0.052
 O          0.341  0.154  0.052    0.008  0.002  0.001   -0.117 -0.048 -0.020
 H          0.416  0.193  0.044   -0.011 -0.007  0.004   -0.050 -0.019 -0.030
 H          0.174 -0.041 -0.387    0.909  0.115 -0.371    0.353  0.100 -0.186
 TransDip   0.268  0.108 -0.058    0.385 -0.014 -0.126   -0.011 -0.054 -0.070

 Mode:                10                     11                     12
 Frequency:       386.58                 498.42                 507.39
 Force Cnst:      0.2387                 0.2412                 0.2863
 Red. Mass:       2.7114                 1.6479                 1.8875
 IR Active:          YES                    YES                    YES
 IR Intens:       20.424                 56.322                168.819
 Raman Active:       YES                    YES                    YES
               X      Y      Z        X      Y      Z        X      Y      Z
 C         -0.161 -0.052  0.003    0.012  0.023  0.047   -0.088 -0.082 -0.012
 C         -0.063  0.015  0.050    0.029 -0.033 -0.058   -0.060  0.035  0.033
 O          0.016 -0.094  0.067    0.009  0.048 -0.066    0.000  0.026  0.060
 O          0.000  0.094 -0.042    0.019 -0.103  0.021   -0.018  0.116 -0.064
 C         -0.074  0.079 -0.140   -0.072  0.036 -0.015    0.078 -0.053 -0.007
 H         -0.305 -0.224  0.026    0.341  0.239  0.014    0.191 -0.008 -0.020
 H          0.124  0.507 -0.256   -0.048  0.306 -0.067    0.041 -0.244  0.036
 H         -0.255 -0.117 -0.502   -0.153 -0.086 -0.232    0.180  0.021  0.133
 O          0.032 -0.096  0.061   -0.068  0.009  0.054    0.087 -0.032 -0.050
 O          0.154  0.031  0.014    0.062  0.013  0.004   -0.045 -0.009  0.004
 H          0.063  0.021 -0.036   -0.053 -0.157  0.440    0.012 -0.245  0.469
 O          0.034  0.018  0.009   -0.039 -0.025 -0.001   -0.038 -0.018  0.005
 H         -0.010 -0.008  0.013    0.532  0.293 -0.060    0.617  0.345 -0.063
 H          0.198  0.056  0.087    0.020  0.007  0.019    0.000  0.001  0.010
 TransDip  -0.034  0.139 -0.024    0.181  0.148  0.056    0.385  0.146  0.057

 Mode:                13                     14                     15
 Frequency:       614.57                 639.95                 678.85
 Force Cnst:      0.8116                 0.4152                 0.6827
 Red. Mass:       3.6470                 1.7209                 2.5144
 IR Active:          YES                    YES                    YES
 IR Intens:       65.803                213.821                 66.993
 Raman Active:       YES                    YES                    YES
               X      Y      Z        X      Y      Z        X      Y      Z
 C         -0.117  0.126 -0.040   -0.156 -0.053  0.097   -0.023  0.058 -0.168
 C         -0.075 -0.003 -0.070   -0.040 -0.020 -0.029   -0.012  0.107 -0.007
 O          0.061 -0.114 -0.071    0.011  0.048 -0.005    0.056 -0.161  0.005
 O          0.051 -0.101  0.158    0.017 -0.036 -0.019   -0.053  0.042  0.141
 C         -0.005  0.237  0.075    0.040  0.061  0.036   -0.050 -0.028 -0.096
 H         -0.665  0.051 -0.022    0.682  0.443  0.031    0.742  0.262 -0.202
 H         -0.057  0.062  0.119   -0.071  0.169  0.047    0.020 -0.380 -0.045
 H          0.061  0.348  0.262    0.108 -0.003 -0.059   -0.058  0.142  0.191
 O          0.145 -0.069 -0.092    0.066 -0.049 -0.036   -0.029  0.011  0.034
 O         -0.078 -0.013 -0.006   -0.025 -0.004 -0.002    0.051  0.003  0.029
 H          0.010 -0.121  0.144    0.028  0.163 -0.175   -0.034  0.115  0.025
 O         -0.010 -0.005  0.008    0.021  0.013 -0.010   -0.001 -0.005 -0.005
 H          0.272  0.153 -0.022   -0.357 -0.198  0.031   -0.046 -0.027  0.000
 H          0.058  0.016 -0.010    0.028  0.012  0.023    0.015 -0.006  0.022
 TransDip  -0.166  0.184  0.077    0.262  0.354 -0.160    0.166  0.141 -0.146

 Mode:                16                     17                     18
 Frequency:       758.22                 830.71                 886.56
 Force Cnst:      2.5474                 4.5490                 1.5706
 Red. Mass:       7.5208                11.1883                 3.3916
 IR Active:          YES                    YES                    YES
 IR Intens:      368.110                 99.180                  7.844
 Raman Active:       YES                    YES                    YES
               X      Y      Z        X      Y      Z        X      Y      Z
 C         -0.069 -0.015 -0.089   -0.277 -0.100  0.013    0.007  0.025 -0.105
 C          0.011  0.031  0.003    0.776  0.300  0.085    0.038 -0.126  0.086
 O          0.006 -0.056 -0.023   -0.198 -0.068 -0.046   -0.048  0.055  0.176
 O         -0.019  0.035  0.060   -0.184 -0.095 -0.028    0.058 -0.117 -0.156
 C          0.560  0.140  0.071   -0.030  0.056  0.044   -0.026  0.232 -0.098
 H         -0.081  0.108 -0.087   -0.131 -0.192  0.038    0.235 -0.142 -0.102
 H          0.529  0.312  0.029    0.027  0.041  0.031    0.026 -0.407  0.005
 H          0.038 -0.022 -0.219   -0.018  0.070  0.059   -0.094  0.570  0.464
 O         -0.323 -0.110  0.151    0.075 -0.012 -0.040   -0.066 -0.037  0.029
 O         -0.056 -0.007 -0.157   -0.025 -0.005 -0.007    0.026  0.000  0.017
 H          0.067 -0.058  0.013   -0.016  0.133  0.116    0.035 -0.092 -0.039
 O         -0.021 -0.005  0.001   -0.017 -0.019 -0.001   -0.002  0.003  0.001
 H          0.051  0.034 -0.008    0.090  0.045 -0.012    0.013  0.010 -0.001
 H         -0.027  0.010 -0.075    0.007  0.005  0.002    0.039  0.000  0.008
 TransDip   0.612 -0.054 -0.017    0.214  0.234  0.035    0.023 -0.007  0.087

 Mode:                19                     20                     21
 Frequency:       929.53                 996.58                1048.04
 Force Cnst:      0.5359                 6.7704                 1.5098
 Red. Mass:       1.0528                11.5703                 2.3330
 IR Active:          YES                    YES                    YES
 IR Intens:       33.770                 10.737                 30.179
 Raman Active:       YES                    YES                    YES
               X      Y      Z        X      Y      Z        X      Y      Z
 C         -0.009  0.016 -0.003   -0.024 -0.024  0.083    0.004 -0.078  0.197
 C         -0.008 -0.026  0.008    0.008  0.006  0.000   -0.025  0.019 -0.001
 O         -0.002  0.007  0.008    0.008  0.002 -0.079    0.024  0.014 -0.166
 O          0.008 -0.009 -0.009   -0.013  0.025  0.031   -0.015  0.037  0.046
 C          0.023 -0.009 -0.016    0.175  0.042 -0.054   -0.003  0.080 -0.127
 H         -0.099 -0.015  0.002   -0.145 -0.125  0.099    0.183 -0.671  0.253
 H          0.023 -0.045 -0.009   -0.385 -0.112  0.072    0.042 -0.418 -0.044
 H          0.013 -0.000 -0.002    0.205  0.034 -0.054    0.104  0.289  0.259
 O          0.005 -0.003 -0.001   -0.310 -0.063 -0.496   -0.016 -0.018  0.069
 O          0.001 -0.000  0.000    0.222  0.039  0.517    0.001 -0.001 -0.031
 H         -0.422  0.821  0.362    0.029 -0.025 -0.007   -0.013  0.025  0.020
 O          0.014 -0.028 -0.012   -0.004 -0.000  0.000    0.003  0.002 -0.002
 H          0.021 -0.003 -0.006   -0.003 -0.000 -0.000   -0.035 -0.020  0.003
 H          0.000 -0.000  0.002   -0.061 -0.137 -0.033    0.033  0.016  0.027
 TransDip  -0.074  0.059  0.160    0.070 -0.062 -0.047   -0.024  0.072  0.159

 Mode:                22                     23                     24
 Frequency:      1162.87                1267.41                1309.01
 Force Cnst:      1.7915                 1.5216                 1.5496
 Red. Mass:       2.2485                 1.6077                 1.5349
 IR Active:          YES                    YES                    YES
 IR Intens:      175.848                207.927                417.854
 Raman Active:       YES                    YES                    YES
               X      Y      Z        X      Y      Z        X      Y      Z
 C          0.091 -0.179 -0.133   -0.035  0.096  0.040    0.011  0.024 -0.010
 C         -0.024  0.015 -0.013   -0.056  0.117 -0.026   -0.043  0.149 -0.060
 O          0.010 -0.005 -0.019    0.001 -0.007  0.035   -0.004 -0.014  0.062
 O         -0.013  0.045  0.014    0.038 -0.089 -0.037    0.030 -0.076 -0.031
 C         -0.061  0.104  0.183   -0.001 -0.042  0.058   -0.014  0.007 -0.009
 H          0.391 -0.606 -0.097    0.208 -0.411  0.092    0.031 -0.274  0.024
 H         -0.041  0.529  0.105    0.732 -0.130 -0.104   -0.328  0.063  0.048
 H         -0.146  0.067  0.088   -0.328 -0.117 -0.103    0.809 -0.149 -0.138
 O         -0.000  0.000 -0.036    0.006  0.005 -0.048   -0.032 -0.013  0.029
 O         -0.011  0.000  0.008   -0.007  0.007  0.013    0.003 -0.012 -0.010
 H         -0.083  0.142  0.063    0.025 -0.008  0.006    0.015  0.025  0.018
 O          0.004 -0.004 -0.002   -0.002 -0.000 -0.001   -0.003 -0.002 -0.001
 H         -0.003 -0.004 -0.000   -0.011 -0.005  0.000   -0.005 -0.003 -0.001
 H         -0.022 -0.009 -0.040   -0.079 -0.038 -0.160    0.109  0.055  0.233
 TransDip  -0.284  0.315 -0.007   -0.128  0.443 -0.031   -0.118  0.628 -0.143

 Mode:                25                     26                     27
 Frequency:      1352.55                1378.89                1404.85
 Force Cnst:      1.4900                 1.3574                 3.9942
 Red. Mass:       1.3824                 1.2117                 3.4349
 IR Active:          YES                    YES                    YES
 IR Intens:       97.727                272.758                704.080
 Raman Active:       YES                    YES                    YES
               X      Y      Z        X      Y      Z        X      Y      Z
 C          0.035 -0.046  0.009   -0.020  0.038 -0.013   -0.078  0.169 -0.100
 C          0.038 -0.067 -0.048    0.000 -0.030  0.057   -0.011 -0.097  0.345
 O         -0.004  0.003  0.012    0.003  0.004 -0.030    0.017  0.017 -0.167
 O         -0.023  0.053  0.027   -0.000  0.002 -0.003    0.006 -0.013 -0.034
 C         -0.100  0.059  0.025    0.012 -0.014  0.019   -0.036 -0.043  0.038
 H         -0.070  0.245 -0.030    0.069 -0.080 -0.005    0.243 -0.249 -0.075
 H          0.739 -0.105 -0.144    0.088  0.008 -0.003    0.088  0.239 -0.032
 H          0.554 -0.052 -0.065   -0.151 -0.008 -0.008    0.634 -0.156 -0.060
 O         -0.031 -0.018 -0.022   -0.013  0.045 -0.045    0.010 -0.031  0.012
 O         -0.003 -0.006  0.004   -0.009 -0.053 -0.022    0.003  0.021  0.009
 H         -0.036  0.002  0.005   -0.001 -0.013 -0.018   -0.036 -0.055 -0.099
 O          0.005  0.001 -0.000    0.000  0.000  0.001    0.004  0.002  0.006
 H         -0.004 -0.003  0.001    0.010  0.006 -0.000    0.057  0.031 -0.002
 H          0.040  0.019  0.084    0.382  0.196  0.871   -0.157 -0.080 -0.345
 TransDip  -0.189 -0.125 -0.221    0.141 -0.198  0.470   -0.162 -0.338  0.763

 Mode:                28                     29                     30
 Frequency:      1431.35                1449.25                1637.05
 Force Cnst:      1.9187                 2.4262                 1.6906
 Red. Mass:       1.5895                 1.9606                 1.0707
 IR Active:          YES                    YES                    YES
 IR Intens:      530.688                510.514                 75.237
 Raman Active:       YES                    YES                    YES
               X      Y      Z        X      Y      Z        X      Y      Z
 C          0.042 -0.087  0.022   -0.069  0.125  0.019   -0.001  0.013 -0.013
 C         -0.056  0.132  0.086    0.059 -0.123 -0.145    0.005 -0.007  0.007
 O          0.008 -0.009 -0.031   -0.012  0.008  0.063   -0.000  0.001 -0.004
 O          0.024 -0.056 -0.033   -0.022  0.048  0.036   -0.001  0.002  0.000
 C         -0.010 -0.059 -0.053    0.025 -0.113 -0.042    0.001 -0.001  0.001
 H         -0.180  0.379 -0.005    0.157 -0.378  0.057   -0.036 -0.028 -0.009
 H          0.234  0.483 -0.196    0.037  0.598 -0.164   -0.004  0.004  0.000
 H          0.031  0.324  0.579    0.172  0.224  0.527    0.006 -0.005 -0.007
 O         -0.020  0.003 -0.007   -0.004 -0.002 -0.001    0.000 -0.000  0.000
 O          0.002 -0.003  0.003    0.002  0.001  0.003   -0.000 -0.000  0.000
 H          0.010  0.023  0.036    0.014 -0.026 -0.027    0.006 -0.331  0.763
 O         -0.001 -0.001 -0.002   -0.001  0.000  0.001    0.029  0.034 -0.043
 H         -0.020 -0.011  0.001    0.012  0.007 -0.001   -0.480 -0.263  0.042
 H          0.016  0.008  0.048   -0.015 -0.007 -0.013   -0.000 -0.000  0.000
 TransDip  -0.181  0.630  0.340    0.304 -0.476 -0.452   -0.157 -0.161  0.162

 Mode:                31                     32                     33
 Frequency:      2706.52                3015.20                3084.68
 Force Cnst:      4.6743                 5.6975                 6.1544
 Red. Mass:       1.0830                 1.0637                 1.0978
 IR Active:          YES                    YES                    YES
 IR Intens:     3542.677                154.645                 28.119
 Raman Active:       YES                    YES                    YES
               X      Y      Z        X      Y      Z        X      Y      Z
 C          0.013  0.009 -0.001   -0.001 -0.000 -0.004    0.000  0.001  0.015
 C          0.001 -0.014  0.008   -0.000  0.001 -0.001    0.000  0.001 -0.001
 O          0.000  0.002 -0.005   -0.000  0.000  0.001   -0.000  0.000  0.001
 O         -0.001  0.005  0.001    0.000 -0.001  0.000    0.000 -0.000  0.000
 C         -0.008  0.000  0.002   -0.010 -0.070  0.007   -0.013  0.013 -0.087
 H         -0.014 -0.011 -0.021    0.002  0.005  0.065   -0.008 -0.020 -0.187
 H          0.015  0.001  0.020    0.092  0.056  0.386    0.202  0.152  0.870
 H          0.013  0.020 -0.018    0.071  0.775 -0.473   -0.028 -0.316  0.184
 O          0.002 -0.000 -0.001   -0.002 -0.001  0.000   -0.001 -0.000 -0.001
 O          0.000  0.000  0.000    0.000 -0.000 -0.000    0.000 -0.000  0.001
 H          0.902  0.380  0.178   -0.027 -0.013 -0.006   -0.012 -0.006 -0.002
 O         -0.061 -0.026 -0.010    0.002  0.001  0.000    0.001  0.000  0.000
 H         -0.034 -0.002 -0.033    0.001  0.000  0.001    0.000 -0.000  0.000
 H         -0.001 -0.001 -0.001   -0.006  0.005 -0.004    0.003 -0.001  0.002
 TransDip   1.725  0.771  0.250   -0.049 -0.395 -0.014   -0.013 -0.004 -0.169

 Mode:                34                     35                     36
 Frequency:      3111.97                3763.46                3860.99
 Force Cnst:      6.2014                 8.9149                 9.3551
 Red. Mass:       1.0869                 1.0683                 1.0651
 IR Active:          YES                    YES                    YES
 IR Intens:      115.674                 67.460                 55.874
 Raman Active:       YES                    YES                    YES
               X      Y      Z        X      Y      Z        X      Y      Z
 C         -0.000 -0.006 -0.082   -0.000  0.000  0.000    0.000  0.000  0.000
 C          0.001 -0.005 -0.000    0.000 -0.000  0.000   -0.000 -0.000  0.000
 O         -0.000  0.001  0.000   -0.000  0.000 -0.000    0.000  0.000 -0.000
 O         -0.000  0.001  0.001   -0.000  0.000  0.000   -0.000  0.000  0.000
 C         -0.004  0.008 -0.017    0.001  0.000 -0.001   -0.000  0.000  0.000
 H          0.022  0.096  0.972   -0.000  0.000  0.000    0.000  0.000  0.000
 H          0.034  0.023  0.140   -0.002 -0.000 -0.000    0.000 -0.000 -0.000
 H         -0.006 -0.113  0.064    0.001 -0.005  0.004    0.000 -0.000 -0.000
 O          0.000 -0.000 -0.000   -0.001  0.000 -0.000    0.000  0.000 -0.000
 O         -0.000  0.000  0.000    0.013 -0.061  0.012    0.000 -0.000  0.000
 H          0.018  0.008  0.003    0.001  0.001  0.000    0.017  0.018 -0.020
 O         -0.001 -0.000 -0.000   -0.000 -0.000  0.000   -0.018  0.016 -0.057
 H         -0.001 -0.000 -0.001   -0.000  0.000 -0.000    0.265 -0.270  0.923
 H          0.001 -0.001  0.001   -0.196  0.961 -0.183   -0.000  0.000 -0.000
 TransDip   0.043  0.001 -0.342   -0.113  0.222 -0.085    0.129 -0.026  0.200

 STANDARD THERMODYNAMIC QUANTITIES AT   298.15 K  AND     1.00 ATM

   This Molecule has  0 Imaginary Frequencies
   Zero point vibrational energy:       59.906 kcal/mol

   Atom    1 Element C  Has Mass   12.00000
   Atom    2 Element C  Has Mass   12.00000
   Atom    3 Element O  Has Mass   15.99491
   Atom    4 Element O  Has Mass   15.99491
   Atom    5 Element C  Has Mass   12.00000
   Atom    6 Element H  Has Mass    1.00783
   Atom    7 Element H  Has Mass    1.00783
   Atom    8 Element H  Has Mass    1.00783
   Atom    9 Element O  Has Mass   15.99491
   Atom   10 Element O  Has Mass   15.99491
   Atom   11 Element H  Has Mass    1.00783
   Atom   12 Element O  Has Mass   15.99491
   Atom   13 Element H  Has Mass    1.00783
   Atom   14 Element H  Has Mass    1.00783
   Molecular Mass:   122.021530 amu
   Principal axes and moments of inertia in amu*Bohr^2:
                             1           2           3
    Eigenvalues --      804.59725  1585.21571  1968.74693
          X               0.92220     0.37260    -0.10351
          Y              -0.34963     0.91772     0.18853
          Z               0.16524    -0.13767     0.97660
   Rotational Symmetry Number is   1
   The Molecule is an Asymmetric Top
   Translational Enthalpy:        0.889 kcal/mol
   Rotational Enthalpy:           0.889 kcal/mol
   Vibrational Enthalpy:         64.782 kcal/mol
   gas constant (RT):             0.592 kcal/mol
   Translational Entropy:        40.311  cal/mol.K
   Rotational Entropy:           29.308  cal/mol.K
   Vibrational Entropy:          34.615  cal/mol.K

   Total Enthalpy:               67.152 kcal/mol
   Total Entropy:               104.235  cal/mol.K
Archival summary:
1\1\c5-78\FREQ\ProcedureUnspecified\BasisUnspecified\536(2-,1)\lmgong\SatMar2101:58:022020SatMar2101:58:022020\0\\#,FREQ,ProcedureUnspecified,BasisUnspecified,\\-2,1\O\O,1,1.42783\H,2,0.969389,1,102.385\C,1,1.493,2,108.648,3,87.9505,0\H,4,1.09661,1,99.06,2,-170.997,0\H,4,1.09921,1,104.569,2,-58.7473,0\C,4,1.4692,1,118.051,2,67.4371,0\H,7,1.09184,4,116.273,1,-77.6835,0\C,7,1.45013,4,121.05,1,71.3175,0\O,9,1.2882,7,120.115,4,18.6427,0\O,9,1.29016,7,119.062,4,-164.197,0\H,7,1.85517,4,99.6508,1,172.919,0\O,12,1.01863,7,179.171,4,32.4272,0\H,13,0.963772,12,104.853,7,-118.905,0\\\@

 Total job time:  14292.88s(wall), 197674.37s(cpu) 
 Sat Mar 21 01:58:02 2020

        *************************************************************
        *                                                           *
        *  Thank you very much for using Q-Chem.  Have a nice day.  *
        *                                                           *
        *************************************************************


