
Running Job 1 of 1 qc-3-tshess.in
qchem qc-3-tshess.in_182503.0 /scratch/lmgong/1171582/qc-3-tshess.d/ 1
/home/leeping/opt/qchem/5.0.2-openmp/exe/qcprog.exe_s qc-3-tshess.in_182503.0 /scratch/lmgong/1171582/qc-3-tshess.d/
Check license passed

                  Welcome to Q-Chem
     A Quantum Leap Into The Future Of Chemistry


 Q-Chem 5.0, Q-Chem, Inc., Pleasanton, CA (2017)

 Yihan Shao,  Zhengting Gan,  E. Epifanovsky,  A. T. B. Gilbert,  M. Wormit,  
 J. Kussmann,  A. W. Lange,  A. Behn,  Jia Deng,  Xintian Feng,  D. Ghosh,  
 M. Goldey,  P. R. Horn,  L. D. Jacobson,  I. Kaliman,  T. Kus,  A. Landau,  
 Jie Liu,  E. I. Proynov,  R. M. Richard,  R. P. Steele,  E. J. Sundstrom,  
 H. L. Woodcock III,  P. M. Zimmerman,  D. Zuev,  B. Albrecht,  E. Alguire,  
 S. A. Baeppler,  D. Barton,  Z. Benda,  Y. A. Bernard,  E. J. Berquist,  
 K. B. Bravaya,  H. Burton,  D. Casanova,  Chun-Min Chang,  Yunqing Chen,  
 A. Chien,  K. D. Closser,  M. P. Coons,  S. Dasgupta,  A. L. Dempwolff,  
 M. Diedenhofen,  Hainam Do,  R. G. Edgar,  Po-Tung Fang,  S. Fatehi,  
 Qingguo Feng,  J. Fosso-Tande,  Qinghui Ge,  A. Ghysels,  G. Gidofalvi,  
 J. Gomes,  J. Gonthier,  A. Gunina,  M. W. D. Hanson-Heine,  
 P. H. P. Harbach,  A. W. Hauser,  J. E. Herr,  E. G. Hohenstein,  
 Z. C. Holden,  Kerwin Hui,  T.-C. Jagau,  Hyunjun Ji,  B. Kaduk,  
 K. Khistyaev,  Jaehoon Kim,  P. Klunzinger,  K. Koh,  D. Kosenkov,  
 L. Koulias,  T. Kowalczyk,  C. M. Krauter,  A. Kunitsa,  Ka Un Lao,  
 A. Laurent,  K. V. Lawler,  Joonho Lee,  D. Lefrancois,  S. Lehtola,  
 D. S. Levine,  Yi-Pei Li,  You-Sheng Lin,  Fenglai Liu,  E. Livshits,  
 A. Luenser,  P. Manohar,  E. Mansoor,  S. F. Manzer,  Shan-Ping Mao,  
 Yuezhi Mao,  N. Mardirossian,  A. V. Marenich,  T. Markovich,  
 L. A. Martinez-Martinez,  S. A. Maurer,  N. J. Mayhall,  S. C. McKenzie,  
 J.-M. Mewes,  A. F. Morrison,  J. W. Mullinax,  K. Nanda,  
 T. S. Nguyen-Beck,  R. Olivares-Amaya,  J. A. Parkhill,  T. M. Perrine,  
 F. Plasser,  S. Prager,  A. Prociuk,  E. Ramos,  D. R. Rehn,  F. Rob,  
 M. Schneider,  N. Sergueev,  S. M. Sharada,  S. Sharma,  D. W. Small,  
 T. Stauch,  T. Stein,  Yu-Chuan Su,  A. J. W. Thom,  A. Tkatchenko,  
 T. Tsuchimochi,  L. Vogt,  O. Vydrov,  M. A. Watson,  J. Wenzel,  
 M. de Wergifosse,  T. A. Wesolowski,  A. White,  J. Witte,  A. Yamada,  
 Jun Yang,  K. Yao,  S. Yeganeh,  S. R. Yost,  Zhi-Qiang You,  A. Zech,  
 Igor Ying Zhang,  Xing Zhang,  Yan Zhao,  Ying Zhu,  B. R. Brooks,  
 G. K. L. Chan,  C. J. Cramer,  M. S. Gordon,  W. J. Hehre,  A. Klamt,  
 M. W. Schmidt,  C. D. Sherrill,  D. G. Truhlar,  A. Aspuru-Guzik,  R. Baer,  
 A. T. Bell,  N. A. Besley,  Jeng-Da Chai,  R. A. DiStasio Jr.,  A. Dreuw,  
 B. D. Dunietz,  T. R. Furlani,  Chao-Ping Hsu,  Yousung Jung,  Jing Kong,  
 D. S. Lambrecht,  WanZhen Liang,  C. Ochsenfeld,  V. A. Rassolov,  
 L. V. Slipchenko,  J. E. Subotnik,  T. Van Voorhis,  J. M. Herbert,  
 A. I. Krylov,  P. M. W. Gill,  M. Head-Gordon

 Contributors to earlier versions of Q-Chem not listed above: 
 R. D. Adamson,  B. Austin,  J. Baker,  G. J. O. Beran,  K. Brandhorst,  
 S. T. Brown,  E. F. C. Byrd,  A. K. Chakraborty,  C.-L. Cheng,  
 Siu Hung Chien,  D. M. Chipman,  D. L. Crittenden,  H. Dachsel,  
 R. J. Doerksen,  A. D. Dutoi,  L. Fusti-Molnar,  W. A. Goddard III,  
 A. Golubeva-Zadorozhnaya,  S. R. Gwaltney,  G. Hawkins,  A. Heyden,  
 S. Hirata,  G. Kedziora,  F. J. Keil,  C. Kelley,  Jihan Kim,  R. A. King,  
 R. Z. Khaliullin,  P. P. Korambath,  W. Kurlancheek,  A. M. Lee,  M. S. Lee,  
 S. V. Levchenko,  Ching Yeh Lin,  D. Liotard,  R. C. Lochan,  I. Lotan,  
 P. E. Maslen,  N. Nair,  D. P. O'Neill,  D. Neuhauser,  E. Neuscamman,  
 C. M. Oana,  R. Olson,  B. Peters,  R. Peverati,  P. A. Pieniazek,  
 Y. M. Rhee,  J. Ritchie,  M. A. Rohrdanz,  E. Rosta,  N. J. Russ,  
 H. F. Schaefer III,  N. E. Schultz,  N. Shenvi,  A. C. Simmonett,  A. Sodt,  
 D. Stuck,  K. S. Thanthiriwatte,  V. Vanovschi,  Tao Wang,  A. Warshel,  
 C. F. Williams,  Q. Wu,  X. Xu,  W. Zhang

 Please cite Q-Chem as follows:
 Y. Shao et al., Mol. Phys. 113, 184-215 (2015)
 DOI: 10.1080/00268976.2014.952696

 Q-Chem 5.0.2 for Intel X86 EM64T Linux

 Parts of Q-Chem use Armadillo 5.200.1 (Boston Tea Smuggler).
 http://arma.sourceforge.net/

 Q-Chem begins on Tue Apr 24 08:02:03 2018  

Host: 
0

     Scratch files written to /scratch/lmgong/1171582/qc-3-tshess.d//
 Dec517 15110_ 26548  26544 5633   
Processing $rem in /home/leeping/opt/qchem/5.0.2-openmp/config/preferences.
 MEM_STATIC 2000
 MEM_TOTAL  8000
 SYMMETRY   OFF
 SYM_IGNORE TRUE 
Symmetry turned off for PCM/SM12/SMD calculation

Checking the input file for inconsistencies... 	...done.

--------------------------------------------------------------
User input:
--------------------------------------------------------------
$molecule
-2 1
C       -0.2314921043    0.3579276649    0.3596458929
C       -0.2198300014    1.6874057246   -0.2815330563
O       -0.0083057896    1.7778457382   -1.5392315406
O       -0.4955061364    2.7138698492    0.4322606115
C        0.5431087798   -0.7292342237   -0.2904596775
H       -0.0844607037    0.4128742357    1.4430011908
H        0.3144882050   -0.7995990680   -1.3595731426
H        0.3527289882   -1.7076073467    0.1730064890
O        2.0051702449   -0.5860468047   -0.3406670755
O        2.5171980044   -0.6957250498    0.9872098465
H       -1.6557297990   -0.0726965773    0.1786466149
O       -2.7585828543   -0.4267856228    0.0516365743
H       -2.9629768114   -0.2846547631   -0.8796819346
H        2.6841899778   -1.6475737565    1.0657392076
$end

$rem
jobtype               freq
method                wb97x-v
basis                 def2-tzvpd
symmetry              off
sym_ignore            true
incdft                false
incfock               0
!scf_algorithm        diis_gdm
scf_convergence       8
thresh                14
!purecart             112
max_scf_cycles        1000
geom_opt_max_cycles   500
geom_opt_dmax         100
geom_opt_tol_gradient 10
solvent_method        pcm
ideriv                1
rpath_tol_displacement 1000
rpath_max_cycles      100
rpath_direction       1
!scf_guess            read
scf_guess             read
$end

$pcm
theory              cosmo
method              iswig
Radii               bondi
vdwScale            1.20
hpoints             110
heavypoints         110
$end

$solvent
dielectric 78.400000
$end

--------------------------------------------------------------
 ----------------------------------------------------------------
             Standard Nuclear Orientation (Angstroms)
    I     Atom           X                Y                Z
 ----------------------------------------------------------------
    1      C      -0.2314921043     0.3579276649     0.3596458929
    2      C      -0.2198300014     1.6874057246    -0.2815330563
    3      O      -0.0083057896     1.7778457382    -1.5392315406
    4      O      -0.4955061364     2.7138698492     0.4322606115
    5      C       0.5431087798    -0.7292342237    -0.2904596775
    6      H      -0.0844607037     0.4128742357     1.4430011908
    7      H       0.3144882050    -0.7995990680    -1.3595731426
    8      H       0.3527289882    -1.7076073467     0.1730064890
    9      O       2.0051702449    -0.5860468047    -0.3406670755
   10      O       2.5171980044    -0.6957250498     0.9872098465
   11      H      -1.6557297990    -0.0726965773     0.1786466149
   12      O      -2.7585828543    -0.4267856228     0.0516365743
   13      H      -2.9629768114    -0.2846547631    -0.8796819346
   14      H       2.6841899778    -1.6475737565     1.0657392076
 ----------------------------------------------------------------
 Nuclear Repulsion Energy =   376.4354030348 hartrees
 There are       33 alpha and       33 beta electrons
 Requested basis set is def2-TZVPD
 There are 139 shells and 365 basis functions

 Total QAlloc Memory Limit   8000 MB
 Mega-Array Size      1956 MB
 MEM_STATIC part      2000 MB
 Discretize the solute cavity surface with Lebedev spheres
	Using 110 Lebedev grid points for each H atom
	Using 110 Lebedev grid points for other atoms
	Atomic van der Waals radii will be scaled by 1.20
 Remove points where switching function is < 1.0e-08
 Keep 898 surface tesserae and discard 642 interior tesserae
 Molecular Surface Area = 168.696 Angst**2

                       Distance Matrix (Angstroms)
             C (  1)   C (  2)   O (  3)   O (  4)   C (  5)   H (  6)
   C (  2)  1.476062
   O (  3)  2.381536  1.278565
   O (  4)  2.371801  1.280284  2.236132
   C (  5)  1.484778  2.534226  2.854635  3.668244
   H (  6)  1.094667  2.148668  3.280649  2.546593  2.168673
   H (  7)  2.143286  2.762763  2.603785  4.026316  1.095547  3.079558
   H (  8)  2.154666  3.472829  3.900063  4.509565  1.099208  2.510072
   O (  9)  2.526694  3.181621  3.328458  4.211918  1.469914  2.923333
   O ( 10)  3.009870  3.844521  4.345069  4.583633  2.351721  2.864501
   H ( 11)  1.498883  2.317657  3.014899  3.029091  2.342220  2.074430
   O ( 12)  2.663988  3.320553  3.867206  3.889744  3.333118  3.129194
   H ( 13)  3.067549  3.430985  3.663195  4.098872  3.582942  3.763942
   H ( 14)  3.608574  4.622831  5.076308  5.434515  2.695710  3.471772
             H (  7)   H (  8)   O (  9)   O ( 10)   H ( 11)   O ( 12)
   H (  8)  1.781780
   O (  9)  1.985492  2.062116
   O ( 10)  3.220266  2.524234  1.427396
   H ( 11)  2.603126  2.589763  3.733015  4.295959
   O ( 12)  3.402098  3.366823  4.782532  5.364838  1.165245
   H ( 13)  3.352199  3.758570  5.006382  5.804014  1.695252  0.964019
   H ( 14)  3.495238  2.497256  1.888355  0.969572  4.701284  5.669436
             H ( 13)
   H ( 14)  6.126394
 
 A cutoff of  1.0D-14 yielded   9037 shell pairs
 There are     62749 function pairs (     80016 Cartesian)
 
 -------------------------------------------------------
 OpenMP Integral Computing Module                       
 Release: version 1.0, May 2013, Q-Chem Inc. Pittsburgh 
 -------------------------------------------------------
 Integral Job Info:
 Integral job number is                      11
 Integral operator is                         1
 short-range coefficients              16700000
 long-range coefficients              100000000
 Omega coefficients                         300
 if combine SR and LR in K                    1
 Integral screening is                        0
 Integral computing path is                   2
 max size of driver memory is            800000
 size of driver memory is                776718
 size of scratch memory is              4473992
 max col of scratch BK array              10000
 max len of scratch array in speh3          662
 max len of scratch index in speh4           32
 max int batch size is                      520
 min int batch size is                       52
 fixed nKL is                                52
 max L of basis functions is                  3
 order of int derivative is                   0
 number of shells is                        139
 number of basis is                         413
 number of cartesian basis is               413
 number of contracted shell pairs          9037
 number of primitive shell pairs          18486
 maxK2 (contraction) of shell pair           36
 max number of K2 of shell pair               1
 max number of CS2 of shell pair           1467
 max number of PS2 of shell pair           2070
 mem total for path MDJ                  691168
 -------------------------------------------------------
 Smallest overlap matrix eigenvalue = 4.70E-06
 Guess MOs from SCF MO coefficient file
 Reading MOs from coefficient file
 Reading MOs from coefficient file
 Long-range K will be added via erf
 Coulomb attenuation parameter = 0.3 bohr**(-1)
 A restricted hybrid HF-DFT SCF calculation will be
 performed using Pulay DIIS extrapolation
 Polarizable Continuum solvation model will be applied
 Exchange:     0.1670 Hartree-Fock + 1.0000 wB97X-V + LR-HF
 Correlation:  1.0000 wB97X-V
 Using SG-2 standard quadrature grid
 Nonlocal Correlation:  VV10 with C = 0.0100 and b = 6.00
 Grid used for NLC:  SG-1 standard quadrature
 SCF converges when DIIS error is below 1.0E-08
Using Q-Chem read-in guess as SCF_GUESS READ specified.

 using 4 threads for integral computing
 -------------------------------------------------------
 OpenMP Integral computing Module                
 Release: version 1.0, May 2013, Q-Chem Inc. Pittsburgh 
 -------------------------------------------------------
 using 4 threads for integral computing
 -------------------------------------------------------
 OpenMP Integral computing Module                
 Release: version 1.0, May 2013, Q-Chem Inc. Pittsburgh 
 -------------------------------------------------------
 -------------------------------------------------------
 OpenMP BLAS3 based DFT computing Module                
 Release: version 1.0, May 2013, Q-Chem Inc. Pittsburgh 
 -------------------------------------------------------
 -------------------------------------------------------
 OpenMP BLAS3 based DFT computing Module                
 Release: version 1.0, May 2013, Q-Chem Inc. Pittsburgh 
 -------------------------------------------------------
 -------------------------------------------------------
 OpenMP BLAS3 based DFT computing Module                
 Release: version 1.0, May 2013, Q-Chem Inc. Pittsburgh 
 -------------------------------------------------------
 ---------------------------------------
  Cycle       Energy         DIIS Error
 ---------------------------------------
    1    -493.8916869442      5.90E-04
    2    -494.2303617581      6.42E-04
    3    -494.2401021347      2.87E-04
    4    -494.2417418471      2.11E-04
    5    -494.2426551874      1.62E-04
    6    -494.2431582085      1.27E-04
    7    -494.2435383116      9.39E-05
    8    -494.2437064835      7.46E-05
    9    -494.2438302907      5.63E-05
   10    -494.2439124075      3.98E-05
   11    -494.2439460451      3.05E-05
   12    -494.2439680333      2.24E-05
   13    -494.2439769910      1.81E-05
   14    -494.2439836236      1.41E-05
   15    -494.2439867227      1.17E-05
   16    -494.2439895477      9.10E-06
   17    -494.2439937977      1.05E-08
   18    -494.2439937977      3.37E-09 Convergence criterion met
 ---------------------------------------

************** Final PCM Free Energy Summary **************
 G_electrostatic  =      -0.35230687 hartree =    -221.07589591 kcal/mol
 G_cavitation     =       0.00000000 hartree =       0.00000000 kcal/mol
 G_dispersion     =       0.00000000 hartree =       0.00000000 kcal/mol
 G_repulsion      =       0.00000000 hartree =       0.00000000 kcal/mol
 --------------------------------------------------
 Non-electrostatic Free Energy =       0.00000000 hartree =       0.00000000 kcal/mol
 Total                         =      -0.35230687 hartree =    -221.07589591 kcal/mol
 --------------------------------------------------
 SCF Energy (H0 + V/2)                       =    -494.24399380 
 Solute Internal Energy (H0)                 =    -493.89168693 
 Total Free Energy (H0 + V/2 + non-elec)     =    -494.24399380 hartree
                                             = -310142.78709295 kcal/mol
***********************************************************

 SCF time:  CPU 1869.78 s  wall 487.59 s
 SCF   energy in the final basis set = -494.24399380
 Total energy in the final basis set = -494.24399380
 
 --------------------------------------------------------------
 
                    Orbital Energies (a.u.)
 --------------------------------------------------------------
 
 Alpha MOs
 -- Occupied --
-19.254 -19.248 -19.140 -19.116 -19.116 -10.315 -10.286 -10.183
 -1.237  -1.112  -1.043  -1.016  -1.010  -0.834  -0.722  -0.623
 -0.579  -0.567  -0.560  -0.542  -0.506  -0.502  -0.479  -0.464
 -0.439  -0.423  -0.393  -0.368  -0.364  -0.327  -0.320  -0.305
 -0.255
 -- Virtual --
  0.061   0.076   0.083   0.084   0.102   0.110   0.115   0.120
  0.128   0.144   0.147   0.155   0.161   0.164   0.167   0.173
  0.180   0.191   0.195   0.206   0.213   0.226   0.229   0.249
  0.255   0.263   0.268   0.273   0.294   0.298   0.301   0.312
  0.323   0.331   0.340   0.344   0.354   0.356   0.367   0.373
  0.377   0.381   0.383   0.396   0.400   0.405   0.411   0.422
  0.428   0.438   0.442   0.449   0.455   0.467   0.473   0.482
  0.486   0.496   0.503   0.510   0.519   0.525   0.530   0.534
  0.548   0.563   0.573   0.580   0.585   0.590   0.593   0.599
  0.609   0.619   0.632   0.636   0.646   0.651   0.656   0.664
  0.682   0.683   0.706   0.711   0.714   0.722   0.729   0.737
  0.747   0.759   0.768   0.774   0.780   0.784   0.804   0.814
  0.820   0.832   0.845   0.850   0.859   0.866   0.871   0.884
  0.889   0.905   0.918   0.942   0.951   0.963   0.972   0.984
  1.005   1.015   1.037   1.055   1.063   1.091   1.096   1.115
  1.137   1.145   1.152   1.166   1.179   1.205   1.218   1.242
  1.254   1.268   1.274   1.302   1.328   1.336   1.373   1.383
  1.402   1.412   1.433   1.472   1.482   1.530   1.555   1.573
  1.600   1.639   1.695   1.725   1.737   1.757   1.801   1.808
  1.833   1.897   1.905   1.909   1.925   1.952   1.958   1.970
  1.984   2.005   2.020   2.045   2.058   2.073   2.093   2.099
  2.127   2.162   2.193   2.214   2.222   2.256   2.272   2.284
  2.288   2.321   2.333   2.382   2.398   2.425   2.455   2.460
  2.478   2.490   2.495   2.549   2.569   2.601   2.638   2.662
  2.701   2.718   2.747   2.759   2.799   2.823   2.849   2.881
  2.893   2.909   2.974   2.984   3.002   3.024   3.038   3.082
  3.093   3.118   3.125   3.162   3.167   3.193   3.254   3.264
  3.279   3.295   3.336   3.367   3.395   3.402   3.416   3.444
  3.484   3.494   3.509   3.529   3.555   3.578   3.592   3.617
  3.644   3.666   3.669   3.686   3.719   3.730   3.759   3.769
  3.799   3.819   3.866   3.915   4.025   4.054   4.071   4.121
  4.176   4.207   4.269   4.316   4.391   4.414   4.449   4.543
  4.634   4.743   4.775   4.837   4.905   4.935   4.967   5.085
  5.101   5.139   5.211   5.223   5.291   5.346   5.377   5.382
  5.391   5.392   5.406   5.499   5.508   5.530   5.580   5.617
  5.625   5.687   5.721   5.747   5.784   5.895   6.000   6.000
  6.097   6.166   6.208   6.222   6.294   6.334   6.376   6.475
  6.573   6.592   6.632   6.650   6.654   6.672   6.711   6.716
  6.733   6.766   6.775   6.805   6.872   6.963   6.994   7.020
  7.049   7.058   7.074   7.271   7.277   7.294   7.358   7.396
  7.411   7.420   7.511   8.287  22.775  22.957  23.674  44.054
 44.087  44.336  44.462  44.580
 --------------------------------------------------------------
 
          Ground-State Mulliken Net Atomic Charges

     Atom                 Charge (a.u.)
  ----------------------------------------
      1 C                    -0.072645
      2 C                     0.193096
      3 O                    -0.768751
      4 O                    -0.789569
      5 C                    -0.131015
      6 H                     0.178943
      7 H                     0.128395
      8 H                     0.217954
      9 O                    -0.262639
     10 O                    -0.393943
     11 H                    -0.086775
     12 O                    -0.884532
     13 H                     0.317495
     14 H                     0.353986
  ----------------------------------------
  Sum of atomic charges =    -2.000000

 -----------------------------------------------------------------
                    Cartesian Multipole Moments
 -----------------------------------------------------------------
    Charge (ESU x 10^10)
                -9.6064
    Dipole Moment (Debye)
         X       5.6871      Y     -14.8908      Z       1.6707
       Tot      16.0272
    Quadrupole Moments (Debye-Ang)
        XX     -80.8099     XY      -2.8970     YY     -88.4249
        XZ       8.0178     YZ       3.1623     ZZ     -63.4894
    Octopole Moments (Debye-Ang^2)
       XXX      36.5080    XXY     -27.1292    XYY      28.0936
       YYY    -187.0723    XXZ      -9.6548    XYZ      -5.1571
       YYZ      15.3784    XZZ      -7.0106    YZZ     -50.1027
       ZZZ      24.7116
    Hexadecapole Moments (Debye-Ang^3)
      XXXX   -1040.0677   XXXY      13.7620   XXYY    -242.4680
      XYYY      89.7733   YYYY    -950.4875   XXXZ      35.9930
      XXYZ      -2.0499   XYYZ      13.2519   YYYZ      34.4994
      XXZZ    -169.3866   XYZZ      21.8179   YYZZ    -192.6411
      XZZZ     -21.4509   YZZZ      68.6881   ZZZZ    -266.3089
 -----------------------------------------------------------------
 Calculating analytic gradient of the SCF energy
 Gradient of SCF Energy
            1           2           3           4           5           6
    1   0.0022250   0.0209218  -0.0067749   0.0077158  -0.0549522  -0.0337639
    2  -0.0105697   0.0509506  -0.0103314  -0.0547734  -0.0385981  -0.0119003
    3   0.1319527  -0.0460682   0.0598705  -0.0256001  -0.0706844  -0.0822239
            7           8           9          10          11          12
    1   0.0262674   0.0309257  -0.0082774   0.0127879   0.0146241  -0.0160282
    2   0.0033443   0.0641017  -0.0056596  -0.0400593   0.0086778   0.0131578
    3   0.0696996  -0.0213284  -0.0338139   0.0313373  -0.0220338  -0.0559465
           13          14
    1   0.0146300  -0.0103012
    2  -0.0121747   0.0438344
    3   0.0656412  -0.0008020
 Max gradient component =       1.320E-01
 RMS gradient           =       4.192E-02
 Computing fast CPCM-ISWIG gradient
 Updating gradient with PCM contributions...
 -- total gradient after adding PCM contribution --
---------------------------------------------------
  Atom         X              Y              Z     
---------------------------------------------------
   1      -0.000005      -0.000018       0.000015
   2      -0.000013       0.000009       0.000071
   3      -0.000010       0.000063       0.000074
   4      -0.000027      -0.000022       0.000111
   5       0.000007       0.000017      -0.000026
   6      -0.000009      -0.000061       0.000017
   7       0.000015       0.000061      -0.000032
   8       0.000015      -0.000004      -0.000071
   9       0.000012       0.000035      -0.000004
  10      -0.000004      -0.000020      -0.000028
  11      -0.000002      -0.000022      -0.000013
  12       0.000005      -0.000031      -0.000030
  13       0.000007       0.000011      -0.000026
  14       0.000011      -0.000020      -0.000059
---------------------------------------------------
 Number of fixed atoms: 0
 Gradient time:  CPU 366.05 s  wall 94.78 s
 ######################################################
 ######################################################
 # Starting finite difference calculation for IDERIV  #
 Finite diff step size:  1.88973e-03 a.u.
 ----------------------------------------------------------------
             Standard Nuclear Orientation (Angstroms)
    I     Atom           X                Y                Z
 ----------------------------------------------------------------
    1      C      -0.2304921043     0.3579276649     0.3596458929
    2      C      -0.2198300014     1.6874057246    -0.2815330563
    3      O      -0.0083057896     1.7778457382    -1.5392315406
    4      O      -0.4955061364     2.7138698492     0.4322606115
    5      C       0.5431087798    -0.7292342237    -0.2904596775
    6      H      -0.0844607037     0.4128742357     1.4430011908
    7      H       0.3144882050    -0.7995990680    -1.3595731426
    8      H       0.3527289882    -1.7076073467     0.1730064890
    9      O       2.0051702449    -0.5860468047    -0.3406670755
   10      O       2.5171980044    -0.6957250498     0.9872098465
   11      H      -1.6557297990    -0.0726965773     0.1786466149
   12      O      -2.7585828543    -0.4267856228     0.0516365743
   13      H      -2.9629768114    -0.2846547631    -0.8796819346
   14      H       2.6841899778    -1.6475737565     1.0657392076
 ----------------------------------------------------------------
 Nuclear Repulsion Energy =   376.4418527762 hartrees
 There are       33 alpha and       33 beta electrons
 Discretize the solute cavity surface with Lebedev spheres
	Using 110 Lebedev grid points for each H atom
	Using 110 Lebedev grid points for other atoms
	Atomic van der Waals radii will be scaled by 1.20
 Remove points where switching function is < 1.0e-08
 Keep 898 surface tesserae and discard 642 interior tesserae
 Molecular Surface Area = 168.692 Angst**2

                       Distance Matrix (Angstroms)
             C (  1)   C (  2)   O (  3)   O (  4)   C (  5)   H (  6)
   C (  2)  1.476054
   O (  3)  2.381443  1.278565
   O (  4)  2.371913  1.280284  2.236132
   C (  5)  1.484256  2.534226  2.854635  3.668244
   H (  6)  1.094533  2.148668  3.280649  2.546593  2.168673
   H (  7)  2.143032  2.762763  2.603785  4.026316  1.095547  3.079558
   H (  8)  2.154395  3.472829  3.900063  4.509565  1.099208  2.510072
   O (  9)  2.525809  3.181621  3.328458  4.211918  1.469914  2.923333
   O ( 10)  3.008957  3.844521  4.345069  4.583633  2.351721  2.864501
   H ( 11)  1.499833  2.317657  3.014899  3.029091  2.342220  2.074430
   O ( 12)  2.664937  3.320553  3.867206  3.889744  3.333118  3.129194
   H ( 13)  3.068439  3.430985  3.663195  4.098872  3.582942  3.763942
   H ( 14)  3.607766  4.622831  5.076308  5.434515  2.695710  3.471772
             H (  7)   H (  8)   O (  9)   O ( 10)   H ( 11)   O ( 12)
   H (  8)  1.781780
   O (  9)  1.985492  2.062116
   O ( 10)  3.220266  2.524234  1.427396
   H ( 11)  2.603126  2.589763  3.733015  4.295959
   O ( 12)  3.402098  3.366823  4.782532  5.364838  1.165245
   H ( 13)  3.352199  3.758570  5.006382  5.804014  1.695252  0.964019
   H ( 14)  3.495238  2.497256  1.888355  0.969572  4.701284  5.669436
             H ( 13)
   H ( 14)  6.126394
 
 Requested basis set is def2-TZVPD
 There are 139 shells and 365 basis functions
 A cutoff of  1.0D-14 yielded   9037 shell pairs
 There are     62749 function pairs (     80016 Cartesian)
 Smallest overlap matrix eigenvalue = 4.70E-06
 Guess MOs from SCF MO coefficient file
 Reading MOs from coefficient file
 Reading MOs from coefficient file
 Long-range K will be added via erf
 Coulomb attenuation parameter = 0.3 bohr**(-1)
 A restricted hybrid HF-DFT SCF calculation will be
 performed using Pulay DIIS extrapolation
 Polarizable Continuum solvation model will be applied
 Exchange:     0.1670 Hartree-Fock + 1.0000 wB97X-V + LR-HF
 Correlation:  1.0000 wB97X-V
 Using SG-2 standard quadrature grid
 Nonlocal Correlation:  VV10 with C = 0.0100 and b = 6.00
 Grid used for NLC:  SG-1 standard quadrature
 SCF converges when DIIS error is below 1.0E-08
Using Q-Chem read-in guess as SCF_GUESS READ specified.

 using 4 threads for integral computing
 -------------------------------------------------------
 OpenMP Integral computing Module                
 Release: version 1.0, May 2013, Q-Chem Inc. Pittsburgh 
 -------------------------------------------------------
 using 4 threads for integral computing
 -------------------------------------------------------
 OpenMP Integral computing Module                
 Release: version 1.0, May 2013, Q-Chem Inc. Pittsburgh 
 -------------------------------------------------------
 -------------------------------------------------------
 OpenMP BLAS3 based DFT computing Module                
 Release: version 1.0, May 2013, Q-Chem Inc. Pittsburgh 
 -------------------------------------------------------
 -------------------------------------------------------
 OpenMP BLAS3 based DFT computing Module                
 Release: version 1.0, May 2013, Q-Chem Inc. Pittsburgh 
 -------------------------------------------------------
 -------------------------------------------------------
 OpenMP BLAS3 based DFT computing Module                
 Release: version 1.0, May 2013, Q-Chem Inc. Pittsburgh 
 -------------------------------------------------------
 ---------------------------------------
  Cycle       Energy         DIIS Error
 ---------------------------------------
    1    -493.8919548273      5.90E-04
    2    -494.2303560167      6.42E-04
    3    -494.2401009030      2.87E-04
    4    -494.2417422055      2.11E-04
    5    -494.2426604228      1.61E-04
    6    -494.2431753036      1.26E-04
    7    -494.2435817718      8.92E-05
    8    -494.2437754655      6.50E-05
    9    -494.2439111848      3.99E-05
   10    -494.2439828869      1.44E-05
   11    -494.2439921166      5.08E-06
   12    -494.2439933819      9.35E-07
   13    -494.2439934213      2.84E-07
   14    -494.2439934252      5.05E-08
   15    -494.2439934253      1.14E-08
   16    -494.2439934253      7.45E-09 Convergence criterion met
 ---------------------------------------

************** Final PCM Free Energy Summary **************
 G_electrostatic  =      -0.35231537 hartree =    -221.08123285 kcal/mol
 G_cavitation     =       0.00000000 hartree =       0.00000000 kcal/mol
 G_dispersion     =       0.00000000 hartree =       0.00000000 kcal/mol
 G_repulsion      =       0.00000000 hartree =       0.00000000 kcal/mol
 --------------------------------------------------
 Non-electrostatic Free Energy =       0.00000000 hartree =       0.00000000 kcal/mol
 Total                         =      -0.35231537 hartree =    -221.08123285 kcal/mol
 --------------------------------------------------
 SCF Energy (H0 + V/2)                       =    -494.24399343 
 Solute Internal Energy (H0)                 =    -493.89167805 
 Total Free Energy (H0 + V/2 + non-elec)     =    -494.24399343 hartree
                                             = -310142.78685925 kcal/mol
***********************************************************

 SCF time:  CPU 1668.26 s  wall 434.76 s
 SCF   energy in the final basis set = -494.24399343
 Total energy in the final basis set = -494.24399343
 
 --------------------------------------------------------------
 
                    Orbital Energies (a.u.)
 --------------------------------------------------------------
 
 Alpha MOs
 -- Occupied --
-19.254 -19.248 -19.140 -19.116 -19.115 -10.315 -10.286 -10.183
 -1.237  -1.112  -1.043  -1.016  -1.010  -0.834  -0.722  -0.623
 -0.579  -0.567  -0.560  -0.542  -0.506  -0.502  -0.479  -0.464
 -0.439  -0.423  -0.393  -0.368  -0.364  -0.327  -0.320  -0.305
 -0.255
 -- Virtual --
  0.061   0.076   0.083   0.084   0.102   0.110   0.115   0.120
  0.128   0.144   0.147   0.155   0.161   0.164   0.167   0.173
  0.180   0.191   0.195   0.206   0.213   0.226   0.229   0.249
  0.255   0.263   0.268   0.273   0.294   0.298   0.301   0.312
  0.323   0.331   0.340   0.344   0.354   0.355   0.367   0.373
  0.377   0.381   0.383   0.396   0.400   0.405   0.411   0.422
  0.428   0.438   0.441   0.449   0.455   0.467   0.473   0.482
  0.486   0.496   0.503   0.510   0.519   0.525   0.530   0.534
  0.548   0.563   0.573   0.580   0.585   0.590   0.593   0.599
  0.609   0.619   0.632   0.636   0.646   0.651   0.656   0.664
  0.682   0.683   0.706   0.711   0.714   0.722   0.729   0.737
  0.747   0.759   0.768   0.774   0.780   0.784   0.804   0.814
  0.820   0.832   0.845   0.850   0.859   0.866   0.871   0.884
  0.889   0.905   0.918   0.942   0.951   0.963   0.972   0.984
  1.005   1.015   1.037   1.055   1.063   1.091   1.096   1.115
  1.137   1.145   1.152   1.166   1.179   1.205   1.218   1.242
  1.254   1.268   1.274   1.302   1.327   1.336   1.373   1.383
  1.403   1.412   1.433   1.472   1.482   1.530   1.555   1.573
  1.601   1.639   1.695   1.725   1.737   1.757   1.801   1.808
  1.833   1.897   1.905   1.909   1.925   1.952   1.958   1.970
  1.984   2.005   2.020   2.045   2.058   2.073   2.093   2.099
  2.127   2.162   2.193   2.214   2.222   2.256   2.272   2.284
  2.289   2.321   2.333   2.382   2.398   2.425   2.455   2.460
  2.478   2.490   2.495   2.549   2.569   2.601   2.638   2.662
  2.701   2.718   2.747   2.759   2.799   2.824   2.849   2.881
  2.893   2.909   2.973   2.984   3.002   3.024   3.037   3.082
  3.093   3.118   3.125   3.162   3.167   3.193   3.254   3.264
  3.279   3.295   3.336   3.367   3.395   3.402   3.416   3.444
  3.484   3.494   3.508   3.529   3.555   3.578   3.592   3.617
  3.644   3.666   3.669   3.686   3.719   3.730   3.759   3.769
  3.799   3.819   3.866   3.915   4.025   4.054   4.071   4.120
  4.176   4.207   4.270   4.316   4.391   4.415   4.450   4.543
  4.635   4.744   4.775   4.838   4.905   4.936   4.967   5.085
  5.101   5.139   5.211   5.223   5.291   5.346   5.377   5.382
  5.391   5.392   5.407   5.499   5.508   5.530   5.580   5.617
  5.625   5.687   5.722   5.747   5.784   5.896   6.000   6.000
  6.097   6.165   6.208   6.222   6.294   6.334   6.376   6.475
  6.573   6.592   6.632   6.650   6.653   6.672   6.711   6.716
  6.733   6.766   6.775   6.805   6.872   6.963   6.994   7.020
  7.049   7.058   7.074   7.271   7.277   7.294   7.358   7.396
  7.411   7.420   7.511   8.287  22.775  22.958  23.674  44.054
 44.087  44.336  44.462  44.580
 --------------------------------------------------------------
 
          Ground-State Mulliken Net Atomic Charges

     Atom                 Charge (a.u.)
  ----------------------------------------
      1 C                    -0.074909
      2 C                     0.193819
      3 O                    -0.768803
      4 O                    -0.789648
      5 C                    -0.130481
      6 H                     0.179333
      7 H                     0.128407
      8 H                     0.217947
      9 O                    -0.262701
     10 O                    -0.393933
     11 H                    -0.086222
     12 O                    -0.884317
     13 H                     0.317543
     14 H                     0.353964
  ----------------------------------------
  Sum of atomic charges =    -2.000000

 -----------------------------------------------------------------
                    Cartesian Multipole Moments
 -----------------------------------------------------------------
    Charge (ESU x 10^10)
                -9.6064
    Dipole Moment (Debye)
         X       5.6793      Y     -14.8937      Z       1.6711
       Tot      16.0271
    Quadrupole Moments (Debye-Ang)
        XX     -80.7975     XY      -2.8920     YY     -88.4285
        XZ       8.0166     YZ       3.1635     ZZ     -63.4909
    Octopole Moments (Debye-Ang^2)
       XXX      36.4146    XXY     -27.1384    XYY      28.0849
       YYY    -187.0865    XXZ      -9.6557    XYZ      -5.1591
       YYZ      15.3807    XZZ      -7.0225    YZZ     -50.1079
       ZZZ      24.7164
    Hexadecapole Moments (Debye-Ang^3)
      XXXX   -1039.8549   XXXY      13.8081   XXYY    -242.4623
      XYYY      89.7951   YYYY    -950.5179   XXXZ      35.9911
      XXYZ      -2.0480   XYYZ      13.2475   YYYZ      34.5065
      XXZZ    -169.3789   XYZZ      21.8222   YYZZ    -192.6520
      XZZZ     -21.4624   YZZZ      68.6973   ZZZZ    -266.3197
 -----------------------------------------------------------------
 Calculating analytic gradient of the SCF energy
 Gradient of SCF Energy
            1           2           3           4           5           6
    1   0.0022800   0.0207940  -0.0067433   0.0077472  -0.0548723  -0.0336693
    2  -0.0108318   0.0511024  -0.0103251  -0.0547729  -0.0384113  -0.0118669
    3   0.1320283  -0.0461514   0.0598838  -0.0256157  -0.0706809  -0.0823431
            7           8           9          10          11          12
    1   0.0262722   0.0309095  -0.0083305   0.0127960   0.0145910  -0.0160804
    2   0.0033182   0.0640748  -0.0056354  -0.0400684   0.0086230   0.0131399
    3   0.0696778  -0.0213222  -0.0338055   0.0313426  -0.0219031  -0.0559510
           13          14
    1   0.0146156  -0.0103098
    2  -0.0121818   0.0438355
    3   0.0656410  -0.0008005
 Max gradient component =       1.320E-01
 RMS gradient           =       4.192E-02
 Computing fast CPCM-ISWIG gradient
 Updating gradient with PCM contributions...
 -- total gradient after adding PCM contribution --
---------------------------------------------------
  Atom         X              Y              Z     
---------------------------------------------------
   1       0.000399      -0.000226      -0.000008
   2      -0.000152       0.000088       0.000045
   3       0.000023       0.000048       0.000115
   4       0.000015      -0.000016       0.000102
   5      -0.000131       0.000108       0.000018
   6      -0.000056      -0.000044      -0.000046
   7       0.000019       0.000055      -0.000031
   8       0.000018      -0.000004      -0.000072
   9      -0.000079       0.000085       0.000035
  10      -0.000003      -0.000016      -0.000027
  11       0.000100       0.000022       0.000014
  12      -0.000163      -0.000088      -0.000060
  13      -0.000001       0.000009      -0.000027
  14       0.000011      -0.000021      -0.000059
---------------------------------------------------
 Number of fixed atoms: 0
 Gradient time:  CPU 372.74 s  wall 96.48 s
 ----------------------------------------------------------------
             Standard Nuclear Orientation (Angstroms)
    I     Atom           X                Y                Z
 ----------------------------------------------------------------
    1      C      -0.2324921043     0.3579276649     0.3596458929
    2      C      -0.2198300014     1.6874057246    -0.2815330563
    3      O      -0.0083057896     1.7778457382    -1.5392315406
    4      O      -0.4955061364     2.7138698492     0.4322606115
    5      C       0.5431087798    -0.7292342237    -0.2904596775
    6      H      -0.0844607037     0.4128742357     1.4430011908
    7      H       0.3144882050    -0.7995990680    -1.3595731426
    8      H       0.3527289882    -1.7076073467     0.1730064890
    9      O       2.0051702449    -0.5860468047    -0.3406670755
   10      O       2.5171980044    -0.6957250498     0.9872098465
   11      H      -1.6557297990    -0.0726965773     0.1786466149
   12      O      -2.7585828543    -0.4267856228     0.0516365743
   13      H      -2.9629768114    -0.2846547631    -0.8796819346
   14      H       2.6841899778    -1.6475737565     1.0657392076
 ----------------------------------------------------------------
 Nuclear Repulsion Energy =   376.4289474793 hartrees
 There are       33 alpha and       33 beta electrons
 Discretize the solute cavity surface with Lebedev spheres
	Using 110 Lebedev grid points for each H atom
	Using 110 Lebedev grid points for other atoms
	Atomic van der Waals radii will be scaled by 1.20
 Remove points where switching function is < 1.0e-08
 Keep 898 surface tesserae and discard 642 interior tesserae
 Molecular Surface Area = 168.699 Angst**2

                       Distance Matrix (Angstroms)
             C (  1)   C (  2)   O (  3)   O (  4)   C (  5)   H (  6)
   C (  2)  1.476070
   O (  3)  2.381630  1.278565
   O (  4)  2.371690  1.280284  2.236132
   C (  5)  1.485300  2.534226  2.854635  3.668244
   H (  6)  1.094802  2.148668  3.280649  2.546593  2.168673
   H (  7)  2.143541  2.762763  2.603785  4.026316  1.095547  3.079558
   H (  8)  2.154937  3.472829  3.900063  4.509565  1.099208  2.510072
   O (  9)  2.527580  3.181621  3.328458  4.211918  1.469914  2.923333
   O ( 10)  3.010783  3.844521  4.345069  4.583633  2.351721  2.864501
   H ( 11)  1.497933  2.317657  3.014899  3.029091  2.342220  2.074430
   O ( 12)  2.663039  3.320553  3.867206  3.889744  3.333118  3.129194
   H ( 13)  3.066658  3.430985  3.663195  4.098872  3.582942  3.763942
   H ( 14)  3.609382  4.622831  5.076308  5.434515  2.695710  3.471772
             H (  7)   H (  8)   O (  9)   O ( 10)   H ( 11)   O ( 12)
   H (  8)  1.781780
   O (  9)  1.985492  2.062116
   O ( 10)  3.220266  2.524234  1.427396
   H ( 11)  2.603126  2.589763  3.733015  4.295959
   O ( 12)  3.402098  3.366823  4.782532  5.364838  1.165245
   H ( 13)  3.352199  3.758570  5.006382  5.804014  1.695252  0.964019
   H ( 14)  3.495238  2.497256  1.888355  0.969572  4.701284  5.669436
             H ( 13)
   H ( 14)  6.126394
 
 Requested basis set is def2-TZVPD
 There are 139 shells and 365 basis functions
 A cutoff of  1.0D-14 yielded   9037 shell pairs
 There are     62749 function pairs (     80016 Cartesian)
 Smallest overlap matrix eigenvalue = 4.70E-06
 Guess MOs from SCF MO coefficient file
 Reading MOs from coefficient file
 Reading MOs from coefficient file
 Long-range K will be added via erf
 Coulomb attenuation parameter = 0.3 bohr**(-1)
 A restricted hybrid HF-DFT SCF calculation will be
 performed using Pulay DIIS extrapolation
 Polarizable Continuum solvation model will be applied
 Exchange:     0.1670 Hartree-Fock + 1.0000 wB97X-V + LR-HF
 Correlation:  1.0000 wB97X-V
 Using SG-2 standard quadrature grid
 Nonlocal Correlation:  VV10 with C = 0.0100 and b = 6.00
 Grid used for NLC:  SG-1 standard quadrature
 SCF converges when DIIS error is below 1.0E-08
Using Q-Chem read-in guess as SCF_GUESS READ specified.

 using 4 threads for integral computing
 -------------------------------------------------------
 OpenMP Integral computing Module                
 Release: version 1.0, May 2013, Q-Chem Inc. Pittsburgh 
 -------------------------------------------------------
 using 4 threads for integral computing
 -------------------------------------------------------
 OpenMP Integral computing Module                
 Release: version 1.0, May 2013, Q-Chem Inc. Pittsburgh 
 -------------------------------------------------------
 -------------------------------------------------------
 OpenMP BLAS3 based DFT computing Module                
 Release: version 1.0, May 2013, Q-Chem Inc. Pittsburgh 
 -------------------------------------------------------
 -------------------------------------------------------
 OpenMP BLAS3 based DFT computing Module                
 Release: version 1.0, May 2013, Q-Chem Inc. Pittsburgh 
 -------------------------------------------------------
 -------------------------------------------------------
 OpenMP BLAS3 based DFT computing Module                
 Release: version 1.0, May 2013, Q-Chem Inc. Pittsburgh 
 -------------------------------------------------------
 ---------------------------------------
  Cycle       Energy         DIIS Error
 ---------------------------------------
    1    -493.8911467007      5.91E-04
    2    -494.2303680639      6.41E-04
    3    -494.2401121243      2.87E-04
    4    -494.2417548398      2.11E-04
    5    -494.2426890087      1.60E-04
    6    -494.2432397130      1.21E-04
    7    -494.2436958984      7.57E-05
    8    -494.2438881360      4.51E-05
    9    -494.2439739219      1.94E-05
   10    -494.2439926660      3.82E-06
   11    -494.2439933584      9.75E-07
   12    -494.2439934050      1.85E-07
   13    -494.2439934064      4.82E-08
   14    -494.2439934065      1.38E-08
   15    -494.2439934065      5.02E-09 Convergence criterion met
 ---------------------------------------

************** Final PCM Free Energy Summary **************
 G_electrostatic  =      -0.35229832 hartree =    -221.07052967 kcal/mol
 G_cavitation     =       0.00000000 hartree =       0.00000000 kcal/mol
 G_dispersion     =       0.00000000 hartree =       0.00000000 kcal/mol
 G_repulsion      =       0.00000000 hartree =       0.00000000 kcal/mol
 --------------------------------------------------
 Non-electrostatic Free Energy =       0.00000000 hartree =       0.00000000 kcal/mol
 Total                         =      -0.35229832 hartree =    -221.07052967 kcal/mol
 --------------------------------------------------
 SCF Energy (H0 + V/2)                       =    -494.24399341 
 Solute Internal Energy (H0)                 =    -493.89169509 
 Total Free Energy (H0 + V/2 + non-elec)     =    -494.24399341 hartree
                                             = -310142.78684745 kcal/mol
***********************************************************

 SCF time:  CPU 1574.18 s  wall 410.55 s
 SCF   energy in the final basis set = -494.24399341
 Total energy in the final basis set = -494.24399341
 
 --------------------------------------------------------------
 
                    Orbital Energies (a.u.)
 --------------------------------------------------------------
 
 Alpha MOs
 -- Occupied --
-19.254 -19.248 -19.140 -19.116 -19.116 -10.315 -10.286 -10.183
 -1.237  -1.112  -1.043  -1.016  -1.010  -0.834  -0.722  -0.623
 -0.579  -0.567  -0.560  -0.542  -0.506  -0.502  -0.479  -0.464
 -0.439  -0.423  -0.393  -0.368  -0.364  -0.327  -0.320  -0.305
 -0.255
 -- Virtual --
  0.061   0.076   0.083   0.084   0.102   0.110   0.115   0.120
  0.128   0.144   0.147   0.155   0.161   0.164   0.167   0.173
  0.180   0.191   0.195   0.206   0.213   0.226   0.229   0.250
  0.255   0.263   0.268   0.273   0.294   0.298   0.301   0.312
  0.323   0.331   0.340   0.344   0.354   0.356   0.367   0.373
  0.377   0.381   0.383   0.396   0.400   0.405   0.411   0.422
  0.428   0.438   0.442   0.449   0.454   0.467   0.473   0.482
  0.486   0.496   0.503   0.510   0.519   0.525   0.530   0.534
  0.548   0.563   0.573   0.580   0.585   0.590   0.593   0.599
  0.609   0.619   0.632   0.636   0.646   0.651   0.656   0.664
  0.682   0.683   0.706   0.711   0.714   0.722   0.729   0.737
  0.747   0.759   0.768   0.774   0.781   0.784   0.804   0.814
  0.820   0.832   0.845   0.850   0.859   0.866   0.871   0.884
  0.889   0.905   0.918   0.942   0.951   0.963   0.972   0.984
  1.005   1.015   1.037   1.054   1.063   1.091   1.096   1.115
  1.137   1.145   1.152   1.166   1.179   1.205   1.218   1.242
  1.254   1.268   1.274   1.302   1.328   1.336   1.373   1.383
  1.402   1.412   1.433   1.472   1.482   1.530   1.555   1.574
  1.600   1.639   1.694   1.725   1.737   1.757   1.801   1.808
  1.833   1.897   1.905   1.909   1.925   1.953   1.958   1.970
  1.984   2.005   2.020   2.045   2.058   2.073   2.093   2.099
  2.127   2.162   2.193   2.214   2.222   2.256   2.272   2.284
  2.288   2.321   2.333   2.382   2.398   2.425   2.455   2.460
  2.478   2.490   2.495   2.549   2.569   2.601   2.638   2.662
  2.701   2.718   2.747   2.759   2.799   2.823   2.849   2.881
  2.893   2.909   2.974   2.984   3.002   3.024   3.038   3.083
  3.093   3.118   3.125   3.162   3.167   3.193   3.254   3.264
  3.279   3.295   3.336   3.367   3.395   3.402   3.416   3.444
  3.484   3.494   3.509   3.529   3.555   3.578   3.592   3.617
  3.644   3.666   3.669   3.686   3.719   3.730   3.759   3.769
  3.799   3.818   3.866   3.915   4.025   4.054   4.071   4.121
  4.176   4.207   4.269   4.316   4.391   4.414   4.449   4.543
  4.634   4.743   4.774   4.837   4.905   4.935   4.967   5.085
  5.101   5.139   5.210   5.223   5.291   5.346   5.377   5.382
  5.391   5.392   5.406   5.499   5.508   5.530   5.580   5.617
  5.626   5.686   5.721   5.747   5.784   5.895   6.000   6.000
  6.097   6.167   6.208   6.222   6.294   6.334   6.376   6.476
  6.573   6.592   6.632   6.650   6.654   6.672   6.711   6.716
  6.733   6.766   6.775   6.805   6.872   6.963   6.994   7.020
  7.049   7.058   7.075   7.271   7.277   7.294   7.358   7.396
  7.411   7.420   7.511   8.287  22.775  22.956  23.674  44.054
 44.087  44.336  44.462  44.580
 --------------------------------------------------------------
 
          Ground-State Mulliken Net Atomic Charges

     Atom                 Charge (a.u.)
  ----------------------------------------
      1 C                    -0.070381
      2 C                     0.192376
      3 O                    -0.768697
      4 O                    -0.789490
      5 C                    -0.131552
      6 H                     0.178552
      7 H                     0.128383
      8 H                     0.217961
      9 O                    -0.262576
     10 O                    -0.393952
     11 H                    -0.087330
     12 O                    -0.884747
     13 H                     0.317448
     14 H                     0.354007
  ----------------------------------------
  Sum of atomic charges =    -2.000000

 -----------------------------------------------------------------
                    Cartesian Multipole Moments
 -----------------------------------------------------------------
    Charge (ESU x 10^10)
                -9.6064
    Dipole Moment (Debye)
         X       5.6949      Y     -14.8879      Z       1.6702
       Tot      16.0272
    Quadrupole Moments (Debye-Ang)
        XX     -80.8224     XY      -2.9021     YY     -88.4212
        XZ       8.0190     YZ       3.1610     ZZ     -63.4880
    Octopole Moments (Debye-Ang^2)
       XXX      36.6016    XXY     -27.1198    XYY      28.1023
       YYY    -187.0581    XXZ      -9.6539    XYZ      -5.1551
       YYZ      15.3761    XZZ      -6.9987    YZZ     -50.0975
       ZZZ      24.7067
    Hexadecapole Moments (Debye-Ang^3)
      XXXX   -1040.2814   XXXY      13.7158   XXYY    -242.4737
      XYYY      89.7515   YYYY    -950.4569   XXXZ      35.9950
      XXYZ      -2.0518   XYYZ      13.2563   YYYZ      34.4922
      XXZZ    -169.3943   XYZZ      21.8136   YYZZ    -192.6301
      XZZZ     -21.4394   YZZZ      68.6789   ZZZZ    -266.2981
 -----------------------------------------------------------------
 Calculating analytic gradient of the SCF energy
 Gradient of SCF Energy
            1           2           3           4           5           6
    1   0.0021694   0.0210494  -0.0068066   0.0076844  -0.0550320  -0.0338577
    2  -0.0103099   0.0507998  -0.0103377  -0.0547738  -0.0387843  -0.0119334
    3   0.1318755  -0.0459844   0.0598571  -0.0255845  -0.0706874  -0.0821038
            7           8           9          10          11          12
    1   0.0262626   0.0309418  -0.0082243   0.0127799   0.0146574  -0.0159760
    2   0.0033703   0.0641287  -0.0056837  -0.0400503   0.0087328   0.0131757
    3   0.0697217  -0.0213347  -0.0338222   0.0313319  -0.0221653  -0.0559420
           13          14
    1   0.0146444  -0.0102926
    2  -0.0121675   0.0438333
    3   0.0656415  -0.0008034
 Max gradient component =       1.319E-01
 RMS gradient           =       4.191E-02
 Computing fast CPCM-ISWIG gradient
 Updating gradient with PCM contributions...
 -- total gradient after adding PCM contribution --
---------------------------------------------------
  Atom         X              Y              Z     
---------------------------------------------------
   1      -0.000409       0.000189       0.000037
   2       0.000125      -0.000071       0.000098
   3      -0.000043       0.000078       0.000032
   4      -0.000069      -0.000028       0.000120
   5       0.000145      -0.000073      -0.000068
   6       0.000037      -0.000078       0.000080
   7       0.000010       0.000068      -0.000033
   8       0.000012      -0.000004      -0.000069
   9       0.000103      -0.000015      -0.000042
  10      -0.000005      -0.000024      -0.000030
  11      -0.000104      -0.000065      -0.000039
  12       0.000173       0.000027      -0.000001
  13       0.000015       0.000014      -0.000025
  14       0.000012      -0.000018      -0.000059
---------------------------------------------------
 Number of fixed atoms: 0
 Gradient time:  CPU 362.73 s  wall 94.46 s
 ----------------------------------------------------------------
             Standard Nuclear Orientation (Angstroms)
    I     Atom           X                Y                Z
 ----------------------------------------------------------------
    1      C      -0.2314921043     0.3589276649     0.3596458929
    2      C      -0.2198300014     1.6874057246    -0.2815330563
    3      O      -0.0083057896     1.7778457382    -1.5392315406
    4      O      -0.4955061364     2.7138698492     0.4322606115
    5      C       0.5431087798    -0.7292342237    -0.2904596775
    6      H      -0.0844607037     0.4128742357     1.4430011908
    7      H       0.3144882050    -0.7995990680    -1.3595731426
    8      H       0.3527289882    -1.7076073467     0.1730064890
    9      O       2.0051702449    -0.5860468047    -0.3406670755
   10      O       2.5171980044    -0.6957250498     0.9872098465
   11      H      -1.6557297990    -0.0726965773     0.1786466149
   12      O      -2.7585828543    -0.4267856228     0.0516365743
   13      H      -2.9629768114    -0.2846547631    -0.8796819346
   14      H       2.6841899778    -1.6475737565     1.0657392076
 ----------------------------------------------------------------
 Nuclear Repulsion Energy =   376.4390814389 hartrees
 There are       33 alpha and       33 beta electrons
 Discretize the solute cavity surface with Lebedev spheres
	Using 110 Lebedev grid points for each H atom
	Using 110 Lebedev grid points for other atoms
	Atomic van der Waals radii will be scaled by 1.20
 Remove points where switching function is < 1.0e-08
 Keep 898 surface tesserae and discard 642 interior tesserae
 Molecular Surface Area = 168.692 Angst**2

                       Distance Matrix (Angstroms)
             C (  1)   C (  2)   O (  3)   O (  4)   C (  5)   H (  6)
   C (  2)  1.475161
   O (  3)  2.380940  1.278565
   O (  4)  2.370808  1.280284  2.236132
   C (  5)  1.485510  2.534226  2.854635  3.668244
   H (  6)  1.094617  2.148668  3.280649  2.546593  2.168673
   H (  7)  2.143827  2.762763  2.603785  4.026316  1.095547  3.079558
   H (  8)  2.155624  3.472829  3.900063  4.509565  1.099208  2.510072
   O (  9)  2.527068  3.181621  3.328458  4.211918  1.469914  2.923333
   O ( 10)  3.010220  3.844521  4.345069  4.583633  2.351721  2.864501
   H ( 11)  1.499171  2.317657  3.014899  3.029091  2.342220  2.074430
   O ( 12)  2.664283  3.320553  3.867206  3.889744  3.333118  3.129194
   H ( 13)  3.067758  3.430985  3.663195  4.098872  3.582942  3.763942
   H ( 14)  3.609130  4.622831  5.076308  5.434515  2.695710  3.471772
             H (  7)   H (  8)   O (  9)   O ( 10)   H ( 11)   O ( 12)
   H (  8)  1.781780
   O (  9)  1.985492  2.062116
   O ( 10)  3.220266  2.524234  1.427396
   H ( 11)  2.603126  2.589763  3.733015  4.295959
   O ( 12)  3.402098  3.366823  4.782532  5.364838  1.165245
   H ( 13)  3.352199  3.758570  5.006382  5.804014  1.695252  0.964019
   H ( 14)  3.495238  2.497256  1.888355  0.969572  4.701284  5.669436
             H ( 13)
   H ( 14)  6.126394
 
 Requested basis set is def2-TZVPD
 There are 139 shells and 365 basis functions
 A cutoff of  1.0D-14 yielded   9037 shell pairs
 There are     62749 function pairs (     80016 Cartesian)
 Smallest overlap matrix eigenvalue = 4.70E-06
 Guess MOs from SCF MO coefficient file
 Reading MOs from coefficient file
 Reading MOs from coefficient file
 Long-range K will be added via erf
 Coulomb attenuation parameter = 0.3 bohr**(-1)
 A restricted hybrid HF-DFT SCF calculation will be
 performed using Pulay DIIS extrapolation
 Polarizable Continuum solvation model will be applied
 Exchange:     0.1670 Hartree-Fock + 1.0000 wB97X-V + LR-HF
 Correlation:  1.0000 wB97X-V
 Using SG-2 standard quadrature grid
 Nonlocal Correlation:  VV10 with C = 0.0100 and b = 6.00
 Grid used for NLC:  SG-1 standard quadrature
 SCF converges when DIIS error is below 1.0E-08
Using Q-Chem read-in guess as SCF_GUESS READ specified.

 using 4 threads for integral computing
 -------------------------------------------------------
 OpenMP Integral computing Module                
 Release: version 1.0, May 2013, Q-Chem Inc. Pittsburgh 
 -------------------------------------------------------
 using 4 threads for integral computing
 -------------------------------------------------------
 OpenMP Integral computing Module                
 Release: version 1.0, May 2013, Q-Chem Inc. Pittsburgh 
 -------------------------------------------------------
 -------------------------------------------------------
 OpenMP BLAS3 based DFT computing Module                
 Release: version 1.0, May 2013, Q-Chem Inc. Pittsburgh 
 -------------------------------------------------------
 -------------------------------------------------------
 OpenMP BLAS3 based DFT computing Module                
 Release: version 1.0, May 2013, Q-Chem Inc. Pittsburgh 
 -------------------------------------------------------
 -------------------------------------------------------
 OpenMP BLAS3 based DFT computing Module                
 Release: version 1.0, May 2013, Q-Chem Inc. Pittsburgh 
 -------------------------------------------------------
 ---------------------------------------
  Cycle       Energy         DIIS Error
 ---------------------------------------
    1    -493.8918749843      5.90E-04
    2    -494.2303631229      6.42E-04
    3    -494.2401022733      2.87E-04
    4    -494.2417436660      2.11E-04
    5    -494.2426665113      1.61E-04
    6    -494.2431916587      1.25E-04
    7    -494.2436213285      8.47E-05
    8    -494.2438263438      5.68E-05
    9    -494.2439481084      2.95E-05
   10    -494.2439903326      7.19E-06
   11    -494.2439927808      1.91E-06
   12    -494.2439929609      2.40E-07
   13    -494.2439929633      5.36E-08
   14    -494.2439929634      1.93E-08
   15    -494.2439929634      1.22E-08
   16    -494.2439929634      2.75E-09 Convergence criterion met
 ---------------------------------------

************** Final PCM Free Energy Summary **************
 G_electrostatic  =      -0.35234137 hartree =    -221.09754832 kcal/mol
 G_cavitation     =       0.00000000 hartree =       0.00000000 kcal/mol
 G_dispersion     =       0.00000000 hartree =       0.00000000 kcal/mol
 G_repulsion      =       0.00000000 hartree =       0.00000000 kcal/mol
 --------------------------------------------------
 Non-electrostatic Free Energy =       0.00000000 hartree =       0.00000000 kcal/mol
 Total                         =      -0.35234137 hartree =    -221.09754832 kcal/mol
 --------------------------------------------------
 SCF Energy (H0 + V/2)                       =    -494.24399296 
 Solute Internal Energy (H0)                 =    -493.89165159 
 Total Free Energy (H0 + V/2 + non-elec)     =    -494.24399296 hartree
                                             = -310142.78656942 kcal/mol
***********************************************************

 SCF time:  CPU 1667.56 s  wall 435.22 s
 SCF   energy in the final basis set = -494.24399296
 Total energy in the final basis set = -494.24399296
 
 --------------------------------------------------------------
 
                    Orbital Energies (a.u.)
 --------------------------------------------------------------
 
 Alpha MOs
 -- Occupied --
-19.254 -19.248 -19.140 -19.116 -19.115 -10.314 -10.286 -10.183
 -1.237  -1.112  -1.043  -1.016  -1.010  -0.834  -0.722  -0.623
 -0.579  -0.567  -0.560  -0.542  -0.506  -0.502  -0.479  -0.464
 -0.439  -0.423  -0.393  -0.368  -0.364  -0.327  -0.320  -0.305
 -0.255
 -- Virtual --
  0.061   0.076   0.083   0.084   0.102   0.110   0.115   0.120
  0.128   0.144   0.147   0.155   0.161   0.164   0.167   0.173
  0.180   0.191   0.195   0.206   0.213   0.226   0.229   0.250
  0.255   0.263   0.268   0.273   0.294   0.298   0.301   0.312
  0.323   0.331   0.340   0.344   0.354   0.356   0.367   0.373
  0.377   0.381   0.383   0.396   0.400   0.405   0.411   0.422
  0.428   0.438   0.441   0.449   0.454   0.467   0.473   0.482
  0.486   0.496   0.503   0.510   0.519   0.525   0.530   0.534
  0.548   0.563   0.573   0.580   0.585   0.590   0.593   0.599
  0.609   0.619   0.632   0.636   0.646   0.651   0.656   0.664
  0.682   0.683   0.706   0.711   0.714   0.722   0.729   0.737
  0.747   0.759   0.768   0.774   0.780   0.784   0.804   0.814
  0.820   0.832   0.845   0.850   0.859   0.866   0.871   0.884
  0.889   0.905   0.918   0.942   0.951   0.963   0.972   0.984
  1.005   1.015   1.037   1.055   1.063   1.091   1.096   1.115
  1.137   1.145   1.152   1.166   1.179   1.205   1.218   1.242
  1.254   1.268   1.274   1.302   1.327   1.336   1.373   1.383
  1.402   1.412   1.433   1.472   1.482   1.530   1.555   1.573
  1.601   1.639   1.695   1.725   1.737   1.757   1.801   1.808
  1.833   1.897   1.905   1.909   1.925   1.952   1.958   1.970
  1.984   2.005   2.020   2.045   2.058   2.073   2.093   2.099
  2.127   2.162   2.193   2.214   2.222   2.256   2.272   2.284
  2.288   2.321   2.333   2.382   2.398   2.425   2.455   2.460
  2.478   2.490   2.495   2.549   2.569   2.601   2.638   2.662
  2.701   2.718   2.748   2.759   2.799   2.823   2.849   2.881
  2.893   2.909   2.974   2.984   3.002   3.024   3.037   3.083
  3.093   3.118   3.125   3.162   3.167   3.193   3.254   3.264
  3.278   3.295   3.336   3.367   3.395   3.402   3.416   3.444
  3.484   3.494   3.509   3.529   3.555   3.578   3.593   3.617
  3.644   3.666   3.669   3.686   3.719   3.730   3.759   3.769
  3.799   3.819   3.866   3.915   4.025   4.054   4.071   4.120
  4.176   4.207   4.270   4.316   4.391   4.415   4.449   4.543
  4.634   4.743   4.774   4.837   4.905   4.935   4.967   5.085
  5.101   5.139   5.210   5.223   5.291   5.346   5.377   5.382
  5.391   5.392   5.407   5.499   5.508   5.530   5.580   5.617
  5.625   5.687   5.722   5.747   5.784   5.895   6.000   6.000
  6.097   6.166   6.208   6.222   6.294   6.334   6.376   6.475
  6.573   6.592   6.632   6.650   6.654   6.672   6.711   6.716
  6.733   6.766   6.775   6.805   6.872   6.964   6.994   7.020
  7.049   7.058   7.074   7.271   7.277   7.294   7.358   7.396
  7.411   7.420   7.511   8.287  22.774  22.957  23.675  44.054
 44.087  44.336  44.462  44.580
 --------------------------------------------------------------
 
          Ground-State Mulliken Net Atomic Charges

     Atom                 Charge (a.u.)
  ----------------------------------------
      1 C                    -0.072347
      2 C                     0.192780
      3 O                    -0.768931
      4 O                    -0.789714
      5 C                    -0.131514
      6 H                     0.178944
      7 H                     0.128524
      8 H                     0.218230
      9 O                    -0.262643
     10 O                    -0.393938
     11 H                    -0.086462
     12 O                    -0.884437
     13 H                     0.317528
     14 H                     0.353980
  ----------------------------------------
  Sum of atomic charges =    -2.000000

 -----------------------------------------------------------------
                    Cartesian Multipole Moments
 -----------------------------------------------------------------
    Charge (ESU x 10^10)
                -9.6064
    Dipole Moment (Debye)
         X       5.6858      Y     -14.8975      Z       1.6719
       Tot      16.0331
    Quadrupole Moments (Debye-Ang)
        XX     -80.8011     XY      -2.8944     YY     -88.4363
        XZ       8.0179     YZ       3.1623     ZZ     -63.4907
    Octopole Moments (Debye-Ang^2)
       XXX      36.4844    XXY     -27.1444    XYY      28.0994
       YYY    -187.1385    XXZ      -9.6547    XYZ      -5.1564
       YYZ      15.3792    XZZ      -7.0112    YZZ     -50.1171
       ZZZ      24.7191
    Hexadecapole Moments (Debye-Ang^3)
      XXXX   -1039.9401   XXXY      13.7799   XXYY    -242.4760
      XYYY      89.7969   YYYY    -950.6544   XXXZ      35.9958
      XXYZ      -2.0516   XYYZ      13.2529   YYYZ      34.4926
      XXZZ    -169.3800   XYZZ      21.8213   YYZZ    -192.6625
      XZZZ     -21.4512   YZZZ      68.6879   ZZZZ    -266.3175
 -----------------------------------------------------------------
 Calculating analytic gradient of the SCF energy
 Gradient of SCF Energy
            1           2           3           4           5           6
    1   0.0020388   0.0210508  -0.0067774   0.0077194  -0.0548958  -0.0337464
    2  -0.0097357   0.0505852  -0.0103088  -0.0548032  -0.0390189  -0.0118304
    3   0.1319235  -0.0459712   0.0599007  -0.0256054  -0.0707601  -0.0822663
            7           8           9          10          11          12
    1   0.0262584   0.0309343  -0.0082570   0.0127831   0.0146162  -0.0160459
    2   0.0033155   0.0640943  -0.0056456  -0.0400559   0.0086127   0.0131475
    3   0.0697289  -0.0213498  -0.0338091   0.0313330  -0.0220064  -0.0559532
           13          14
    1   0.0146258  -0.0103044
    2  -0.0121864   0.0438296
    3   0.0656384  -0.0008030
 Max gradient component =       1.319E-01
 RMS gradient           =       4.191E-02
 Computing fast CPCM-ISWIG gradient
 Updating gradient with PCM contributions...
 -- total gradient after adding PCM contribution --
---------------------------------------------------
  Atom         X              Y              Z     
---------------------------------------------------
   1      -0.000212       0.000901       0.000029
   2      -0.000017      -0.000291       0.000138
   3      -0.000017       0.000052       0.000137
   4      -0.000005      -0.000156       0.000102
   5       0.000120      -0.000298      -0.000109
   6       0.000008      -0.000152      -0.000001
   7       0.000019       0.000063      -0.000037
   8       0.000044      -0.000042      -0.000096
   9       0.000048       0.000050      -0.000006
  10      -0.000002      -0.000022      -0.000029
  11       0.000070      -0.000067       0.000001
  12      -0.000069      -0.000030      -0.000043
  13       0.000001       0.000011      -0.000026
  14       0.000011      -0.000020      -0.000059
---------------------------------------------------
 Number of fixed atoms: 0
 Gradient time:  CPU 360.59 s  wall 93.45 s
 ----------------------------------------------------------------
             Standard Nuclear Orientation (Angstroms)
    I     Atom           X                Y                Z
 ----------------------------------------------------------------
    1      C      -0.2314921043     0.3569276649     0.3596458929
    2      C      -0.2198300014     1.6874057246    -0.2815330563
    3      O      -0.0083057896     1.7778457382    -1.5392315406
    4      O      -0.4955061364     2.7138698492     0.4322606115
    5      C       0.5431087798    -0.7292342237    -0.2904596775
    6      H      -0.0844607037     0.4128742357     1.4430011908
    7      H       0.3144882050    -0.7995990680    -1.3595731426
    8      H       0.3527289882    -1.7076073467     0.1730064890
    9      O       2.0051702449    -0.5860468047    -0.3406670755
   10      O       2.5171980044    -0.6957250498     0.9872098465
   11      H      -1.6557297990    -0.0726965773     0.1786466149
   12      O      -2.7585828543    -0.4267856228     0.0516365743
   13      H      -2.9629768114    -0.2846547631    -0.8796819346
   14      H       2.6841899778    -1.6475737565     1.0657392076
 ----------------------------------------------------------------
 Nuclear Repulsion Energy =   376.4317353277 hartrees
 There are       33 alpha and       33 beta electrons
 Discretize the solute cavity surface with Lebedev spheres
	Using 110 Lebedev grid points for each H atom
	Using 110 Lebedev grid points for other atoms
	Atomic van der Waals radii will be scaled by 1.20
 Remove points where switching function is < 1.0e-08
 Keep 898 surface tesserae and discard 642 interior tesserae
 Molecular Surface Area = 168.699 Angst**2

                       Distance Matrix (Angstroms)
             C (  1)   C (  2)   O (  3)   O (  4)   C (  5)   H (  6)
   C (  2)  1.476963
   O (  3)  2.382133  1.278565
   O (  4)  2.372794  1.280284  2.236132
   C (  5)  1.484046  2.534226  2.854635  3.668244
   H (  6)  1.094718  2.148668  3.280649  2.546593  2.168673
   H (  7)  2.142747  2.762763  2.603785  4.026316  1.095547  3.079558
   H (  8)  2.153707  3.472829  3.900063  4.509565  1.099208  2.510072
   O (  9)  2.526321  3.181621  3.328458  4.211918  1.469914  2.923333
   O ( 10)  3.009520  3.844521  4.345069  4.583633  2.351721  2.864501
   H ( 11)  1.498596  2.317657  3.014899  3.029091  2.342220  2.074430
   O ( 12)  2.663694  3.320553  3.867206  3.889744  3.333118  3.129194
   H ( 13)  3.067339  3.430985  3.663195  4.098872  3.582942  3.763942
   H ( 14)  3.608018  4.622831  5.076308  5.434515  2.695710  3.471772
             H (  7)   H (  8)   O (  9)   O ( 10)   H ( 11)   O ( 12)
   H (  8)  1.781780
   O (  9)  1.985492  2.062116
   O ( 10)  3.220266  2.524234  1.427396
   H ( 11)  2.603126  2.589763  3.733015  4.295959
   O ( 12)  3.402098  3.366823  4.782532  5.364838  1.165245
   H ( 13)  3.352199  3.758570  5.006382  5.804014  1.695252  0.964019
   H ( 14)  3.495238  2.497256  1.888355  0.969572  4.701284  5.669436
             H ( 13)
   H ( 14)  6.126394
 
 Requested basis set is def2-TZVPD
 There are 139 shells and 365 basis functions
 A cutoff of  1.0D-14 yielded   9037 shell pairs
 There are     62749 function pairs (     80016 Cartesian)
 Smallest overlap matrix eigenvalue = 4.70E-06
 Guess MOs from SCF MO coefficient file
 Reading MOs from coefficient file
 Reading MOs from coefficient file
 Long-range K will be added via erf
 Coulomb attenuation parameter = 0.3 bohr**(-1)
 A restricted hybrid HF-DFT SCF calculation will be
 performed using Pulay DIIS extrapolation
 Polarizable Continuum solvation model will be applied
 Exchange:     0.1670 Hartree-Fock + 1.0000 wB97X-V + LR-HF
 Correlation:  1.0000 wB97X-V
 Using SG-2 standard quadrature grid
 Nonlocal Correlation:  VV10 with C = 0.0100 and b = 6.00
 Grid used for NLC:  SG-1 standard quadrature
 SCF converges when DIIS error is below 1.0E-08
Using Q-Chem read-in guess as SCF_GUESS READ specified.

 using 4 threads for integral computing
 -------------------------------------------------------
 OpenMP Integral computing Module                
 Release: version 1.0, May 2013, Q-Chem Inc. Pittsburgh 
 -------------------------------------------------------
 using 4 threads for integral computing
 -------------------------------------------------------
 OpenMP Integral computing Module                
 Release: version 1.0, May 2013, Q-Chem Inc. Pittsburgh 
 -------------------------------------------------------
 -------------------------------------------------------
 OpenMP BLAS3 based DFT computing Module                
 Release: version 1.0, May 2013, Q-Chem Inc. Pittsburgh 
 -------------------------------------------------------
 -------------------------------------------------------
 OpenMP BLAS3 based DFT computing Module                
 Release: version 1.0, May 2013, Q-Chem Inc. Pittsburgh 
 -------------------------------------------------------
 -------------------------------------------------------
 OpenMP BLAS3 based DFT computing Module                
 Release: version 1.0, May 2013, Q-Chem Inc. Pittsburgh 
 -------------------------------------------------------
 ---------------------------------------
  Cycle       Energy         DIIS Error
 ---------------------------------------
    1    -493.8918356188      5.92E-04
    2    -494.2303452500      6.43E-04
    3    -494.2401093843      2.87E-04
    4    -494.2417553625      2.11E-04
    5    -494.2426949939      1.59E-04
    6    -494.2432590756      1.19E-04
    7    -494.2437219527      7.23E-05
    8    -494.2439054491      4.11E-05
    9    -494.2439789847      1.64E-05
   10    -494.2439924882      2.84E-06
   11    -494.2439928731      6.69E-07
   12    -494.2439928951      1.31E-07
   13    -494.2439928958      3.31E-08
   14    -494.2439928958      1.44E-08
   15    -494.2439928959      5.66E-09 Convergence criterion met
 ---------------------------------------

************** Final PCM Free Energy Summary **************
 G_electrostatic  =      -0.35227240 hartree =    -221.05426639 kcal/mol
 G_cavitation     =       0.00000000 hartree =       0.00000000 kcal/mol
 G_dispersion     =       0.00000000 hartree =       0.00000000 kcal/mol
 G_repulsion      =       0.00000000 hartree =       0.00000000 kcal/mol
 --------------------------------------------------
 Non-electrostatic Free Energy =       0.00000000 hartree =       0.00000000 kcal/mol
 Total                         =      -0.35227240 hartree =    -221.05426639 kcal/mol
 --------------------------------------------------
 SCF Energy (H0 + V/2)                       =    -494.24399290 
 Solute Internal Energy (H0)                 =    -493.89172050 
 Total Free Energy (H0 + V/2 + non-elec)     =    -494.24399290 hartree
                                             = -310142.78652700 kcal/mol
***********************************************************

 SCF time:  CPU 1567.10 s  wall 408.67 s
 SCF   energy in the final basis set = -494.24399290
 Total energy in the final basis set = -494.24399290
 
 --------------------------------------------------------------
 
                    Orbital Energies (a.u.)
 --------------------------------------------------------------
 
 Alpha MOs
 -- Occupied --
-19.254 -19.248 -19.140 -19.116 -19.116 -10.315 -10.286 -10.183
 -1.237  -1.112  -1.043  -1.016  -1.010  -0.834  -0.721  -0.623
 -0.579  -0.567  -0.560  -0.542  -0.506  -0.502  -0.479  -0.464
 -0.439  -0.423  -0.393  -0.368  -0.364  -0.327  -0.320  -0.305
 -0.255
 -- Virtual --
  0.061   0.076   0.083   0.084   0.102   0.110   0.115   0.120
  0.128   0.144   0.147   0.155   0.161   0.164   0.167   0.173
  0.180   0.191   0.195   0.206   0.213   0.226   0.229   0.249
  0.255   0.263   0.268   0.273   0.294   0.298   0.301   0.312
  0.323   0.331   0.340   0.344   0.354   0.355   0.367   0.373
  0.377   0.381   0.383   0.396   0.400   0.405   0.411   0.422
  0.428   0.438   0.442   0.449   0.455   0.467   0.473   0.482
  0.486   0.496   0.503   0.510   0.519   0.525   0.530   0.534
  0.548   0.563   0.573   0.580   0.585   0.590   0.593   0.599
  0.609   0.619   0.632   0.636   0.646   0.651   0.656   0.664
  0.682   0.683   0.706   0.711   0.714   0.722   0.729   0.737
  0.747   0.759   0.768   0.774   0.780   0.784   0.804   0.814
  0.820   0.832   0.845   0.850   0.859   0.866   0.871   0.884
  0.889   0.905   0.918   0.942   0.951   0.963   0.972   0.984
  1.005   1.015   1.037   1.054   1.063   1.091   1.096   1.115
  1.137   1.146   1.152   1.166   1.179   1.205   1.218   1.242
  1.254   1.268   1.274   1.302   1.328   1.336   1.373   1.383
  1.402   1.412   1.433   1.472   1.482   1.530   1.555   1.574
  1.600   1.639   1.695   1.725   1.737   1.757   1.801   1.808
  1.833   1.897   1.905   1.909   1.925   1.952   1.958   1.970
  1.984   2.005   2.020   2.045   2.058   2.073   2.093   2.099
  2.127   2.162   2.193   2.214   2.222   2.255   2.272   2.284
  2.289   2.321   2.333   2.382   2.398   2.425   2.455   2.460
  2.478   2.490   2.495   2.549   2.569   2.601   2.638   2.662
  2.701   2.718   2.747   2.759   2.799   2.824   2.849   2.881
  2.893   2.909   2.973   2.984   3.002   3.024   3.038   3.082
  3.093   3.118   3.125   3.162   3.167   3.193   3.255   3.264
  3.279   3.295   3.336   3.367   3.395   3.402   3.416   3.444
  3.484   3.494   3.509   3.529   3.555   3.578   3.592   3.617
  3.644   3.666   3.669   3.686   3.719   3.730   3.759   3.769
  3.799   3.819   3.866   3.915   4.025   4.054   4.071   4.121
  4.176   4.207   4.269   4.316   4.391   4.414   4.449   4.543
  4.634   4.743   4.775   4.837   4.905   4.936   4.967   5.085
  5.101   5.139   5.211   5.223   5.291   5.346   5.377   5.382
  5.391   5.392   5.406   5.498   5.508   5.530   5.580   5.617
  5.625   5.686   5.721   5.747   5.783   5.896   6.000   6.000
  6.097   6.166   6.208   6.222   6.294   6.334   6.376   6.476
  6.573   6.592   6.632   6.650   6.653   6.672   6.711   6.716
  6.733   6.766   6.775   6.805   6.872   6.963   6.994   7.020
  7.049   7.058   7.075   7.271   7.276   7.294   7.358   7.396
  7.411   7.420   7.511   8.287  22.776  22.957  23.673  44.055
 44.087  44.336  44.462  44.580
 --------------------------------------------------------------
 
          Ground-State Mulliken Net Atomic Charges

     Atom                 Charge (a.u.)
  ----------------------------------------
      1 C                    -0.072949
      2 C                     0.193414
      3 O                    -0.768570
      4 O                    -0.789425
      5 C                    -0.130514
      6 H                     0.178942
      7 H                     0.128266
      8 H                     0.217678
      9 O                    -0.262635
     10 O                    -0.393947
     11 H                    -0.087087
     12 O                    -0.884627
     13 H                     0.317463
     14 H                     0.353991
  ----------------------------------------
  Sum of atomic charges =    -2.000000

 -----------------------------------------------------------------
                    Cartesian Multipole Moments
 -----------------------------------------------------------------
    Charge (ESU x 10^10)
                -9.6064
    Dipole Moment (Debye)
         X       5.6884      Y     -14.8841      Z       1.6694
       Tot      16.0213
    Quadrupole Moments (Debye-Ang)
        XX     -80.8188     XY      -2.8996     YY     -88.4134
        XZ       8.0178     YZ       3.1622     ZZ     -63.4881
    Octopole Moments (Debye-Ang^2)
       XXX      36.5317    XXY     -27.1139    XYY      28.0879
       YYY    -187.0061    XXZ      -9.6550    XYZ      -5.1578
       YYZ      15.3776    XZZ      -7.0100    YZZ     -50.0883
       ZZZ      24.7040
    Hexadecapole Moments (Debye-Ang^3)
      XXXX   -1040.1957   XXXY      13.7441   XXYY    -242.4600
      XYYY      89.7497   YYYY    -950.3209   XXXZ      35.9903
      XXYZ      -2.0482   XYYZ      13.2508   YYYZ      34.5061
      XXZZ    -169.3931   XYZZ      21.8145   YYZZ    -192.6197
      XZZZ     -21.4507   YZZZ      68.6884   ZZZZ    -266.3003
 -----------------------------------------------------------------
 Calculating analytic gradient of the SCF energy
 Gradient of SCF Energy
            1           2           3           4           5           6
    1   0.0024114   0.0207933  -0.0067724   0.0077123  -0.0550098  -0.0337810
    2  -0.0114033   0.0513136  -0.0103540  -0.0547437  -0.0381755  -0.0119699
    3   0.1319784  -0.0461634   0.0598403  -0.0255948  -0.0706081  -0.0821807
            7           8           9          10          11          12
    1   0.0262764   0.0309172  -0.0082978   0.0127927   0.0146320  -0.0160106
    2   0.0033730   0.0641089  -0.0056736  -0.0400628   0.0087429   0.0131681
    3   0.0696704  -0.0213071  -0.0338188   0.0313416  -0.0220612  -0.0559399
           13          14
    1   0.0146343  -0.0102980
    2  -0.0121630   0.0438393
    3   0.0656441  -0.0008009
 Max gradient component =       1.320E-01
 RMS gradient           =       4.192E-02
 Computing fast CPCM-ISWIG gradient
 Updating gradient with PCM contributions...
 -- total gradient after adding PCM contribution --
---------------------------------------------------
  Atom         X              Y              Z     
---------------------------------------------------
   1       0.000203      -0.000936      -0.000002
   2      -0.000009       0.000306       0.000005
   3      -0.000004       0.000074       0.000010
   4      -0.000050       0.000112       0.000121
   5      -0.000108       0.000334       0.000058
   6      -0.000027       0.000031       0.000035
   7       0.000010       0.000060      -0.000027
   8      -0.000014       0.000034      -0.000045
   9      -0.000024       0.000021      -0.000001
  10      -0.000007      -0.000019      -0.000028
  11      -0.000075       0.000023      -0.000026
  12       0.000078      -0.000031      -0.000018
  13       0.000013       0.000012      -0.000025
  14       0.000012      -0.000020      -0.000059
---------------------------------------------------
 Number of fixed atoms: 0
 Gradient time:  CPU 363.61 s  wall 94.77 s
 ----------------------------------------------------------------
             Standard Nuclear Orientation (Angstroms)
    I     Atom           X                Y                Z
[...]
 Red. Mass:       4.8389                 1.1600                 5.6355
 IR Active:          YES                    YES                    YES
 IR Intens:       12.830                149.061                  3.782
 Raman Active:       YES                    YES                    YES
               X      Y      Z        X      Y      Z        X      Y      Z
 C         -0.158 -0.041  0.028    0.014  0.008 -0.020   -0.131  0.016 -0.159
 C          0.013 -0.044 -0.001    0.003  0.012 -0.011   -0.041  0.091 -0.085
 O          0.112 -0.114  0.012   -0.010  0.042 -0.012   -0.049  0.251 -0.068
 O          0.118  0.017 -0.052   -0.008 -0.003  0.009    0.031  0.009  0.054
 C          0.001  0.046  0.062   -0.015 -0.030  0.005    0.016 -0.080  0.138
 H         -0.168 -0.012  0.032    0.004  0.011 -0.019   -0.316  0.075 -0.132
 H          0.002 -0.012  0.066   -0.010 -0.046  0.004    0.102 -0.385  0.133
 H          0.189  0.022  0.077   -0.044 -0.008  0.032   -0.012  0.041  0.380
 O         -0.025  0.338  0.041   -0.017 -0.052  0.008    0.052 -0.159  0.082
 O          0.089 -0.149 -0.038   -0.045  0.009  0.032    0.313 -0.027 -0.005
 H         -0.192 -0.061 -0.014    0.011  0.012 -0.009   -0.083 -0.020 -0.166
 O         -0.192 -0.047 -0.002    0.020  0.003  0.001   -0.186 -0.062 -0.011
 H         -0.198 -0.070 -0.005    0.009  0.005  0.004   -0.343 -0.122  0.014
 H          0.490 -0.120 -0.566    0.925  0.154 -0.321   -0.051 -0.075  0.215
 TransDip   0.059  0.007 -0.098    0.372 -0.004 -0.120    0.002 -0.000  0.062

 Mode:                10                     11                     12
 Frequency:       363.66                 471.71                 516.30
 Force Cnst:      0.2698                 0.4678                 0.2976
 Red. Mass:       3.4621                 3.5687                 1.8950
 IR Active:          YES                    YES                    YES
 IR Intens:       65.633                109.929                214.692
 Raman Active:       YES                    YES                    YES
               X      Y      Z        X      Y      Z        X      Y      Z
 C          0.046 -0.001 -0.064   -0.089  0.016 -0.034    0.066  0.020  0.118
 C          0.031 -0.052 -0.086   -0.017 -0.068 -0.049    0.041 -0.016 -0.062
 O          0.001  0.130 -0.090    0.021 -0.016 -0.055    0.011  0.077 -0.063
 O          0.005 -0.155  0.058    0.020 -0.125  0.039   -0.000 -0.091 -0.002
 C         -0.034 -0.121  0.144   -0.187  0.086 -0.078   -0.006  0.030  0.012
 H          0.014  0.111 -0.068   -0.258 -0.033 -0.014    0.609  0.265  0.032
 H         -0.170 -0.560  0.195    0.072  0.535 -0.162   -0.048  0.245  0.008
 H          0.179  0.018  0.524   -0.390 -0.071 -0.490   -0.049 -0.043 -0.159
 O         -0.096  0.167  0.004   -0.142  0.015  0.132   -0.021 -0.006  0.013
 O         -0.091 -0.026 -0.022    0.186  0.020  0.020    0.013  0.006  0.002
 H          0.018  0.023 -0.007   -0.029  0.056 -0.046   -0.042 -0.053  0.377
 O          0.152  0.041  0.018    0.161  0.046  0.024   -0.137 -0.049 -0.012
 H          0.155  0.052  0.019    0.117  0.034  0.033    0.453  0.187 -0.109
 H         -0.274 -0.065 -0.097    0.072  0.002  0.042    0.006  0.005  0.012
 TransDip  -0.190 -0.175  0.023   -0.333 -0.042 -0.013    0.418  0.214  0.013

 Mode:                13                     14                     15
 Frequency:       580.71                 620.84                 679.65
 Force Cnst:      0.4379                 0.5397                 1.1005
 Red. Mass:       2.2037                 2.3765                 4.0438
 IR Active:          YES                    YES                    YES
 IR Intens:       32.070                 29.307                 41.933
 Raman Active:       YES                    YES                    YES
               X      Y      Z        X      Y      Z        X      Y      Z
 C         -0.043 -0.121 -0.051   -0.154  0.056 -0.055   -0.117 -0.145  0.215
 C         -0.051  0.001  0.046   -0.139 -0.008 -0.044   -0.078 -0.142 -0.011
 O         -0.007  0.060  0.067    0.050 -0.061 -0.022   -0.010  0.222  0.024
 O          0.009  0.131 -0.087    0.041 -0.044  0.076    0.071 -0.035 -0.186
 C         -0.035 -0.151 -0.078    0.023  0.133  0.041    0.062  0.026  0.122
 H          0.107 -0.218 -0.060   -0.332  0.125 -0.035   -0.488 -0.030  0.254
 H          0.065 -0.223 -0.096   -0.015 -0.045  0.062   -0.036  0.492  0.111
 H          0.019 -0.153 -0.057    0.092  0.198  0.202    0.130 -0.179 -0.284
 O         -0.029  0.037  0.038    0.111 -0.055 -0.066    0.066 -0.030 -0.055
 O          0.045  0.002  0.016   -0.046 -0.008 -0.001   -0.061  0.001 -0.031
 H         -0.103 -0.151  0.288   -0.062 -0.111  0.225    0.010 -0.122 -0.100
 O          0.028  0.003  0.028    0.018  0.003  0.031    0.071  0.032  0.002
 H          0.738  0.289 -0.088    0.716  0.282 -0.083   -0.202 -0.082  0.047
 H         -0.025 -0.011  0.010    0.047  0.011  0.016    0.000  0.015 -0.002
 TransDip  -0.021 -0.180  0.007   -0.052  0.152  0.064   -0.174 -0.079  0.079

 Mode:                16                     17                     18
 Frequency:       772.90                 835.95                 886.84
 Force Cnst:      0.6560                 2.6808                 1.6991
 Red. Mass:       1.8639                 6.5110                 3.6668
 IR Active:          YES                    YES                    YES
 IR Intens:      126.753                 56.869                 34.825
 Raman Active:       YES                    YES                    YES
               X      Y      Z        X      Y      Z        X      Y      Z
 C         -0.052 -0.009  0.029    0.115 -0.006 -0.082   -0.016  0.029 -0.114
 C         -0.207 -0.029 -0.035   -0.299 -0.018 -0.049    0.070 -0.143  0.091
 O          0.056  0.006  0.027    0.079 -0.032 -0.003   -0.057  0.054  0.181
 O          0.047  0.012  0.011    0.057  0.070  0.072    0.028 -0.106 -0.171
 C         -0.072 -0.013 -0.051    0.407 -0.006  0.088    0.061  0.245 -0.055
 H          0.779  0.249 -0.094    0.056  0.243 -0.084    0.343 -0.096 -0.156
 H         -0.111 -0.163 -0.030    0.518  0.267  0.035    0.099 -0.366 -0.022
 H          0.050  0.028  0.081    0.028 -0.136 -0.277   -0.068  0.514  0.475
 O          0.049  0.002 -0.018   -0.279 -0.052  0.160   -0.089 -0.049  0.049
 O          0.023 -0.003  0.041   -0.053  0.016 -0.166    0.010  0.000 -0.018
 H         -0.076 -0.002 -0.016   -0.014 -0.187 -0.053    0.014  0.006 -0.004
 O          0.058  0.025 -0.019   -0.003  0.009 -0.001   -0.006 -0.002 -0.000
 H         -0.405 -0.160  0.059   -0.027 -0.003  0.003    0.018  0.009 -0.004
 H          0.018 -0.005  0.034   -0.041  0.021 -0.099    0.031  0.004 -0.005
 TransDip  -0.318 -0.024 -0.168    0.183 -0.143 -0.066    0.169 -0.020  0.083

 Mode:                19                     20                     21
 Frequency:       932.83                1011.97                1041.21
 Force Cnst:      1.7870                 7.2514                 1.3617
 Red. Mass:       3.4856                12.0181                 2.1319
 IR Active:          YES                    YES                    YES
 IR Intens:       50.775                 14.389                 35.140
 Raman Active:       YES                    YES                    YES
               X      Y      Z        X      Y      Z        X      Y      Z
 C          0.315  0.078  0.005   -0.091 -0.073 -0.002   -0.015  0.131 -0.141
 C         -0.227 -0.061 -0.027    0.054  0.008  0.013    0.023 -0.041  0.014
 O          0.037  0.028  0.059   -0.001 -0.006 -0.058   -0.030 -0.013  0.145
 O          0.071 -0.032 -0.045   -0.023  0.039  0.036    0.009 -0.037 -0.050
 C         -0.106 -0.005 -0.051    0.272  0.068  0.020    0.000 -0.124  0.074
 H         -0.643 -0.222  0.124    0.057  0.045 -0.017   -0.046  0.741 -0.170
 H         -0.244 -0.064 -0.014   -0.205  0.041  0.091   -0.012  0.310  0.046
 H         -0.160  0.101  0.126    0.281 -0.012 -0.121   -0.071 -0.282 -0.303
 O         -0.007  0.037 -0.053   -0.365 -0.009 -0.491    0.034  0.024 -0.048
 O          0.042 -0.004  0.084    0.188 -0.026  0.496   -0.004 -0.002  0.018
 H          0.430  0.019 -0.022   -0.167 -0.158 -0.045   -0.054  0.219  0.005
 O         -0.095 -0.027 -0.003    0.030  0.013  0.005   -0.005 -0.009  0.001
 H          0.077  0.038 -0.034    0.013  0.005  0.009    0.045  0.014 -0.007
 H         -0.011 -0.021  0.001   -0.088 -0.130 -0.092   -0.024 -0.007 -0.012
 TransDip   0.190  0.072  0.104   -0.025 -0.082 -0.086    0.080 -0.110 -0.132

 Mode:                22                     23                     24
 Frequency:      1127.46                1256.66                1302.54
 Force Cnst:      1.7645                 1.1525                 1.0990
 Red. Mass:       2.3560                 1.2387                 1.0995
 IR Active:          YES                    YES                    YES
 IR Intens:       76.575                 70.904                 22.074
 Raman Active:       YES                    YES                    YES
               X      Y      Z        X      Y      Z        X      Y      Z
 C          0.075 -0.169 -0.169    0.012 -0.052  0.006    0.016 -0.036 -0.050
 C          0.006  0.035 -0.019    0.039 -0.034 -0.001   -0.016 -0.025  0.011
 O         -0.001 -0.015  0.020   -0.005 -0.000 -0.004    0.005  0.003 -0.014
 O         -0.008  0.038  0.011   -0.014  0.038  0.020   -0.001  0.017  0.007
 C         -0.094  0.084  0.191    0.008  0.023 -0.089    0.018  0.021  0.002
 H          0.328 -0.219 -0.197   -0.191  0.577 -0.003    0.032 -0.193 -0.046
 H         -0.149  0.538  0.176   -0.535 -0.029  0.034   -0.507  0.233  0.107
 H         -0.183  0.035  0.025    0.268  0.044  0.058    0.357 -0.023  0.030
 O          0.028  0.011 -0.028   -0.015 -0.009  0.049   -0.008 -0.009  0.025
 O         -0.014 -0.001  0.001    0.010 -0.003 -0.011    0.003 -0.006 -0.010
 H          0.194 -0.502 -0.126    0.146 -0.447 -0.100   -0.189  0.652  0.111
 O         -0.007  0.013  0.003   -0.003  0.012  0.003    0.001 -0.018 -0.002
 H          0.004  0.009 -0.000   -0.002  0.005  0.002    0.024 -0.001 -0.005
 H         -0.011  0.001 -0.017    0.052  0.011  0.109    0.064  0.014  0.151
 TransDip  -0.108  0.242 -0.092    0.108 -0.225 -0.102    0.069  0.053  0.123

 Mode:                25                     26                     27
 Frequency:      1331.77                1378.21                1385.37
 Force Cnst:      1.5886                 1.6372                 1.3802
 Red. Mass:       1.5202                 1.4629                 1.2205
 IR Active:          YES                    YES                    YES
 IR Intens:      197.642                 20.334                180.051
 Raman Active:       YES                    YES                    YES
               X      Y      Z        X      Y      Z        X      Y      Z
 C         -0.007  0.074  0.002    0.052 -0.086 -0.000   -0.027  0.050  0.002
 C         -0.012  0.136 -0.040    0.019 -0.071 -0.041   -0.008 -0.002  0.041
 O         -0.009 -0.015  0.061   -0.001  0.004  0.003    0.003  0.003 -0.021
 O          0.018 -0.080 -0.040   -0.014  0.059  0.032    0.004 -0.013 -0.009
 C         -0.039  0.011  0.012   -0.091  0.068  0.029    0.053 -0.042 -0.003
 H          0.063 -0.293  0.015   -0.103  0.322 -0.013    0.064 -0.139  0.004
 H          0.032 -0.058 -0.007    0.623 -0.144 -0.113   -0.148  0.053  0.035
 H          0.761 -0.258 -0.222    0.303 -0.021 -0.017   -0.364  0.061  0.039
 O         -0.032 -0.012  0.008   -0.022  0.012 -0.038   -0.007  0.053 -0.028
 O          0.000 -0.011 -0.008   -0.007 -0.027 -0.011   -0.007 -0.045 -0.027
 H          0.045 -0.315 -0.082    0.022  0.248  0.077    0.020 -0.147 -0.042
 O          0.003  0.009  0.003   -0.007 -0.008 -0.003    0.001  0.004  0.002
 H          0.004  0.005  0.002   -0.010 -0.007 -0.002    0.004  0.004  0.001
 H          0.094  0.021  0.226    0.190  0.041  0.476    0.318  0.070  0.817
 TransDip  -0.181  0.404 -0.081    0.117 -0.056 -0.062    0.115 -0.157  0.383

 Mode:                28                     29                     30
 Frequency:      1439.49                1456.64                1475.35
 Force Cnst:      1.5946                 3.2350                 6.9625
 Red. Mass:       1.3061                 2.5877                 5.4291
 IR Active:          YES                    YES                    YES
 IR Intens:      120.420                449.656               1124.466
 Raman Active:       YES                    YES                    YES
               X      Y      Z        X      Y      Z        X      Y      Z
 C         -0.017  0.059 -0.006    0.020 -0.151  0.054    0.060 -0.147 -0.054
 C         -0.009 -0.041  0.092   -0.003  0.234 -0.156   -0.110  0.252  0.444
 O          0.008  0.009 -0.050   -0.017 -0.029  0.114    0.033 -0.004 -0.179
 O         -0.000  0.003 -0.006    0.017 -0.080 -0.028    0.042 -0.145 -0.117
 C         -0.027 -0.082 -0.040    0.032 -0.040 -0.068   -0.042  0.062  0.030
 H          0.044 -0.012 -0.012   -0.197  0.275  0.082   -0.121  0.632 -0.052
 H          0.284  0.612 -0.141    0.064  0.341 -0.098    0.106 -0.288  0.024
 H          0.341  0.156  0.572   -0.239  0.299  0.537   -0.028 -0.072 -0.235
 O         -0.013 -0.007 -0.005   -0.019  0.013 -0.003    0.001  0.000 -0.003
 O          0.002  0.002  0.005    0.001 -0.006  0.000   -0.002  0.000 -0.000
 H          0.100 -0.118 -0.040   -0.336  0.182  0.143   -0.074  0.194  0.079
 O         -0.005  0.002  0.001    0.025  0.001 -0.004    0.002 -0.005 -0.003
 H          0.003  0.004 -0.001   -0.034 -0.019  0.009   -0.014 -0.009  0.001
 H         -0.024 -0.007 -0.042    0.035  0.007  0.097    0.002  0.002 -0.004
 TransDip   0.055 -0.044  0.344   -0.295  0.499 -0.354   -0.277  0.552  0.878

 Mode:                31                     32                     33
 Frequency:      1622.67                3019.89                3082.66
 Force Cnst:      1.6437                 5.7270                 6.0701
 Red. Mass:       1.0595                 1.0659                 1.0842
 IR Active:          YES                    YES                    YES
 IR Intens:       39.232                121.678                 47.511
 Raman Active:       YES                    YES                    YES
               X      Y      Z        X      Y      Z        X      Y      Z
 C          0.006  0.019 -0.036   -0.001 -0.000 -0.005   -0.008 -0.003 -0.077
 C          0.010 -0.012  0.008   -0.000  0.001 -0.001   -0.001 -0.005 -0.000
 O         -0.001  0.001 -0.004   -0.000  0.000  0.000    0.000  0.000 -0.000
 O         -0.002  0.003  0.001    0.000 -0.001 -0.000   -0.000  0.001  0.001
 C          0.002  0.001  0.004   -0.016 -0.070  0.005    0.003 -0.000  0.030
 H         -0.140 -0.063 -0.013    0.011  0.003  0.078    0.118  0.048  0.923
 H         -0.017  0.009  0.006    0.075  0.009  0.340   -0.073 -0.021 -0.342
 H          0.016 -0.008 -0.017    0.156  0.825 -0.403    0.011  0.039 -0.019
 O          0.001 -0.001  0.000   -0.002 -0.001  0.000    0.001 -0.000  0.000
 O         -0.000 -0.000  0.000    0.000  0.000 -0.000   -0.000  0.000 -0.000
 H         -0.034 -0.215  0.900   -0.007 -0.004 -0.003    0.006  0.003 -0.000
 O          0.019  0.015 -0.036    0.000  0.000  0.000   -0.000 -0.000 -0.000
 H         -0.315 -0.119  0.035    0.000  0.000 -0.000   -0.000  0.000  0.001
 H         -0.000 -0.000  0.001   -0.006  0.005 -0.004   -0.001  0.000  0.000
 TransDip  -0.100 -0.099  0.143   -0.064 -0.346 -0.028    0.015  0.017 -0.220

 Mode:                34                     35                     36
 Frequency:      3099.28                3763.15                3845.24
 Force Cnst:      6.2084                 8.9137                 9.2854
 Red. Mass:       1.0970                 1.0683                 1.0659
 IR Active:          YES                    YES                    YES
 IR Intens:       86.415                 71.658                 12.883
 Raman Active:       YES                    YES                    YES
               X      Y      Z        X      Y      Z        X      Y      Z
 C         -0.003 -0.001 -0.029   -0.000  0.000  0.000    0.000 -0.000  0.000
 C          0.000 -0.001 -0.001    0.000 -0.000  0.000   -0.000  0.000 -0.000
 O         -0.000  0.001  0.000   -0.000  0.000 -0.000    0.000  0.000  0.000
 O         -0.000  0.000  0.000   -0.000  0.000  0.000    0.000  0.000 -0.000
 C         -0.011  0.020 -0.082    0.001  0.000 -0.001   -0.000 -0.000 -0.000
 H          0.042  0.018  0.343    0.000  0.000  0.000    0.001  0.000 -0.000
 H          0.185  0.052  0.850   -0.002 -0.000 -0.000    0.000  0.000  0.000
 H         -0.054 -0.302  0.138    0.000 -0.005  0.003    0.000  0.000 -0.000
 O         -0.001  0.000 -0.001   -0.001  0.001 -0.000   -0.000  0.000  0.000
 O          0.000 -0.000  0.001    0.011 -0.062  0.005    0.000  0.000 -0.000
 H          0.000 -0.001  0.001    0.001  0.001  0.000    0.002  0.004 -0.014
 O          0.000  0.000 -0.000   -0.000 -0.000 -0.000   -0.014  0.009 -0.060
 H         -0.000 -0.000  0.000    0.000 -0.000  0.000    0.222 -0.143  0.962
 H          0.002 -0.002  0.002   -0.171  0.981 -0.068    0.000 -0.000  0.000
 TransDip   0.010  0.025 -0.297   -0.108  0.240 -0.065    0.036 -0.015  0.108

 STANDARD THERMODYNAMIC QUANTITIES AT   298.15 K  AND     1.00 ATM

   This Molecule has  1 Imaginary Frequencies
   Zero point vibrational energy:       57.713 kcal/mol

   Atom    1 Element C  Has Mass   12.00000
   Atom    2 Element C  Has Mass   12.00000
   Atom    3 Element O  Has Mass   15.99491
   Atom    4 Element O  Has Mass   15.99491
   Atom    5 Element C  Has Mass   12.00000
   Atom    6 Element H  Has Mass    1.00783
   Atom    7 Element H  Has Mass    1.00783
   Atom    8 Element H  Has Mass    1.00783
   Atom    9 Element O  Has Mass   15.99491
   Atom   10 Element O  Has Mass   15.99491
   Atom   11 Element H  Has Mass    1.00783
   Atom   12 Element O  Has Mass   15.99491
   Atom   13 Element H  Has Mass    1.00783
   Atom   14 Element H  Has Mass    1.00783
   Molecular Mass:   122.021530 amu
   Principal axes and moments of inertia in amu*Bohr^2:
                             1           2           3
    Eigenvalues --      826.80030  1482.11011  1879.85682
          X               0.87594     0.47940    -0.05387
          Y              -0.46372     0.86751     0.17994
          Z               0.13300    -0.13264     0.98220
   Rotational Symmetry Number is   1
   The Molecule is an Asymmetric Top
   Translational Enthalpy:        0.889 kcal/mol
   Rotational Enthalpy:           0.889 kcal/mol
   Vibrational Enthalpy:         62.172 kcal/mol
   gas constant (RT):             0.592 kcal/mol
   Translational Entropy:        40.311  cal/mol.K
   Rotational Entropy:           29.222  cal/mol.K
   Vibrational Entropy:          29.967  cal/mol.K

   Total Enthalpy:               64.542 kcal/mol
   Total Entropy:                99.500  cal/mol.K
Archival summary:
1\1\c6-81\FREQ\ProcedureUnspecified\BasisUnspecified\536(2-,1)\lmgong\TueApr2420:44:512018TueApr2420:44:512018\0\\#,FREQ,ProcedureUnspecified,BasisUnspecified,\\-2,1\O\O,1,1.4274\H,2,0.969572,1,102.273\C,1,1.46991,2,108.514,3,90.335,0\H,4,1.09555,1,100.398,2,-170.712,0\H,4,1.09921,1,105.865,2,-57.8548,0\C,4,1.48478,1,117.551,2,68.3043,0\H,7,1.09467,4,113.578,1,-69.1134,0\C,7,1.47606,4,117.722,1,65.4896,0\O,9,1.27856,7,119.493,4,25.7101,0\O,9,1.28028,7,118.571,4,-158.041,0\H,7,1.49888,4,103.443,1,177.449,0\O,12,1.16524,7,178.816,4,63.7359,0\H,13,0.964019,12,105.139,7,-137.267,0\\\@

 Total job time:  45767.46s(wall), 175585.09s(cpu) 
 Tue Apr 24 20:44:51 2018

        *************************************************************
        *                                                           *
        *  Thank you very much for using Q-Chem.  Have a nice day.  *
        *                                                           *
        *************************************************************


