
Running Job 1 of 1 qc-freq2.in
qchem qc-freq2.in_20902.0 /scratch/lmgong/1862642/qc-freq2.d/ 1
/home/leeping/opt/qchem/5.0.2-openmp/exe/qcprog.exe_s qc-freq2.in_20902.0 /scratch/lmgong/1862642/qc-freq2.d/
Check license passed

                  Welcome to Q-Chem
     A Quantum Leap Into The Future Of Chemistry


 Q-Chem 5.0, Q-Chem, Inc., Pleasanton, CA (2017)

 Yihan Shao,  Zhengting Gan,  E. Epifanovsky,  A. T. B. Gilbert,  M. Wormit,  
 J. Kussmann,  A. W. Lange,  A. Behn,  Jia Deng,  Xintian Feng,  D. Ghosh,  
 M. Goldey,  P. R. Horn,  L. D. Jacobson,  I. Kaliman,  T. Kus,  A. Landau,  
 Jie Liu,  E. I. Proynov,  R. M. Richard,  R. P. Steele,  E. J. Sundstrom,  
 H. L. Woodcock III,  P. M. Zimmerman,  D. Zuev,  B. Albrecht,  E. Alguire,  
 S. A. Baeppler,  D. Barton,  Z. Benda,  Y. A. Bernard,  E. J. Berquist,  
 K. B. Bravaya,  H. Burton,  D. Casanova,  Chun-Min Chang,  Yunqing Chen,  
 A. Chien,  K. D. Closser,  M. P. Coons,  S. Dasgupta,  A. L. Dempwolff,  
 M. Diedenhofen,  Hainam Do,  R. G. Edgar,  Po-Tung Fang,  S. Fatehi,  
 Qingguo Feng,  J. Fosso-Tande,  Qinghui Ge,  A. Ghysels,  G. Gidofalvi,  
 J. Gomes,  J. Gonthier,  A. Gunina,  M. W. D. Hanson-Heine,  
 P. H. P. Harbach,  A. W. Hauser,  J. E. Herr,  E. G. Hohenstein,  
 Z. C. Holden,  Kerwin Hui,  T.-C. Jagau,  Hyunjun Ji,  B. Kaduk,  
 K. Khistyaev,  Jaehoon Kim,  P. Klunzinger,  K. Koh,  D. Kosenkov,  
 L. Koulias,  T. Kowalczyk,  C. M. Krauter,  A. Kunitsa,  Ka Un Lao,  
 A. Laurent,  K. V. Lawler,  Joonho Lee,  D. Lefrancois,  S. Lehtola,  
 D. S. Levine,  Yi-Pei Li,  You-Sheng Lin,  Fenglai Liu,  E. Livshits,  
 A. Luenser,  P. Manohar,  E. Mansoor,  S. F. Manzer,  Shan-Ping Mao,  
 Yuezhi Mao,  N. Mardirossian,  A. V. Marenich,  T. Markovich,  
 L. A. Martinez-Martinez,  S. A. Maurer,  N. J. Mayhall,  S. C. McKenzie,  
 J.-M. Mewes,  A. F. Morrison,  J. W. Mullinax,  K. Nanda,  
 T. S. Nguyen-Beck,  R. Olivares-Amaya,  J. A. Parkhill,  T. M. Perrine,  
 F. Plasser,  S. Prager,  A. Prociuk,  E. Ramos,  D. R. Rehn,  F. Rob,  
 M. Schneider,  N. Sergueev,  S. M. Sharada,  S. Sharma,  D. W. Small,  
 T. Stauch,  T. Stein,  Yu-Chuan Su,  A. J. W. Thom,  A. Tkatchenko,  
 T. Tsuchimochi,  L. Vogt,  O. Vydrov,  M. A. Watson,  J. Wenzel,  
 M. de Wergifosse,  T. A. Wesolowski,  A. White,  J. Witte,  A. Yamada,  
 Jun Yang,  K. Yao,  S. Yeganeh,  S. R. Yost,  Zhi-Qiang You,  A. Zech,  
 Igor Ying Zhang,  Xing Zhang,  Yan Zhao,  Ying Zhu,  B. R. Brooks,  
 G. K. L. Chan,  C. J. Cramer,  M. S. Gordon,  W. J. Hehre,  A. Klamt,  
 M. W. Schmidt,  C. D. Sherrill,  D. G. Truhlar,  A. Aspuru-Guzik,  R. Baer,  
 A. T. Bell,  N. A. Besley,  Jeng-Da Chai,  R. A. DiStasio Jr.,  A. Dreuw,  
 B. D. Dunietz,  T. R. Furlani,  Chao-Ping Hsu,  Yousung Jung,  Jing Kong,  
 D. S. Lambrecht,  WanZhen Liang,  C. Ochsenfeld,  V. A. Rassolov,  
 L. V. Slipchenko,  J. E. Subotnik,  T. Van Voorhis,  J. M. Herbert,  
 A. I. Krylov,  P. M. W. Gill,  M. Head-Gordon

 Contributors to earlier versions of Q-Chem not listed above: 
 R. D. Adamson,  B. Austin,  J. Baker,  G. J. O. Beran,  K. Brandhorst,  
 S. T. Brown,  E. F. C. Byrd,  A. K. Chakraborty,  C.-L. Cheng,  
 Siu Hung Chien,  D. M. Chipman,  D. L. Crittenden,  H. Dachsel,  
 R. J. Doerksen,  A. D. Dutoi,  L. Fusti-Molnar,  W. A. Goddard III,  
 A. Golubeva-Zadorozhnaya,  S. R. Gwaltney,  G. Hawkins,  A. Heyden,  
 S. Hirata,  G. Kedziora,  F. J. Keil,  C. Kelley,  Jihan Kim,  R. A. King,  
 R. Z. Khaliullin,  P. P. Korambath,  W. Kurlancheek,  A. M. Lee,  M. S. Lee,  
 S. V. Levchenko,  Ching Yeh Lin,  D. Liotard,  R. C. Lochan,  I. Lotan,  
 P. E. Maslen,  N. Nair,  D. P. O'Neill,  D. Neuhauser,  E. Neuscamman,  
 C. M. Oana,  R. Olson,  B. Peters,  R. Peverati,  P. A. Pieniazek,  
 Y. M. Rhee,  J. Ritchie,  M. A. Rohrdanz,  E. Rosta,  N. J. Russ,  
 H. F. Schaefer III,  N. E. Schultz,  N. Shenvi,  A. C. Simmonett,  A. Sodt,  
 D. Stuck,  K. S. Thanthiriwatte,  V. Vanovschi,  Tao Wang,  A. Warshel,  
 C. F. Williams,  Q. Wu,  X. Xu,  W. Zhang

 Please cite Q-Chem as follows:
 Y. Shao et al., Mol. Phys. 113, 184-215 (2015)
 DOI: 10.1080/00268976.2014.952696

 Q-Chem 5.0.2 for Intel X86 EM64T Linux

 Parts of Q-Chem use Armadillo 5.200.1 (Boston Tea Smuggler).
 http://arma.sourceforge.net/

 Q-Chem begins on Fri Mar 20 11:54:04 2020  

Host: 
0

     Scratch files written to /scratch/lmgong/1862642/qc-freq2.d//
 Dec517 15110_ 26548  26544 5633   
Processing $rem in /home/leeping/opt/qchem/5.0.2-openmp/config/preferences.
 MEM_STATIC 2000
 MEM_TOTAL  8000
 SYMMETRY   OFF
 SYM_IGNORE TRUE 
Symmetry turned off for PCM/SM12/SMD calculation

Checking the input file for inconsistencies... 	...done.

--------------------------------------------------------------
User input:
--------------------------------------------------------------
$molecule
-2 1
C       -0.8938873010    0.4371620195    0.0401107246
O       -1.4335970683    0.3851767721    1.2641497202
C       -1.3010321764    1.6949931722   -0.7416109852
H       -2.3922593646    1.7429237684   -0.8078404680
H       -0.9457767999    2.5849906717   -0.2118388167
H       -0.8828835124    1.6980397954   -1.7538316478
C        0.6258862761    0.2292916764   -0.0385004575
H        0.9115768372    0.1294783931   -1.0941439117
H        1.0985398427    1.1490946599    0.3230432126
C        1.1459137621   -0.9620045984    0.7524674085
H        0.6656750193   -1.8861744884    0.4191395210
H        0.8810714142   -0.8455371200    1.8105594496
C        2.6674604721   -1.1652065873    0.7010976519
O        3.3972939986   -0.1739044334    0.4371338416
O        3.0900412327   -2.3268801743    0.9584879199
O       -1.4280027941   -0.7389673239   -0.7669952465
O       -2.7574549157   -0.9555244015   -0.2802324397
H       -2.6012405097   -0.5161147443    0.6203150601
$end

$rem
jobtype               freq
method                wb97x-v
basis                 def2-tzvpd
symmetry              off
sym_ignore            true
unrestricted          false
incdft                false
incfock               0
!scf_algorithm        diis_gdm
scf_convergence       8
thresh                14
!purecart             112
max_scf_cycles        1000
geom_opt_max_cycles   500
geom_opt_dmax         100
geom_opt_tol_gradient 10
solvent_method        pcm
ideriv                1
rpath_tol_displacement 1000
rpath_max_cycles      100
rpath_direction       1
!scf_guess            read
scf_guess             read
$end

$pcm
theory              cosmo
method              iswig
Radii               bondi
vdwScale            1.20
hpoints             110
heavypoints         110
$end

$solvent
dielectric 78.400000
$end

--------------------------------------------------------------
 ----------------------------------------------------------------
             Standard Nuclear Orientation (Angstroms)
    I     Atom           X                Y                Z
 ----------------------------------------------------------------
    1      C      -0.8938873010     0.4371620195     0.0401107246
    2      O      -1.4335970683     0.3851767721     1.2641497202
    3      C      -1.3010321764     1.6949931722    -0.7416109852
    4      H      -2.3922593646     1.7429237684    -0.8078404680
    5      H      -0.9457767999     2.5849906717    -0.2118388167
    6      H      -0.8828835124     1.6980397954    -1.7538316478
    7      C       0.6258862761     0.2292916764    -0.0385004575
    8      H       0.9115768372     0.1294783931    -1.0941439117
    9      H       1.0985398427     1.1490946599     0.3230432126
   10      C       1.1459137621    -0.9620045984     0.7524674085
   11      H       0.6656750193    -1.8861744884     0.4191395210
   12      H       0.8810714142    -0.8455371200     1.8105594496
   13      C       2.6674604721    -1.1652065873     0.7010976519
   14      O       3.3972939986    -0.1739044334     0.4371338416
   15      O       3.0900412327    -2.3268801743     0.9584879199
   16      O      -1.4280027941    -0.7389673239    -0.7669952465
   17      O      -2.7574549157    -0.9555244015    -0.2802324397
   18      H      -2.6012405097    -0.5161147443     0.6203150601
 ----------------------------------------------------------------
 Nuclear Repulsion Energy =   547.3462022761 hartrees
 There are       40 alpha and       40 beta electrons
 Requested basis set is def2-TZVPD
 There are 175 shells and 457 basis functions

 Total QAlloc Memory Limit   8000 MB
 Mega-Array Size      1956 MB
 MEM_STATIC part      2000 MB
 Discretize the solute cavity surface with Lebedev spheres
	Using 110 Lebedev grid points for each H atom
	Using 110 Lebedev grid points for other atoms
	Atomic van der Waals radii will be scaled by 1.20
 Remove points where switching function is < 1.0e-08
 Keep 1050 surface tesserae and discard 930 interior tesserae
 Molecular Surface Area = 186.127 Angst**2
 A cutoff of  1.0D-14 yielded  14050 shell pairs
 There are     95738 function pairs (    121727 Cartesian)
 
 -------------------------------------------------------
 OpenMP Integral Computing Module                       
 Release: version 1.0, May 2013, Q-Chem Inc. Pittsburgh 
 -------------------------------------------------------
 Integral Job Info:
 Integral job number is                      11
 Integral operator is                         1
 short-range coefficients              16700000
 long-range coefficients              100000000
 Omega coefficients                         300
 if combine SR and LR in K                    1
 Integral screening is                        0
 Integral computing path is                   2
 max size of driver memory is            800000
 size of driver memory is                776718
 size of scratch memory is              4473992
 max col of scratch BK array              10000
 max len of scratch array in speh3          662
 max len of scratch index in speh4           32
 max int batch size is                      520
 min int batch size is                       52
 fixed nKL is                                52
 max L of basis functions is                  3
 order of int derivative is                   0
 number of shells is                        175
 number of basis is                         517
 number of cartesian basis is               517
 number of contracted shell pairs         14050
 number of primitive shell pairs          28583
 maxK2 (contraction) of shell pair           36
 max number of K2 of shell pair               1
 max number of CS2 of shell pair           2311
 max number of PS2 of shell pair           3222
 mem total for path MDJ                  777156
 -------------------------------------------------------
 Smallest overlap matrix eigenvalue = 2.71E-06
 Guess MOs from SCF MO coefficient file
 Reading MOs from coefficient file
 Reading MOs from coefficient file
 Long-range K will be added via erf
 Coulomb attenuation parameter = 0.3 bohr**(-1)
 A restricted hybrid HF-DFT SCF calculation will be
 performed using Pulay DIIS extrapolation
 Polarizable Continuum solvation model will be applied
 Exchange:     0.1670 Hartree-Fock + 1.0000 wB97X-V + LR-HF
 Correlation:  1.0000 wB97X-V
 Using SG-2 standard quadrature grid
 Nonlocal Correlation:  VV10 with C = 0.0100 and b = 6.00
 Grid used for NLC:  SG-1 standard quadrature
 SCF converges when DIIS error is below 1.0E-08
Using Q-Chem read-in guess as SCF_GUESS READ specified.

 using 16 threads for integral computing
 -------------------------------------------------------
 OpenMP Integral computing Module                
 Release: version 1.0, May 2013, Q-Chem Inc. Pittsburgh 
 -------------------------------------------------------
 using 16 threads for integral computing
 -------------------------------------------------------
 OpenMP Integral computing Module                
 Release: version 1.0, May 2013, Q-Chem Inc. Pittsburgh 
 -------------------------------------------------------
 -------------------------------------------------------
 OpenMP BLAS3 based DFT computing Module                
 Release: version 1.0, May 2013, Q-Chem Inc. Pittsburgh 
 -------------------------------------------------------
 -------------------------------------------------------
 OpenMP BLAS3 based DFT computing Module                
 Release: version 1.0, May 2013, Q-Chem Inc. Pittsburgh 
 -------------------------------------------------------
 -------------------------------------------------------
 OpenMP BLAS3 based DFT computing Module                
 Release: version 1.0, May 2013, Q-Chem Inc. Pittsburgh 
 -------------------------------------------------------
 ---------------------------------------
  Cycle       Energy         DIIS Error
 ---------------------------------------
    1    -571.4257478143      2.90E-04
    2    -571.7224603033      3.03E-04
    3    -571.7259772287      1.42E-04
    4    -571.7265568293      1.05E-04
    5    -571.7269182666      8.10E-05
    6    -571.7271178355      6.43E-05
    7    -571.7272552151      4.97E-05
    8    -571.7273323951      3.92E-05
    9    -571.7273928172      2.83E-05
   10    -571.7274182310      2.22E-05
   11    -571.7274360672      1.65E-05
   12    -571.7274448088      1.29E-05
   13    -571.7274507416      9.72E-06
   14    -571.7274539828      7.40E-06
   15    -571.7274555088      6.01E-06
   16    -571.7274566603      4.69E-06
   17    -571.7274584617      4.07E-09 Convergence criterion met
 ---------------------------------------

************** Final PCM Free Energy Summary **************
 G_electrostatic  =      -0.30171153 hartree =    -189.32684073 kcal/mol
 G_cavitation     =       0.00000000 hartree =       0.00000000 kcal/mol
 G_dispersion     =       0.00000000 hartree =       0.00000000 kcal/mol
 G_repulsion      =       0.00000000 hartree =       0.00000000 kcal/mol
 --------------------------------------------------
 Non-electrostatic Free Energy =       0.00000000 hartree =       0.00000000 kcal/mol
 Total                         =      -0.30171153 hartree =    -189.32684073 kcal/mol
 --------------------------------------------------
 SCF Energy (H0 + V/2)                       =    -571.72745846 
 Solute Internal Energy (H0)                 =    -571.42574693 
 Total Free Energy (H0 + V/2 + non-elec)     =    -571.72745846 hartree
                                             = -358764.39501546 kcal/mol
***********************************************************

 SCF time:  CPU 4259.85 s  wall 302.56 s
 SCF   energy in the final basis set = -571.72745846
 Total energy in the final basis set = -571.72745846
 
 --------------------------------------------------------------
 
                    Orbital Energies (a.u.)
 --------------------------------------------------------------
 
 Alpha MOs
 -- Occupied --
-19.223 -19.220 -19.137 -19.135 -19.114 -10.337 -10.328 -10.239
-10.238 -10.232  -1.215  -1.139  -1.059  -1.044  -0.966  -0.878
 -0.829  -0.750  -0.653  -0.601  -0.596  -0.557  -0.548  -0.532
 -0.522  -0.510  -0.493  -0.488  -0.479  -0.454  -0.437  -0.427
 -0.424  -0.405  -0.345  -0.338  -0.331  -0.328  -0.325  -0.296
 -- Virtual --
  0.061   0.072   0.082   0.088   0.095   0.102   0.110   0.122
  0.126   0.131   0.137   0.145   0.148   0.156   0.165   0.172
  0.176   0.182   0.185   0.189   0.195   0.213   0.215   0.221
  0.232   0.234   0.244   0.252   0.258   0.268   0.271   0.276
  0.282   0.290   0.293   0.303   0.306   0.310   0.313   0.326
  0.334   0.336   0.348   0.350   0.358   0.365   0.371   0.375
  0.381   0.383   0.389   0.391   0.397   0.402   0.405   0.411
  0.413   0.423   0.429   0.430   0.435   0.450   0.452   0.457
  0.463   0.468   0.475   0.478   0.484   0.493   0.496   0.498
  0.509   0.512   0.515   0.527   0.538   0.541   0.544   0.551
  0.555   0.561   0.566   0.576   0.578   0.588   0.593   0.598
  0.603   0.610   0.625   0.632   0.636   0.640   0.646   0.656
  0.662   0.664   0.680   0.682   0.695   0.705   0.705   0.714
  0.717   0.730   0.733   0.738   0.747   0.761   0.770   0.775
  0.779   0.788   0.794   0.797   0.803   0.807   0.811   0.819
  0.827   0.836   0.843   0.848   0.851   0.855   0.870   0.872
  0.884   0.890   0.896   0.897   0.909   0.916   0.923   0.940
  0.949   0.954   0.959   0.980   0.990   1.007   1.023   1.048
  1.051   1.059   1.065   1.074   1.085   1.098   1.108   1.111
  1.132   1.152   1.156   1.172   1.191   1.202   1.216   1.219
  1.227   1.247   1.253   1.262   1.264   1.286   1.303   1.333
  1.339   1.355   1.373   1.386   1.397   1.415   1.447   1.462
  1.464   1.469   1.484   1.514   1.532   1.564   1.578   1.594
  1.603   1.633   1.653   1.676   1.707   1.735   1.758   1.812
  1.830   1.843   1.870   1.905   1.919   1.946   1.947   1.957
  1.968   1.981   1.991   2.003   2.014   2.020   2.039   2.047
  2.050   2.066   2.076   2.087   2.120   2.134   2.168   2.180
  2.191   2.218   2.224   2.243   2.277   2.282   2.288   2.307
  2.314   2.314   2.341   2.380   2.401   2.429   2.438   2.459
  2.471   2.479   2.487   2.493   2.502   2.527   2.557   2.602
  2.617   2.625   2.655   2.666   2.692   2.698   2.723   2.732
  2.759   2.788   2.789   2.813   2.857   2.878   2.882   2.912
  2.932   2.956   2.965   2.975   2.999   3.006   3.032   3.043
  3.055   3.087   3.089   3.101   3.126   3.169   3.189   3.209
  3.232   3.245   3.269   3.292   3.311   3.322   3.334   3.356
  3.385   3.423   3.427   3.449   3.471   3.479   3.484   3.502
  3.516   3.536   3.551   3.565   3.582   3.594   3.598   3.612
  3.622   3.641   3.654   3.682   3.691   3.696   3.717   3.727
  3.747   3.764   3.770   3.796   3.803   3.811   3.834   3.863
  3.865   3.883   3.944   3.962   3.985   4.060   4.083   4.099
  4.127   4.151   4.170   4.241   4.256   4.305   4.323   4.386
  4.441   4.472   4.511   4.576   4.601   4.649   4.727   4.775
  4.782   4.804   4.834   4.857   4.864   4.906   4.958   5.012
  5.053   5.091   5.136   5.213   5.233   5.307   5.320   5.333
  5.366   5.372   5.381   5.405   5.426   5.505   5.522   5.563
  5.614   5.644   5.710   5.721   5.725   5.773   5.788   5.832
  6.002   6.015   6.047   6.105   6.229   6.241   6.256   6.305
  6.340   6.373   6.403   6.608   6.617   6.641   6.676   6.699
  6.707   6.760   6.774   6.795   6.831   6.915   6.961   6.976
  7.006   7.060   7.066   7.170   7.195   7.246   7.252   7.306
  7.366   7.387   7.411   7.416   7.529   7.608   8.334  22.731
 22.898  22.963  23.126  23.732  44.215  44.312  44.416  44.599
 44.720
 --------------------------------------------------------------
 
          Ground-State Mulliken Net Atomic Charges

     Atom                 Charge (a.u.)
  ----------------------------------------
      1 C                     1.266756
      2 O                    -0.989503
      3 C                    -1.296313
      4 H                     0.234766
      5 H                     0.257407
      6 H                     0.226771
      7 C                    -0.500451
      8 H                     0.250740
      9 H                     0.180095
     10 C                    -0.220182
     11 H                     0.200959
     12 H                     0.205489
     13 C                    -0.001455
     14 O                    -0.697024
     15 O                    -0.717225
     16 O                    -0.326479
     17 O                    -0.444250
     18 H                     0.369899
  ----------------------------------------
  Sum of atomic charges =    -2.000000

 -----------------------------------------------------------------
                    Cartesian Multipole Moments
 -----------------------------------------------------------------
    Charge (ESU x 10^10)
                -9.6064
    Dipole Moment (Debye)
         X      -8.5770      Y       8.0871      Z      -5.4926
       Tot      13.0052
    Quadrupole Moments (Debye-Ang)
        XX    -145.1237     XY      18.2807     YY     -87.2238
        XZ     -10.9883     YZ       3.1408     ZZ     -75.3716
    Octopole Moments (Debye-Ang^2)
       XXX    -236.7178    XXY     103.8043    XYY     -65.0502
       YYY     108.1153    XXZ     -51.7001    XYZ      30.4908
       YYZ     -32.1636    XZZ     -14.0674    YZZ      23.5978
       ZZZ     -54.4860
    Hexadecapole Moments (Debye-Ang^3)
      XXXX   -2674.6521   XXXY     439.4048   XXYY    -610.4254
      XYYY     369.0677   YYYY    -742.5183   XXXZ    -322.0042
      XXYZ      85.4116   XYYZ    -111.4782   YYYZ     135.2566
      XXZZ    -396.3601   XYZZ     102.6792   YYZZ    -177.6332
      XZZZ    -148.8864   YZZZ      84.2982   ZZZZ    -314.4362
 -----------------------------------------------------------------
 Calculating analytic gradient of the SCF energy
 Gradient of SCF Energy
            1           2           3           4           5           6
    1   0.0383586   0.0052875  -0.0353146   0.0759398  -0.0269152  -0.0314434
    2   0.0014026   0.0030445   0.0800718  -0.0022023  -0.0593170   0.0060444
    3  -0.0057941   0.0136423  -0.0416515   0.0086474  -0.0452504   0.0661531
            7           8           9          10          11          12
    1   0.0678588  -0.0149213  -0.0185322  -0.0886404   0.0242532   0.0155262
    2   0.0167425   0.0175344  -0.0563762  -0.0632202   0.0510314  -0.0050596
    3  -0.0369653   0.0535489  -0.0432139   0.0372202   0.0205129  -0.0556605
           13          14          15          16          17          18
    1   0.0539108  -0.0399855  -0.0266338   0.0373791  -0.0277578  -0.0083697
    2   0.0155607  -0.0459928   0.0511916   0.0038602   0.0093267  -0.0236426
    3   0.0037650   0.0153333  -0.0093357   0.0042392   0.0542326  -0.0394234
 Max gradient component =       8.864E-02
 RMS gradient           =       3.893E-02
 Computing fast CPCM-ISWIG gradient
 Updating gradient with PCM contributions...
 -- total gradient after adding PCM contribution --
---------------------------------------------------
  Atom         X              Y              Z     
---------------------------------------------------
   1      -0.000000      -0.000003      -0.000018
   2      -0.000007      -0.000002       0.000006
   3       0.000000       0.000001       0.000001
   4       0.000000       0.000002       0.000003
   5       0.000004      -0.000000       0.000002
   6      -0.000001      -0.000002       0.000000
   7      -0.000001      -0.000007      -0.000001
   8       0.000001       0.000005      -0.000001
   9       0.000002       0.000001       0.000004
  10      -0.000013      -0.000011      -0.000007
  11      -0.000000      -0.000002       0.000011
  12       0.000005       0.000015       0.000001
  13       0.000000      -0.000004      -0.000003
  14       0.000004       0.000000       0.000016
  15      -0.000001       0.000001      -0.000015
  16       0.000010       0.000004       0.000002
  17      -0.000007      -0.000006      -0.000013
  18       0.000003       0.000007       0.000011
---------------------------------------------------
 Number of fixed atoms: 0
 Gradient time:  CPU 895.98 s  wall 64.10 s
 ######################################################
 ######################################################
 # Starting finite difference calculation for IDERIV  #
 Finite diff step size:  1.88973e-03 a.u.
 ----------------------------------------------------------------
             Standard Nuclear Orientation (Angstroms)
    I     Atom           X                Y                Z
 ----------------------------------------------------------------
    1      C      -0.8928873010     0.4371620195     0.0401107246
    2      O      -1.4335970683     0.3851767721     1.2641497202
    3      C      -1.3010321764     1.6949931722    -0.7416109852
    4      H      -2.3922593646     1.7429237684    -0.8078404680
    5      H      -0.9457767999     2.5849906717    -0.2118388167
    6      H      -0.8828835124     1.6980397954    -1.7538316478
    7      C       0.6258862761     0.2292916764    -0.0385004575
    8      H       0.9115768372     0.1294783931    -1.0941439117
    9      H       1.0985398427     1.1490946599     0.3230432126
   10      C       1.1459137621    -0.9620045984     0.7524674085
   11      H       0.6656750193    -1.8861744884     0.4191395210
   12      H       0.8810714142    -0.8455371200     1.8105594496
   13      C       2.6674604721    -1.1652065873     0.7010976519
   14      O       3.3972939986    -0.1739044334     0.4371338416
   15      O       3.0900412327    -2.3268801743     0.9584879199
   16      O      -1.4280027941    -0.7389673239    -0.7669952465
   17      O      -2.7574549157    -0.9555244015    -0.2802324397
   18      H      -2.6012405097    -0.5161147443     0.6203150601
 ----------------------------------------------------------------
 Nuclear Repulsion Energy =   547.3449514326 hartrees
 There are       40 alpha and       40 beta electrons
 Discretize the solute cavity surface with Lebedev spheres
	Using 110 Lebedev grid points for each H atom
	Using 110 Lebedev grid points for other atoms
	Atomic van der Waals radii will be scaled by 1.20
 Remove points where switching function is < 1.0e-08
 Keep 1050 surface tesserae and discard 930 interior tesserae
 Molecular Surface Area = 186.127 Angst**2
 Requested basis set is def2-TZVPD
 There are 175 shells and 457 basis functions
 A cutoff of  1.0D-14 yielded  14050 shell pairs
 There are     95738 function pairs (    121727 Cartesian)
 Smallest overlap matrix eigenvalue = 2.71E-06
 Guess MOs from SCF MO coefficient file
 Reading MOs from coefficient file
 Reading MOs from coefficient file
 Long-range K will be added via erf
 Coulomb attenuation parameter = 0.3 bohr**(-1)
 A restricted hybrid HF-DFT SCF calculation will be
 performed using Pulay DIIS extrapolation
 Polarizable Continuum solvation model will be applied
 Exchange:     0.1670 Hartree-Fock + 1.0000 wB97X-V + LR-HF
 Correlation:  1.0000 wB97X-V
 Using SG-2 standard quadrature grid
 Nonlocal Correlation:  VV10 with C = 0.0100 and b = 6.00
 Grid used for NLC:  SG-1 standard quadrature
 SCF converges when DIIS error is below 1.0E-08
Using Q-Chem read-in guess as SCF_GUESS READ specified.

 using 16 threads for integral computing
 -------------------------------------------------------
 OpenMP Integral computing Module                
 Release: version 1.0, May 2013, Q-Chem Inc. Pittsburgh 
 -------------------------------------------------------
 using 16 threads for integral computing
 -------------------------------------------------------
 OpenMP Integral computing Module                
 Release: version 1.0, May 2013, Q-Chem Inc. Pittsburgh 
 -------------------------------------------------------
 -------------------------------------------------------
 OpenMP BLAS3 based DFT computing Module                
 Release: version 1.0, May 2013, Q-Chem Inc. Pittsburgh 
 -------------------------------------------------------
 -------------------------------------------------------
 OpenMP BLAS3 based DFT computing Module                
 Release: version 1.0, May 2013, Q-Chem Inc. Pittsburgh 
 -------------------------------------------------------
 -------------------------------------------------------
 OpenMP BLAS3 based DFT computing Module                
 Release: version 1.0, May 2013, Q-Chem Inc. Pittsburgh 
 -------------------------------------------------------
 ---------------------------------------
  Cycle       Energy         DIIS Error
 ---------------------------------------
    1    -571.4254384491      2.91E-04
    2    -571.7224602492      3.03E-04
    3    -571.7259782478      1.42E-04
    4    -571.7265584450      1.05E-04
    5    -571.7269282346      8.01E-05
    6    -571.7271500078      6.11E-05
    7    -571.7273284870      3.96E-05
    8    -571.7274163248      2.24E-05
    9    -571.7274534184      7.07E-06
   10    -571.7274571802      1.95E-06
   11    -571.7274574747      3.37E-07
   12    -571.7274574829      7.40E-08
   13    -571.7274574833      8.75E-09 Convergence criterion met
 ---------------------------------------

************** Final PCM Free Energy Summary **************
 G_electrostatic  =      -0.30171817 hartree =    -189.33101226 kcal/mol
 G_cavitation     =       0.00000000 hartree =       0.00000000 kcal/mol
 G_dispersion     =       0.00000000 hartree =       0.00000000 kcal/mol
 G_repulsion      =       0.00000000 hartree =       0.00000000 kcal/mol
 --------------------------------------------------
 Non-electrostatic Free Energy =       0.00000000 hartree =       0.00000000 kcal/mol
 Total                         =      -0.30171817 hartree =    -189.33101226 kcal/mol
 --------------------------------------------------
 SCF Energy (H0 + V/2)                       =    -571.72745748 
 Solute Internal Energy (H0)                 =    -571.42573931 
 Total Free Energy (H0 + V/2 + non-elec)     =    -571.72745748 hartree
                                             = -358764.39440151 kcal/mol
***********************************************************

 SCF time:  CPU 3250.05 s  wall 230.33 s
 SCF   energy in the final basis set = -571.72745748
 Total energy in the final basis set = -571.72745748
 
 --------------------------------------------------------------
 
                    Orbital Energies (a.u.)
 --------------------------------------------------------------
 
 Alpha MOs
 -- Occupied --
-19.222 -19.220 -19.137 -19.135 -19.114 -10.337 -10.328 -10.239
-10.238 -10.232  -1.215  -1.139  -1.059  -1.044  -0.966  -0.878
 -0.829  -0.750  -0.653  -0.601  -0.596  -0.557  -0.548  -0.532
 -0.522  -0.510  -0.493  -0.488  -0.479  -0.454  -0.437  -0.427
 -0.424  -0.404  -0.345  -0.338  -0.331  -0.328  -0.325  -0.296
 -- Virtual --
  0.061   0.072   0.082   0.088   0.095   0.102   0.110   0.122
  0.126   0.131   0.137   0.145   0.148   0.156   0.165   0.172
  0.176   0.182   0.185   0.189   0.195   0.213   0.215   0.221
  0.232   0.234   0.244   0.252   0.258   0.268   0.271   0.276
  0.282   0.289   0.293   0.303   0.305   0.310   0.313   0.326
  0.334   0.336   0.348   0.350   0.358   0.365   0.371   0.375
  0.381   0.383   0.389   0.391   0.397   0.402   0.405   0.411
  0.413   0.423   0.429   0.430   0.435   0.450   0.452   0.457
  0.463   0.468   0.475   0.478   0.484   0.493   0.496   0.498
  0.509   0.512   0.515   0.527   0.538   0.541   0.544   0.551
  0.555   0.561   0.566   0.576   0.578   0.588   0.592   0.598
  0.603   0.610   0.625   0.632   0.636   0.640   0.646   0.656
  0.662   0.664   0.680   0.682   0.695   0.705   0.705   0.714
  0.717   0.730   0.733   0.738   0.747   0.761   0.770   0.775
  0.779   0.788   0.794   0.797   0.803   0.807   0.811   0.819
  0.827   0.836   0.843   0.848   0.851   0.855   0.870   0.872
  0.884   0.890   0.896   0.897   0.909   0.916   0.923   0.940
  0.949   0.954   0.959   0.980   0.990   1.007   1.022   1.048
  1.051   1.059   1.065   1.074   1.085   1.098   1.108   1.111
  1.132   1.152   1.156   1.172   1.191   1.202   1.216   1.219
  1.227   1.247   1.253   1.262   1.264   1.286   1.303   1.333
  1.339   1.355   1.373   1.386   1.397   1.415   1.447   1.462
  1.464   1.469   1.484   1.514   1.532   1.564   1.578   1.594
  1.603   1.633   1.653   1.676   1.707   1.735   1.758   1.812
  1.830   1.843   1.870   1.905   1.919   1.946   1.947   1.957
  1.968   1.981   1.991   2.003   2.014   2.020   2.039   2.047
  2.050   2.066   2.076   2.087   2.120   2.134   2.168   2.180
  2.192   2.218   2.224   2.243   2.277   2.282   2.288   2.307
  2.314   2.314   2.341   2.380   2.401   2.429   2.438   2.459
  2.470   2.478   2.487   2.493   2.502   2.527   2.557   2.602
  2.617   2.625   2.655   2.666   2.692   2.698   2.723   2.732
  2.759   2.788   2.789   2.813   2.857   2.878   2.882   2.912
  2.932   2.956   2.965   2.975   2.999   3.006   3.032   3.043
  3.054   3.087   3.089   3.101   3.126   3.169   3.189   3.209
  3.232   3.245   3.269   3.292   3.311   3.322   3.334   3.356
  3.385   3.423   3.427   3.449   3.471   3.479   3.484   3.502
  3.516   3.536   3.551   3.565   3.582   3.594   3.598   3.612
  3.622   3.641   3.654   3.682   3.691   3.696   3.717   3.727
  3.747   3.764   3.770   3.796   3.803   3.811   3.834   3.863
  3.865   3.883   3.944   3.962   3.985   4.060   4.084   4.098
  4.127   4.151   4.170   4.241   4.256   4.305   4.323   4.387
  4.441   4.472   4.511   4.576   4.601   4.649   4.727   4.775
  4.783   4.805   4.834   4.857   4.864   4.906   4.958   5.012
  5.053   5.091   5.136   5.213   5.233   5.307   5.320   5.333
  5.366   5.372   5.381   5.406   5.427   5.505   5.522   5.563
  5.614   5.643   5.710   5.721   5.725   5.773   5.788   5.832
  6.002   6.015   6.047   6.105   6.229   6.241   6.255   6.305
  6.340   6.372   6.402   6.608   6.617   6.641   6.676   6.699
  6.707   6.760   6.774   6.794   6.831   6.915   6.961   6.976
  7.006   7.060   7.066   7.169   7.194   7.246   7.252   7.306
  7.366   7.387   7.411   7.416   7.529   7.608   8.334  22.731
 22.898  22.963  23.125  23.732  44.215  44.312  44.416  44.599
 44.720
 --------------------------------------------------------------
 
          Ground-State Mulliken Net Atomic Charges

     Atom                 Charge (a.u.)
  ----------------------------------------
      1 C                     1.266339
      2 O                    -0.989692
      3 C                    -1.296177
      4 H                     0.234670
      5 H                     0.257442
      6 H                     0.226803
      7 C                    -0.499829
      8 H                     0.250725
      9 H                     0.180024
     10 C                    -0.220105
     11 H                     0.201003
     12 H                     0.205565
     13 C                    -0.001493
     14 O                    -0.697027
     15 O                    -0.717219
     16 O                    -0.326676
     17 O                    -0.444197
     18 H                     0.369842
  ----------------------------------------
  Sum of atomic charges =    -2.000000

 -----------------------------------------------------------------
                    Cartesian Multipole Moments
 -----------------------------------------------------------------
    Charge (ESU x 10^10)
                -9.6064
    Dipole Moment (Debye)
         X      -8.5719      Y       8.0875      Z      -5.4932
       Tot      13.0023
    Quadrupole Moments (Debye-Ang)
        XX    -145.1228     XY      18.2791     YY     -87.2247
        XZ     -10.9873     YZ       3.1392     ZZ     -75.3752
    Octopole Moments (Debye-Ang^2)
       XXX    -236.7159    XXY     103.8069    XYY     -65.0494
       YYY     108.1101    XXZ     -51.7006    XYZ      30.4933
       YYZ     -32.1610    XZZ     -14.0637    YZZ      23.5957
       ZZZ     -54.4903
    Hexadecapole Moments (Debye-Ang^3)
      XXXX   -2674.5388   XXXY     439.3720   XXYY    -610.3966
      XYYY     369.0464   YYYY    -742.5301   XXXZ    -321.9945
      XXYZ      85.4007   XYYZ    -111.4715   YYYZ     135.2523
      XXZZ    -396.3477   XYZZ     102.6725   YYZZ    -177.6412
      XZZZ    -148.8821   YZZZ      84.2931   ZZZZ    -314.4656
 -----------------------------------------------------------------
 Calculating analytic gradient of the SCF energy
 Gradient of SCF Energy
            1           2           3           4           5           6
    1   0.0387842   0.0051493  -0.0352560   0.0759232  -0.0268984  -0.0314430
    2   0.0015240   0.0030289   0.0800737  -0.0021589  -0.0593324   0.0060184
    3  -0.0059906   0.0138638  -0.0416307   0.0086289  -0.0452490   0.0661660
            7           8           9          10          11          12
    1   0.0675809  -0.0149236  -0.0185437  -0.0885419   0.0242402   0.0155235
    2   0.0166568   0.0175346  -0.0563498  -0.0631948   0.0510445  -0.0050747
    3  -0.0369331   0.0535178  -0.0431990   0.0371537   0.0205229  -0.0556620
           13          14          15          16          17          18
    1   0.0538851  -0.0399790  -0.0266301   0.0373260  -0.0277920  -0.0084050
    2   0.0155626  -0.0459878   0.0511863   0.0038509   0.0092973  -0.0236797
    3   0.0037735   0.0153335  -0.0093340   0.0042475   0.0542416  -0.0394508
 Max gradient component =       8.854E-02
 RMS gradient           =       3.892E-02
 Computing fast CPCM-ISWIG gradient
 Updating gradient with PCM contributions...
 -- total gradient after adding PCM contribution --
---------------------------------------------------
  Atom         X              Y              Z     
---------------------------------------------------
   1       0.001036      -0.000069      -0.000171
   2      -0.000254      -0.000015       0.000168
   3      -0.000180       0.000061      -0.000034
   4      -0.000021       0.000058      -0.000029
   5       0.000006      -0.000021       0.000012
   6       0.000002      -0.000025       0.000016
   7      -0.000334       0.000033      -0.000007
   8      -0.000005       0.000003      -0.000005
   9      -0.000021       0.000006       0.000009
  10      -0.000034       0.000007      -0.000018
  11       0.000001      -0.000006       0.000011
  12       0.000004       0.000015       0.000005
  13      -0.000006      -0.000003       0.000001
  14       0.000009      -0.000001       0.000016
  15       0.000004      -0.000002      -0.000016
  16      -0.000111       0.000038       0.000061
  17      -0.000074      -0.000058      -0.000030
  18      -0.000025      -0.000020       0.000011
---------------------------------------------------
 Number of fixed atoms: 0
 Gradient time:  CPU 889.11 s  wall 63.81 s
 ----------------------------------------------------------------
             Standard Nuclear Orientation (Angstroms)
    I     Atom           X                Y                Z
 ----------------------------------------------------------------
    1      C      -0.8948873010     0.4371620195     0.0401107246
    2      O      -1.4335970683     0.3851767721     1.2641497202
    3      C      -1.3010321764     1.6949931722    -0.7416109852
    4      H      -2.3922593646     1.7429237684    -0.8078404680
    5      H      -0.9457767999     2.5849906717    -0.2118388167
    6      H      -0.8828835124     1.6980397954    -1.7538316478
    7      C       0.6258862761     0.2292916764    -0.0385004575
    8      H       0.9115768372     0.1294783931    -1.0941439117
    9      H       1.0985398427     1.1490946599     0.3230432126
   10      C       1.1459137621    -0.9620045984     0.7524674085
   11      H       0.6656750193    -1.8861744884     0.4191395210
   12      H       0.8810714142    -0.8455371200     1.8105594496
   13      C       2.6674604721    -1.1652065873     0.7010976519
   14      O       3.3972939986    -0.1739044334     0.4371338416
   15      O       3.0900412327    -2.3268801743     0.9584879199
   16      O      -1.4280027941    -0.7389673239    -0.7669952465
   17      O      -2.7574549157    -0.9555244015    -0.2802324397
   18      H      -2.6012405097    -0.5161147443     0.6203150601
 ----------------------------------------------------------------
 Nuclear Repulsion Energy =   547.3474539848 hartrees
 There are       40 alpha and       40 beta electrons
 Discretize the solute cavity surface with Lebedev spheres
	Using 110 Lebedev grid points for each H atom
	Using 110 Lebedev grid points for other atoms
	Atomic van der Waals radii will be scaled by 1.20
 Remove points where switching function is < 1.0e-08
 Keep 1050 surface tesserae and discard 930 interior tesserae
 Molecular Surface Area = 186.126 Angst**2
 Requested basis set is def2-TZVPD
 There are 175 shells and 457 basis functions
 A cutoff of  1.0D-14 yielded  14050 shell pairs
 There are     95738 function pairs (    121727 Cartesian)
 Smallest overlap matrix eigenvalue = 2.72E-06
 Guess MOs from SCF MO coefficient file
 Reading MOs from coefficient file
 Reading MOs from coefficient file
 Long-range K will be added via erf
 Coulomb attenuation parameter = 0.3 bohr**(-1)
 A restricted hybrid HF-DFT SCF calculation will be
 performed using Pulay DIIS extrapolation
 Polarizable Continuum solvation model will be applied
 Exchange:     0.1670 Hartree-Fock + 1.0000 wB97X-V + LR-HF
 Correlation:  1.0000 wB97X-V
 Using SG-2 standard quadrature grid
 Nonlocal Correlation:  VV10 with C = 0.0100 and b = 6.00
 Grid used for NLC:  SG-1 standard quadrature
 SCF converges when DIIS error is below 1.0E-08
Using Q-Chem read-in guess as SCF_GUESS READ specified.

 using 16 threads for integral computing
 -------------------------------------------------------
 OpenMP Integral computing Module                
 Release: version 1.0, May 2013, Q-Chem Inc. Pittsburgh 
 -------------------------------------------------------
 using 16 threads for integral computing
 -------------------------------------------------------
 OpenMP Integral computing Module                
 Release: version 1.0, May 2013, Q-Chem Inc. Pittsburgh 
 -------------------------------------------------------
 -------------------------------------------------------
 OpenMP BLAS3 based DFT computing Module                
 Release: version 1.0, May 2013, Q-Chem Inc. Pittsburgh 
 -------------------------------------------------------
 -------------------------------------------------------
 OpenMP BLAS3 based DFT computing Module                
 Release: version 1.0, May 2013, Q-Chem Inc. Pittsburgh 
 -------------------------------------------------------
 -------------------------------------------------------
 OpenMP BLAS3 based DFT computing Module                
 Release: version 1.0, May 2013, Q-Chem Inc. Pittsburgh 
 -------------------------------------------------------
 ---------------------------------------
  Cycle       Energy         DIIS Error
 ---------------------------------------
    1    -571.4263685933      2.93E-04
    2    -571.7224551446      3.04E-04
    3    -571.7259834564      1.42E-04
    4    -571.7265683001      1.05E-04
    5    -571.7269562828      7.79E-05
    6    -571.7272220354      5.35E-05
    7    -571.7274082896      2.45E-05
    8    -571.7274502105      9.43E-06
    9    -571.7274572210      1.82E-06
   10    -571.7274574714      4.35E-07
   11    -571.7274574835      9.11E-08
   12    -571.7274574840      2.79E-08
   13    -571.7274574840      8.47E-09 Convergence criterion met
 ---------------------------------------

************** Final PCM Free Energy Summary **************
 G_electrostatic  =      -0.30170508 hartree =    -189.32279440 kcal/mol
 G_cavitation     =       0.00000000 hartree =       0.00000000 kcal/mol
 G_dispersion     =       0.00000000 hartree =       0.00000000 kcal/mol
 G_repulsion      =       0.00000000 hartree =       0.00000000 kcal/mol
 --------------------------------------------------
 Non-electrostatic Free Energy =       0.00000000 hartree =       0.00000000 kcal/mol
 Total                         =      -0.30170508 hartree =    -189.32279440 kcal/mol
 --------------------------------------------------
 SCF Energy (H0 + V/2)                       =    -571.72745748 
 Solute Internal Energy (H0)                 =    -571.42575241 
 Total Free Energy (H0 + V/2 + non-elec)     =    -571.72745748 hartree
                                             = -358764.39440197 kcal/mol
***********************************************************

 SCF time:  CPU 3255.03 s  wall 230.94 s
 SCF   energy in the final basis set = -571.72745748
 Total energy in the final basis set = -571.72745748
 
 --------------------------------------------------------------
 
                    Orbital Energies (a.u.)
 --------------------------------------------------------------
 
 Alpha MOs
 -- Occupied --
-19.223 -19.220 -19.137 -19.135 -19.114 -10.337 -10.328 -10.239
-10.238 -10.232  -1.215  -1.139  -1.059  -1.044  -0.966  -0.878
 -0.829  -0.750  -0.653  -0.601  -0.596  -0.557  -0.548  -0.532
 -0.522  -0.510  -0.493  -0.488  -0.479  -0.454  -0.436  -0.427
 -0.424  -0.405  -0.345  -0.338  -0.331  -0.328  -0.325  -0.296
 -- Virtual --
  0.061   0.072   0.082   0.088   0.095   0.102   0.110   0.122
  0.126   0.131   0.137   0.145   0.148   0.156   0.165   0.172
  0.176   0.182   0.185   0.189   0.195   0.213   0.215   0.221
  0.232   0.234   0.244   0.252   0.258   0.268   0.271   0.276
  0.282   0.290   0.293   0.303   0.306   0.310   0.313   0.326
  0.334   0.336   0.348   0.350   0.358   0.365   0.371   0.375
  0.381   0.383   0.389   0.391   0.397   0.402   0.405   0.411
  0.413   0.423   0.429   0.430   0.435   0.450   0.452   0.457
  0.463   0.468   0.475   0.478   0.484   0.493   0.496   0.498
  0.509   0.512   0.515   0.527   0.538   0.541   0.544   0.551
  0.555   0.561   0.566   0.576   0.578   0.588   0.593   0.598
  0.603   0.610   0.625   0.632   0.636   0.640   0.646   0.656
  0.662   0.664   0.680   0.682   0.695   0.705   0.706   0.714
  0.717   0.730   0.733   0.738   0.747   0.761   0.770   0.775
  0.779   0.788   0.794   0.797   0.803   0.807   0.811   0.819
  0.827   0.836   0.843   0.848   0.851   0.855   0.870   0.872
  0.884   0.890   0.896   0.897   0.909   0.916   0.923   0.940
  0.949   0.954   0.959   0.980   0.990   1.007   1.023   1.048
  1.051   1.059   1.065   1.074   1.085   1.098   1.108   1.111
  1.132   1.152   1.156   1.172   1.191   1.202   1.216   1.219
  1.227   1.247   1.253   1.262   1.264   1.286   1.303   1.333
  1.339   1.355   1.373   1.386   1.397   1.415   1.447   1.462
  1.463   1.469   1.484   1.514   1.532   1.564   1.577   1.594
  1.603   1.633   1.653   1.676   1.707   1.735   1.758   1.812
  1.830   1.843   1.870   1.905   1.919   1.946   1.947   1.957
  1.968   1.981   1.991   2.003   2.014   2.020   2.039   2.047
  2.050   2.066   2.076   2.087   2.120   2.134   2.168   2.180
  2.191   2.218   2.224   2.243   2.276   2.282   2.288   2.307
  2.314   2.315   2.341   2.380   2.401   2.429   2.438   2.459
  2.471   2.479   2.487   2.493   2.502   2.527   2.557   2.602
  2.617   2.625   2.655   2.666   2.692   2.698   2.723   2.732
  2.759   2.788   2.789   2.813   2.857   2.878   2.882   2.912
  2.932   2.955   2.965   2.975   2.999   3.006   3.032   3.043
  3.055   3.087   3.089   3.101   3.126   3.169   3.189   3.209
  3.232   3.245   3.269   3.292   3.311   3.322   3.334   3.356
  3.385   3.423   3.427   3.449   3.471   3.479   3.484   3.502
  3.516   3.536   3.551   3.565   3.582   3.594   3.598   3.611
  3.622   3.641   3.654   3.682   3.691   3.696   3.717   3.727
  3.747   3.764   3.770   3.796   3.803   3.811   3.834   3.863
  3.865   3.882   3.943   3.962   3.985   4.060   4.083   4.099
  4.127   4.151   4.170   4.240   4.256   4.305   4.323   4.386
  4.441   4.472   4.511   4.576   4.601   4.649   4.727   4.775
  4.782   4.804   4.834   4.857   4.864   4.906   4.958   5.012
  5.053   5.091   5.136   5.213   5.233   5.307   5.320   5.333
  5.366   5.372   5.381   5.405   5.426   5.505   5.522   5.563
  5.615   5.644   5.710   5.721   5.725   5.773   5.788   5.832
  6.003   6.016   6.047   6.105   6.229   6.241   6.256   6.305
  6.340   6.373   6.403   6.608   6.617   6.641   6.676   6.699
  6.707   6.760   6.774   6.795   6.831   6.915   6.961   6.976
  7.006   7.060   7.066   7.170   7.195   7.246   7.252   7.306
  7.366   7.387   7.411   7.416   7.529   7.608   8.334  22.731
 22.898  22.963  23.127  23.732  44.215  44.312  44.416  44.599
 44.720
 --------------------------------------------------------------
 
          Ground-State Mulliken Net Atomic Charges

     Atom                 Charge (a.u.)
  ----------------------------------------
      1 C                     1.267159
      2 O                    -0.989314
      3 C                    -1.296445
      4 H                     0.234863
      5 H                     0.257373
      6 H                     0.226740
      7 C                    -0.501070
      8 H                     0.250755
      9 H                     0.180168
     10 C                    -0.220258
     11 H                     0.200916
     12 H                     0.205414
     13 C                    -0.001418
     14 O                    -0.697021
     15 O                    -0.717232
     16 O                    -0.326282
     17 O                    -0.444304
     18 H                     0.369956
  ----------------------------------------
  Sum of atomic charges =    -2.000000

 -----------------------------------------------------------------
                    Cartesian Multipole Moments
 -----------------------------------------------------------------
    Charge (ESU x 10^10)
                -9.6064
    Dipole Moment (Debye)
         X      -8.5821      Y       8.0868      Z      -5.4920
       Tot      13.0081
    Quadrupole Moments (Debye-Ang)
        XX    -145.1245     XY      18.2824     YY     -87.2229
        XZ     -10.9893     YZ       3.1425     ZZ     -75.3680
    Octopole Moments (Debye-Ang^2)
       XXX    -236.7195    XXY     103.8016    XYY     -65.0511
       YYY     108.1206    XXZ     -51.6996    XYZ      30.4884
       YYZ     -32.1662    XZZ     -14.0710    YZZ      23.5999
       ZZZ     -54.4818
    Hexadecapole Moments (Debye-Ang^3)
      XXXX   -2674.7638   XXXY     439.4371   XXYY    -610.4540
      XYYY     369.0888   YYYY    -742.5060   XXXZ    -322.0136
      XXYZ      85.4225   XYYZ    -111.4848   YYYZ     135.2607
      XXZZ    -396.3724   XYZZ     102.6858   YYZZ    -177.6251
      XZZZ    -148.8907   YZZZ      84.3032   ZZZZ    -314.4068
 -----------------------------------------------------------------
 Calculating analytic gradient of the SCF energy
 Gradient of SCF Energy
            1           2           3           4           5           6
    1   0.0379357   0.0054255  -0.0353738   0.0759576  -0.0269325  -0.0314443
    2   0.0012810   0.0030600   0.0800716  -0.0022458  -0.0593026   0.0060705
    3  -0.0055973   0.0134205  -0.0416733   0.0086661  -0.0452526   0.0661412
            7           8           9          10          11          12
    1   0.0681355  -0.0149192  -0.0185210  -0.0887402   0.0242669   0.0155292
    2   0.0168286   0.0175345  -0.0564035  -0.0632466   0.0510191  -0.0050447
    3  -0.0369981   0.0535810  -0.0432295   0.0372872   0.0205026  -0.0556604
           13          14          15          16          17          18
    1   0.0539367  -0.0399926  -0.0266378   0.0374327  -0.0277239  -0.0083344
    2   0.0155584  -0.0459986   0.0511978   0.0038695   0.0093565  -0.0236058
    3   0.0037580   0.0153334  -0.0093375   0.0042308   0.0542245  -0.0393967
 Max gradient component =       8.874E-02
 RMS gradient           =       3.895E-02
 Computing fast CPCM-ISWIG gradient
 Updating gradient with PCM contributions...
 -- total gradient after adding PCM contribution --
---------------------------------------------------
  Atom         X              Y              Z     
---------------------------------------------------
   1      -0.001034       0.000062       0.000136
   2       0.000241       0.000012      -0.000156
   3       0.000179      -0.000057       0.000036
   4       0.000023      -0.000054       0.000036
   5       0.000001       0.000020      -0.000010
   6      -0.000005       0.000022      -0.000014
   7       0.000331      -0.000046       0.000006
   8       0.000006       0.000009       0.000003
   9       0.000024      -0.000005      -0.000002
  10       0.000007      -0.000031       0.000006
  11      -0.000000       0.000002       0.000011
  12       0.000005       0.000016      -0.000003
  13       0.000008      -0.000005      -0.000006
  14      -0.000002       0.000002       0.000015
  15      -0.000006       0.000006      -0.000015
  16       0.000132      -0.000031      -0.000058
  17       0.000060       0.000046       0.000006
  18       0.000031       0.000035       0.000011
---------------------------------------------------
 Number of fixed atoms: 0
 Gradient time:  CPU 883.90 s  wall 63.25 s
 ----------------------------------------------------------------
             Standard Nuclear Orientation (Angstroms)
    I     Atom           X                Y                Z
 ----------------------------------------------------------------
    1      C      -0.8938873010     0.4381620195     0.0401107246
    2      O      -1.4335970683     0.3851767721     1.2641497202
    3      C      -1.3010321764     1.6949931722    -0.7416109852
    4      H      -2.3922593646     1.7429237684    -0.8078404680
    5      H      -0.9457767999     2.5849906717    -0.2118388167
    6      H      -0.8828835124     1.6980397954    -1.7538316478
    7      C       0.6258862761     0.2292916764    -0.0385004575
    8      H       0.9115768372     0.1294783931    -1.0941439117
    9      H       1.0985398427     1.1490946599     0.3230432126
   10      C       1.1459137621    -0.9620045984     0.7524674085
   11      H       0.6656750193    -1.8861744884     0.4191395210
   12      H       0.8810714142    -0.8455371200     1.8105594496
   13      C       2.6674604721    -1.1652065873     0.7010976519
   14      O       3.3972939986    -0.1739044334     0.4371338416
   15      O       3.0900412327    -2.3268801743     0.9584879199
   16      O      -1.4280027941    -0.7389673239    -0.7669952465
   17      O      -2.7574549157    -0.9555244015    -0.2802324397
   18      H      -2.6012405097    -0.5161147443     0.6203150601
 ----------------------------------------------------------------
 Nuclear Repulsion Energy =   547.3378906495 hartrees
 There are       40 alpha and       40 beta electrons
 Discretize the solute cavity surface with Lebedev spheres
	Using 110 Lebedev grid points for each H atom
	Using 110 Lebedev grid points for other atoms
	Atomic van der Waals radii will be scaled by 1.20
 Remove points where switching function is < 1.0e-08
 Keep 1050 surface tesserae and discard 930 interior tesserae
 Molecular Surface Area = 186.126 Angst**2
 Requested basis set is def2-TZVPD
 There are 175 shells and 457 basis functions
 A cutoff of  1.0D-14 yielded  14050 shell pairs
 There are     95738 function pairs (    121727 Cartesian)
 Smallest overlap matrix eigenvalue = 2.71E-06
 Guess MOs from SCF MO coefficient file
 Reading MOs from coefficient file
 Reading MOs from coefficient file
 Long-range K will be added via erf
 Coulomb attenuation parameter = 0.3 bohr**(-1)
 A restricted hybrid HF-DFT SCF calculation will be
 performed using Pulay DIIS extrapolation
 Polarizable Continuum solvation model will be applied
 Exchange:     0.1670 Hartree-Fock + 1.0000 wB97X-V + LR-HF
 Correlation:  1.0000 wB97X-V
 Using SG-2 standard quadrature grid
 Nonlocal Correlation:  VV10 with C = 0.0100 and b = 6.00
 Grid used for NLC:  SG-1 standard quadrature
 SCF converges when DIIS error is below 1.0E-08
Using Q-Chem read-in guess as SCF_GUESS READ specified.

 using 16 threads for integral computing
 -------------------------------------------------------
 OpenMP Integral computing Module                
 Release: version 1.0, May 2013, Q-Chem Inc. Pittsburgh 
 -------------------------------------------------------
 using 16 threads for integral computing
 -------------------------------------------------------
 OpenMP Integral computing Module                
 Release: version 1.0, May 2013, Q-Chem Inc. Pittsburgh 
 -------------------------------------------------------
 -------------------------------------------------------
 OpenMP BLAS3 based DFT computing Module                
 Release: version 1.0, May 2013, Q-Chem Inc. Pittsburgh 
 -------------------------------------------------------
 -------------------------------------------------------
 OpenMP BLAS3 based DFT computing Module                
 Release: version 1.0, May 2013, Q-Chem Inc. Pittsburgh 
 -------------------------------------------------------
 -------------------------------------------------------
 OpenMP BLAS3 based DFT computing Module                
 Release: version 1.0, May 2013, Q-Chem Inc. Pittsburgh 
 -------------------------------------------------------
 ---------------------------------------
  Cycle       Energy         DIIS Error
 ---------------------------------------
    1    -571.4251441374      2.91E-04
    2    -571.7224556640      3.03E-04
    3    -571.7259779337      1.42E-04
    4    -571.7265592866      1.05E-04
    5    -571.7269358253      7.96E-05
    6    -571.7271728809      5.88E-05
    7    -571.7273630162      3.39E-05
    8    -571.7274360643      1.63E-05
    9    -571.7274564104      4.06E-06
   10    -571.7274576715      1.00E-06
   11    -571.7274577458      1.81E-07
   12    -571.7274577480      4.60E-08
   13    -571.7274577481      8.45E-09 Convergence criterion met
 ---------------------------------------

************** Final PCM Free Energy Summary **************
 G_electrostatic  =      -0.30173346 hartree =    -189.34060452 kcal/mol
 G_cavitation     =       0.00000000 hartree =       0.00000000 kcal/mol
 G_dispersion     =       0.00000000 hartree =       0.00000000 kcal/mol
 G_repulsion      =       0.00000000 hartree =       0.00000000 kcal/mol
 --------------------------------------------------
 Non-electrostatic Free Energy =       0.00000000 hartree =       0.00000000 kcal/mol
 Total                         =      -0.30173346 hartree =    -189.34060452 kcal/mol
 --------------------------------------------------
 SCF Energy (H0 + V/2)                       =    -571.72745775 
 Solute Internal Energy (H0)                 =    -571.42572429 
 Total Free Energy (H0 + V/2 + non-elec)     =    -571.72745775 hartree
                                             = -358764.39456770 kcal/mol
***********************************************************

 SCF time:  CPU 3242.14 s  wall 230.14 s
 SCF   energy in the final basis set = -571.72745775
 Total energy in the final basis set = -571.72745775
 
 --------------------------------------------------------------
 
                    Orbital Energies (a.u.)
 --------------------------------------------------------------
 
 Alpha MOs
 -- Occupied --
-19.222 -19.220 -19.137 -19.135 -19.114 -10.337 -10.328 -10.239
-10.238 -10.232  -1.215  -1.139  -1.059  -1.044  -0.965  -0.878
 -0.829  -0.750  -0.653  -0.601  -0.596  -0.557  -0.548  -0.532
 -0.522  -0.510  -0.493  -0.488  -0.479  -0.454  -0.437  -0.427
 -0.424  -0.404  -0.345  -0.338  -0.331  -0.328  -0.325  -0.297
 -- Virtual --
  0.061   0.072   0.082   0.088   0.095   0.102   0.110   0.122
  0.126   0.131   0.137   0.145   0.148   0.156   0.165   0.172
  0.176   0.182   0.185   0.189   0.195   0.213   0.215   0.221
  0.232   0.234   0.244   0.252   0.258   0.268   0.271   0.276
  0.282   0.289   0.293   0.303   0.305   0.310   0.313   0.326
  0.334   0.336   0.348   0.350   0.358   0.365   0.371   0.375
  0.381   0.383   0.389   0.391   0.397   0.402   0.405   0.411
  0.413   0.423   0.429   0.430   0.435   0.450   0.452   0.457
  0.463   0.468   0.475   0.478   0.484   0.493   0.496   0.498
  0.509   0.512   0.515   0.527   0.538   0.541   0.544   0.551
  0.555   0.561   0.566   0.576   0.578   0.588   0.593   0.598
  0.603   0.610   0.625   0.632   0.636   0.640   0.646   0.656
  0.662   0.664   0.680   0.682   0.695   0.705   0.705   0.714
  0.717   0.730   0.733   0.738   0.747   0.761   0.770   0.775
  0.779   0.788   0.794   0.797   0.803   0.807   0.811   0.819
  0.827   0.836   0.843   0.848   0.851   0.855   0.870   0.872
  0.884   0.890   0.896   0.897   0.909   0.916   0.923   0.940
  0.949   0.954   0.959   0.980   0.990   1.007   1.023   1.048
  1.051   1.059   1.065   1.074   1.085   1.098   1.108   1.111
  1.132   1.152   1.156   1.172   1.191   1.202   1.216   1.219
  1.227   1.247   1.253   1.262   1.264   1.286   1.303   1.333
  1.339   1.355   1.373   1.386   1.397   1.415   1.447   1.462
  1.463   1.469   1.484   1.514   1.532   1.564   1.578   1.594
  1.603   1.633   1.653   1.676   1.707   1.735   1.758   1.812
  1.830   1.843   1.870   1.905   1.919   1.946   1.947   1.957
  1.968   1.981   1.991   2.003   2.014   2.020   2.039   2.047
  2.050   2.066   2.076   2.087   2.120   2.134   2.168   2.180
  2.191   2.218   2.224   2.243   2.276   2.282   2.288   2.307
  2.314   2.314   2.341   2.380   2.401   2.429   2.438   2.459
  2.471   2.479   2.487   2.493   2.503   2.527   2.557   2.602
  2.617   2.625   2.655   2.666   2.692   2.698   2.723   2.732
  2.759   2.788   2.789   2.813   2.857   2.879   2.882   2.912
  2.931   2.955   2.965   2.975   2.999   3.006   3.032   3.043
  3.055   3.087   3.089   3.101   3.126   3.169   3.189   3.209
  3.232   3.245   3.269   3.292   3.311   3.322   3.334   3.356
  3.385   3.423   3.427   3.449   3.471   3.479   3.483   3.502
  3.516   3.536   3.551   3.565   3.582   3.594   3.598   3.612
  3.622   3.641   3.654   3.682   3.691   3.696   3.717   3.727
  3.747   3.764   3.770   3.796   3.803   3.811   3.834   3.863
  3.865   3.883   3.944   3.962   3.984   4.060   4.084   4.099
  4.127   4.151   4.170   4.241   4.257   4.305   4.323   4.387
  4.441   4.472   4.511   4.576   4.601   4.649   4.727   4.775
  4.782   4.804   4.834   4.857   4.863   4.906   4.958   5.012
  5.052   5.091   5.136   5.213   5.233   5.307   5.320   5.333
  5.366   5.372   5.381   5.405   5.427   5.505   5.522   5.563
  5.614   5.643   5.710   5.721   5.725   5.773   5.788   5.832
  6.002   6.015   6.047   6.105   6.229   6.241   6.256   6.305
  6.340   6.372   6.403   6.608   6.617   6.641   6.676   6.699
  6.707   6.760   6.774   6.794   6.831   6.915   6.961   6.976
  7.006   7.060   7.066   7.169   7.195   7.246   7.252   7.306
  7.366   7.387   7.411   7.416   7.529   7.607   8.334  22.731
 22.898  22.963  23.126  23.732  44.215  44.312  44.416  44.599
 44.720
 --------------------------------------------------------------
 
          Ground-State Mulliken Net Atomic Charges

     Atom                 Charge (a.u.)
  ----------------------------------------
      1 C                     1.267219
      2 O                    -0.989592
      3 C                    -1.297135
      4 H                     0.234883
      5 H                     0.257525
      6 H                     0.226857
      7 C                    -0.499952
      8 H                     0.250884
      9 H                     0.180172
     10 C                    -0.220127
     11 H                     0.200853
     12 H                     0.205435
     13 C                    -0.001328
     14 O                    -0.697012
     15 O                    -0.717217
     16 O                    -0.326955
     17 O                    -0.444350
     18 H                     0.369839
  ----------------------------------------
  Sum of atomic charges =    -2.000000

 -----------------------------------------------------------------
                    Cartesian Multipole Moments
 -----------------------------------------------------------------
    Charge (ESU x 10^10)
                -9.6064
    Dipole Moment (Debye)
         X      -8.5758      Y       8.0934      Z      -5.4922
       Tot      13.0081
    Quadrupole Moments (Debye-Ang)
        XX    -145.1285     XY      18.2701     YY     -87.2173
        XZ     -10.9886     YZ       3.1348     ZZ     -75.3695
    Octopole Moments (Debye-Ang^2)
       XXX    -236.6966    XXY     103.8159    XYY     -65.0561
       YYY     108.1252    XXZ     -51.6994    XYZ      30.4997
       YYZ     -32.1698    XZZ     -14.0682    YZZ      23.6010
       ZZZ     -54.4861
    Hexadecapole Moments (Debye-Ang^3)
      XXXX   -2674.7173   XXXY     439.3565   XXYY    -610.4182
      XYYY     369.0374   YYYY    -742.4917   XXXZ    -322.0002
      XXYZ      85.3897   XYYZ    -111.4671   YYYZ     135.2288
      XXZZ    -396.3599   XYZZ     102.6718   YYZZ    -177.6238
      XZZZ    -148.8864   YZZZ      84.2677   ZZZZ    -314.4221
 -----------------------------------------------------------------
 Calculating analytic gradient of the SCF energy
 Gradient of SCF Energy
            1           2           3           4           5           6
    1   0.0383731   0.0052673  -0.0352610   0.0759328  -0.0268900  -0.0314488
    2   0.0017210   0.0029945   0.0799038  -0.0022050  -0.0593047   0.0060748
    3  -0.0059364   0.0136870  -0.0415020   0.0086430  -0.0452464   0.0661169
            7           8           9          10          11          12
    1   0.0677651  -0.0149044  -0.0185191  -0.0886070   0.0242514   0.0155270
    2   0.0167574   0.0175351  -0.0563858  -0.0632845   0.0510403  -0.0050540
    3  -0.0369410   0.0535205  -0.0431936   0.0371993   0.0205082  -0.0556636
           13          14          15          16          17          18
    1   0.0539091  -0.0399860  -0.0266326   0.0373741  -0.0277777  -0.0083732
    2   0.0155990  -0.0459958   0.0511922   0.0037534   0.0093085  -0.0236502
    3   0.0037751   0.0153332  -0.0093391   0.0042079   0.0542514  -0.0394204
 Max gradient component =       8.861E-02
 RMS gradient           =       3.892E-02
 Computing fast CPCM-ISWIG gradient
 Updating gradient with PCM contributions...
 -- total gradient after adding PCM contribution --
---------------------------------------------------
  Atom         X              Y              Z     
---------------------------------------------------
   1      -0.000066       0.000758      -0.000209
   2      -0.000031      -0.000174       0.000077
   3       0.000067      -0.000261       0.000083
   4      -0.000002      -0.000002       0.000002
   5       0.000016      -0.000032       0.000024
   6      -0.000004       0.000006      -0.000013
   7       0.000040      -0.000155       0.000006
   8       0.000007       0.000002      -0.000001
   9      -0.000050       0.000002       0.000007
  10       0.000040      -0.000017      -0.000010
  11       0.000000      -0.000004       0.000010
  12       0.000004       0.000017       0.000001
  13      -0.000005      -0.000012       0.000003
  14       0.000003       0.000003       0.000015
  15       0.000004      -0.000001      -0.000016
  16       0.000001      -0.000128       0.000022
  17      -0.000021      -0.000018      -0.000029
  18      -0.000003       0.000015       0.000029
---------------------------------------------------
 Number of fixed atoms: 0
 Gradient time:  CPU 876.83 s  wall 63.01 s
 ----------------------------------------------------------------
             Standard Nuclear Orientation (Angstroms)
    I     Atom           X                Y                Z
 ----------------------------------------------------------------
    1      C      -0.8938873010     0.4361620195     0.0401107246
    2      O      -1.4335970683     0.3851767721     1.2641497202
    3      C      -1.3010321764     1.6949931722    -0.7416109852
    4      H      -2.3922593646     1.7429237684    -0.8078404680
    5      H      -0.9457767999     2.5849906717    -0.2118388167
    6      H      -0.8828835124     1.6980397954    -1.7538316478
    7      C       0.6258862761     0.2292916764    -0.0385004575
    8      H       0.9115768372     0.1294783931    -1.0941439117
    9      H       1.0985398427     1.1490946599     0.3230432126
   10      C       1.1459137621    -0.9620045984     0.7524674085
   11      H       0.6656750193    -1.8861744884     0.4191395210
   12      H       0.8810714142    -0.8455371200     1.8105594496
   13      C       2.6674604721    -1.1652065873     0.7010976519
   14      O       3.3972939986    -0.1739044334     0.4371338416
   15      O       3.0900412327    -2.3268801743     0.9584879199
   16      O      -1.4280027941    -0.7389673239    -0.7669952465
   17      O      -2.7574549157    -0.9555244015    -0.2802324397
   18      H      -2.6012405097    -0.5161147443     0.6203150601
 ----------------------------------------------------------------
 Nuclear Repulsion Energy =   547.3545089980 hartrees
 There are       40 alpha and       40 beta electrons
 Discretize the solute cavity surface with Lebedev spheres
	Using 110 Lebedev grid points for each H atom
	Using 110 Lebedev grid points for other atoms
	Atomic van der Waals radii will be scaled by 1.20
 Remove points where switching function is < 1.0e-08
 Keep 1050 surface tesserae and discard 930 interior tesserae
 Molecular Surface Area = 186.128 Angst**2
 Requested basis set is def2-TZVPD
 There are 175 shells and 457 basis functions
 A cutoff of  1.0D-14 yielded  14050 shell pairs
 There are     95738 function pairs (    121727 Cartesian)
 Smallest overlap matrix eigenvalue = 2.71E-06
 Guess MOs from SCF MO coefficient file
 Reading MOs from coefficient file
 Reading MOs from coefficient file
 Long-range K will be added via erf
 Coulomb attenuation parameter = 0.3 bohr**(-1)
 A restricted hybrid HF-DFT SCF calculation will be
 performed using Pulay DIIS extrapolation
 Polarizable Continuum solvation model will be applied
 Exchange:     0.1670 Hartree-Fock + 1.0000 wB97X-V + LR-HF
 Correlation:  1.0000 wB97X-V
 Using SG-2 standard quadrature grid
 Nonlocal Correlation:  VV10 with C = 0.0100 and b = 6.00
 Grid used for NLC:  SG-1 standard quadrature
 SCF converges when DIIS error is below 1.0E-08
Using Q-Chem read-in guess as SCF_GUESS READ specified.

 using 16 threads for integral computing
 -------------------------------------------------------
 OpenMP Integral computing Module                
 Release: version 1.0, May 2013, Q-Chem Inc. Pittsburgh 
 -------------------------------------------------------
 using 16 threads for integral computing
 -------------------------------------------------------
 OpenMP Integral computing Module                
 Release: version 1.0, May 2013, Q-Chem Inc. Pittsburgh 
 -------------------------------------------------------
 -------------------------------------------------------
 OpenMP BLAS3 based DFT computing Module                
 Release: version 1.0, May 2013, Q-Chem Inc. Pittsburgh 
 -------------------------------------------------------
 -------------------------------------------------------
 OpenMP BLAS3 based DFT computing Module                
 Release: version 1.0, May 2013, Q-Chem Inc. Pittsburgh 
 -------------------------------------------------------
 -------------------------------------------------------
 OpenMP BLAS3 based DFT computing Module                
 Release: version 1.0, May 2013, Q-Chem Inc. Pittsburgh 
 -------------------------------------------------------
 ---------------------------------------
  Cycle       Energy         DIIS Error
 ---------------------------------------
    1    -571.4263357178      2.93E-04
    2    -571.7224686117      3.03E-04
    3    -571.7259880624      1.42E-04
    4    -571.7265710335      1.04E-04
    5    -571.7269572103      7.79E-05
    6    -571.7272193280      5.38E-05
    7    -571.7274057606      2.52E-05
    8    -571.7274497709      9.87E-06
    9    -571.7274574841      1.79E-06
   10    -571.7274577274      4.16E-07
   11    -571.7274577382      7.98E-08
   12    -571.7274577385      2.81E-08
   13    -571.7274577386      9.22E-09 Convergence criterion met
 ---------------------------------------

************** Final PCM Free Energy Summary **************
 G_electrostatic  =      -0.30168976 hartree =    -189.31317879 kcal/mol
 G_cavitation     =       0.00000000 hartree =       0.00000000 kcal/mol
 G_dispersion     =       0.00000000 hartree =       0.00000000 kcal/mol
 G_repulsion      =       0.00000000 hartree =       0.00000000 kcal/mol
 --------------------------------------------------
 Non-electrostatic Free Energy =       0.00000000 hartree =       0.00000000 kcal/mol
 Total                         =      -0.30168976 hartree =    -189.31317879 kcal/mol
 --------------------------------------------------
 SCF Energy (H0 + V/2)                       =    -571.72745774 
 Solute Internal Energy (H0)                 =    -571.42576798 
 Total Free Energy (H0 + V/2 + non-elec)     =    -571.72745774 hartree
                                             = -358764.39456170 kcal/mol
***********************************************************

 SCF time:  CPU 3255.90 s  wall 231.28 s
 SCF   energy in the final basis set = -571.72745774
 Total energy in the final basis set = -571.72745774
 
 --------------------------------------------------------------
 
                    Orbital Energies (a.u.)
 --------------------------------------------------------------
 
 Alpha MOs
 -- Occupied --
-19.223 -19.220 -19.137 -19.135 -19.114 -10.337 -10.328 -10.239
-10.238 -10.232  -1.216  -1.139  -1.059  -1.044  -0.966  -0.878
 -0.829  -0.750  -0.653  -0.601  -0.596  -0.557  -0.548  -0.532
 -0.522  -0.510  -0.493  -0.488  -0.479  -0.454  -0.437  -0.427
 -0.424  -0.405  -0.345  -0.338  -0.331  -0.328  -0.325  -0.296
 -- Virtual --
  0.061   0.072   0.082   0.088   0.095   0.102   0.110   0.122
  0.126   0.131   0.137   0.145   0.148   0.156   0.165   0.172
  0.176   0.182   0.185   0.189   0.195   0.213   0.215   0.221
  0.232   0.234   0.244   0.252   0.258   0.268   0.271   0.276
  0.282   0.290   0.293   0.303   0.306   0.310   0.313   0.326
  0.334   0.336   0.348   0.350   0.358   0.365   0.371   0.375
  0.381   0.383   0.389   0.391   0.397   0.402   0.405   0.411
  0.413   0.423   0.429   0.430   0.435   0.450   0.452   0.457
  0.463   0.468   0.475   0.478   0.484   0.493   0.496   0.498
  0.509   0.512   0.515   0.527   0.538   0.541   0.544   0.551
  0.555   0.561   0.566   0.576   0.578   0.588   0.592   0.598
  0.603   0.610   0.625   0.632   0.636   0.640   0.646   0.656
  0.662   0.664   0.680   0.682   0.695   0.705   0.705   0.714
  0.717   0.730   0.733   0.738   0.747   0.761   0.770   0.775
  0.779   0.788   0.794   0.797   0.803   0.807   0.811   0.819
  0.827   0.836   0.843   0.848   0.851   0.855   0.870   0.872
  0.884   0.890   0.896   0.897   0.909   0.916   0.923   0.940
  0.949   0.954   0.959   0.980   0.990   1.007   1.023   1.048
  1.051   1.059   1.065   1.074   1.085   1.098   1.108   1.111
  1.132   1.152   1.156   1.172   1.191   1.202   1.216   1.219
  1.227   1.247   1.253   1.262   1.264   1.286   1.303   1.333
  1.339   1.355   1.373   1.386   1.397   1.415   1.447   1.462
  1.464   1.469   1.484   1.514   1.532   1.564   1.577   1.594
  1.603   1.633   1.653   1.676   1.707   1.735   1.757   1.812
  1.830   1.843   1.870   1.905   1.919   1.946   1.947   1.957
  1.968   1.981   1.991   2.003   2.014   2.020   2.039   2.047
  2.050   2.066   2.076   2.087   2.120   2.134   2.168   2.180
  2.192   2.218   2.224   2.243   2.277   2.282   2.288   2.307
  2.314   2.314   2.341   2.380   2.401   2.429   2.438   2.459
  2.471   2.479   2.487   2.493   2.502   2.527   2.557   2.602
  2.617   2.625   2.655   2.666   2.692   2.698   2.723   2.731
  2.759   2.788   2.789   2.813   2.857   2.878   2.882   2.912
  2.932   2.956   2.965   2.975   2.999   3.006   3.032   3.043
  3.055   3.087   3.089   3.101   3.126   3.169   3.189   3.209
  3.232   3.245   3.269   3.292   3.311   3.322   3.334   3.356
  3.385   3.423   3.427   3.449   3.471   3.479   3.484   3.502
  3.516   3.536   3.551   3.565   3.582   3.594   3.598   3.612
  3.622   3.641   3.654   3.682   3.691   3.696   3.717   3.727
  3.747   3.764   3.770   3.796   3.803   3.811   3.834   3.863
  3.865   3.882   3.944   3.962   3.985   4.060   4.083   4.098
  4.127   4.151   4.170   4.241   4.256   4.305   4.323   4.386
  4.441   4.472   4.511   4.576   4.601   4.649   4.727   4.775
  4.782   4.804   4.834   4.858   4.864   4.906   4.958   5.012
  5.053   5.091   5.136   5.213   5.233   5.307   5.320   5.333
  5.366   5.372   5.381   5.405   5.426   5.505   5.522   5.563
  5.614   5.644   5.710   5.721   5.725   5.773   5.788   5.833
  6.003   6.016   6.047   6.105   6.229   6.241   6.255   6.305
  6.340   6.373   6.403   6.608   6.617   6.641   6.676   6.699
  6.707   6.760   6.774   6.795   6.831   6.915   6.961   6.976
  7.006   7.060   7.066   7.170   7.195   7.246   7.252   7.306
  7.366   7.387   7.411   7.416   7.529   7.608   8.334  22.731
 22.898  22.963  23.126  23.732  44.216  44.312  44.416  44.599
 44.720
 --------------------------------------------------------------
 
          Ground-State Mulliken Net Atomic Charges

     Atom                 Charge (a.u.)
  ----------------------------------------
      1 C                     1.266281
      2 O                    -0.989414
      3 C                    -1.295487
      4 H                     0.234649
      5 H                     0.257290
      6 H                     0.226687
      7 C                    -0.500950
      8 H                     0.250597
      9 H                     0.180019
     10 C                    -0.220237
     11 H                     0.201066
     12 H                     0.205544
     13 C                    -0.001582
     14 O                    -0.697036
     15 O                    -0.717234
     16 O                    -0.326004
     17 O                    -0.444151
     18 H                     0.369960
  ----------------------------------------
  Sum of atomic charges =    -2.000000

 -----------------------------------------------------------------
                    Cartesian Multipole Moments
 -----------------------------------------------------------------
    Charge (ESU x 10^10)
                -9.6064
    Dipole Moment (Debye)
         X      -8.5782      Y       8.0809      Z      -5.4930
       Tot      13.0023
    Quadrupole Moments (Debye-Ang)
        XX    -145.1188     XY      18.2914     YY     -87.2304
        XZ     -10.9880     YZ       3.1469     ZZ     -75.3737
    Octopole Moments (Debye-Ang^2)
       XXX    -236.7387    XXY     103.7925    XYY     -65.0444
       YYY     108.1054    XXZ     -51.7007    XYZ      30.4820
       YYZ     -32.1574    XZZ     -14.0665    YZZ      23.5947
       ZZZ     -54.4859
    Hexadecapole Moments (Debye-Ang^3)
      XXXX   -2674.5854   XXXY     439.4526   XXYY    -610.4324
      XYYY     369.0979   YYYY    -742.5447   XXXZ    -322.0078
      XXYZ      85.4334   XYYZ    -111.4892   YYYZ     135.2843
      XXZZ    -396.3602   XYZZ     102.6865   YYZZ    -177.6425
      XZZZ    -148.8863   YZZZ      84.3287   ZZZZ    -314.4503
 -----------------------------------------------------------------
 Calculating analytic gradient of the SCF energy
 Gradient of SCF Energy
            1           2           3           4           5           6
    1   0.0383435   0.0053076  -0.0353681   0.0759477  -0.0269408  -0.0314384
    2   0.0010853   0.0030942   0.0802398  -0.0021997  -0.0593303   0.0060141
    3  -0.0056536   0.0135982  -0.0418008   0.0086519  -0.0452550   0.0661902
            7           8           9          10          11          12
    1   0.0679534  -0.0149382  -0.0185457  -0.0886749   0.0242556   0.0155257
    2   0.0167282   0.0175338  -0.0563675  -0.0631565   0.0510232  -0.0050654
    3  -0.0369903   0.0535780  -0.0432348   0.0372415   0.0205173  -0.0556586
           13          14          15          16          17          18
    1   0.0539126  -0.0399855  -0.0266353   0.0373850  -0.0277382  -0.0083663
    2   0.0155220  -0.0459906   0.0511918   0.0039676   0.0093451  -0.0236354
    3   0.0037564   0.0153336  -0.0093324   0.0042707   0.0542147  -0.0394269
 Max gradient component =       8.867E-02
 RMS gradient           =       3.895E-02
 Computing fast CPCM-ISWIG gradient
 Updating gradient with PCM contributions...
 -- total gradient after adding PCM contribution --
---------------------------------------------------
  Atom         X              Y              Z     
---------------------------------------------------
   1       0.000065      -0.000763       0.000171
   2       0.000018       0.000170      -0.000064
   3      -0.000067       0.000263      -0.000080
   4       0.000004       0.000006       0.000005
   5      -0.000009       0.000031      -0.000021
   6       0.000002      -0.000010       0.000015
   7      -0.000040       0.000141      -0.000008
   8      -0.000005       0.000009      -0.000002
   9       0.000053      -0.000001      -0.000000
[...]
 O          0.033  0.073 -0.009    0.002 -0.010 -0.020   -0.009 -0.009  0.014
 O          0.005 -0.060  0.023   -0.007  0.009 -0.023    0.003  0.002  0.009
 O         -0.002 -0.006 -0.022    0.055  0.033 -0.019    0.451  0.059 -0.164
 O         -0.006 -0.004 -0.003   -0.066 -0.013  0.019   -0.413 -0.057  0.140
 H          0.020 -0.003  0.005    0.001 -0.033  0.018    0.266 -0.120  0.106
 TransDip   0.090 -0.149 -0.151    0.021  0.015  0.065    0.079  0.001 -0.080

 Mode:                25                     26                     27
 Frequency:      1086.82                1099.80                1162.60
 Force Cnst:      1.5687                 1.7388                 1.7717
 Red. Mass:       2.2541                 2.4399                 2.2247
 IR Active:          YES                    YES                    YES
 IR Intens:       58.220                 25.710                109.962
 Raman Active:       YES                    YES                    YES
               X      Y      Z        X      Y      Z        X      Y      Z
 C          0.020  0.171  0.029    0.033  0.041  0.088   -0.113  0.184 -0.144
 O         -0.024 -0.035  0.035    0.013 -0.009 -0.058   -0.013 -0.027  0.091
 C          0.028 -0.092 -0.071   -0.072 -0.030 -0.044    0.070 -0.042  0.015
 H          0.018 -0.021  0.225   -0.053  0.289 -0.061    0.048 -0.328  0.223
 H          0.078 -0.332  0.309    0.132 -0.217  0.150   -0.043 -0.070  0.114
 H         -0.025  0.303 -0.080    0.086  0.125  0.023   -0.036 -0.076 -0.016
 C         -0.047  0.033 -0.151   -0.006 -0.202  0.090   -0.023 -0.052  0.022
 H          0.103  0.329 -0.133    0.048 -0.064  0.099    0.563 -0.351  0.203
 H         -0.110 -0.030  0.124    0.121 -0.348  0.303    0.185 -0.171  0.057
 C          0.033 -0.019  0.150    0.006  0.213 -0.053   -0.012  0.073 -0.089
 H          0.476 -0.193 -0.018    0.121  0.209 -0.213   -0.106  0.112 -0.052
 H         -0.158 -0.239  0.118   -0.452  0.291 -0.183    0.340 -0.069  0.017
 C         -0.013 -0.020 -0.108    0.006 -0.021 -0.066    0.003  0.016  0.065
 O         -0.013 -0.013  0.026   -0.020 -0.005  0.014   -0.006 -0.005 -0.010
 O         -0.002  0.009  0.019    0.024 -0.024  0.016    0.009 -0.014 -0.009
 O         -0.005 -0.006  0.000    0.026  0.020 -0.003   -0.003 -0.031  0.002
 O          0.004 -0.000  0.000   -0.017  0.001  0.013    0.007 -0.003 -0.007
 H         -0.000  0.025 -0.019   -0.029 -0.031  0.007    0.053  0.086 -0.030
 TransDip   0.112  0.217 -0.016    0.019  0.097  0.129    0.013  0.243 -0.231

 Mode:                28                     29                     30
 Frequency:      1194.33                1269.19                1301.69
 Force Cnst:      1.1848                 1.5262                 2.5789
 Red. Mass:       1.4097                 1.6080                 2.5833
 IR Active:          YES                    YES                    YES
 IR Intens:       36.863                  1.557                255.433
 Raman Active:       YES                    YES                    YES
               X      Y      Z        X      Y      Z        X      Y      Z
 C         -0.086 -0.033 -0.099    0.054 -0.091  0.056    0.267  0.043 -0.154
 O          0.014  0.006  0.024   -0.004  0.010 -0.019   -0.056 -0.001  0.099
 C          0.042  0.018  0.033   -0.011  0.010 -0.002   -0.083 -0.003  0.023
 H          0.030 -0.192  0.019   -0.006  0.095 -0.075   -0.051  0.126 -0.148
 H         -0.072  0.108 -0.059   -0.014  0.063 -0.079    0.225 -0.061 -0.084
 H         -0.065 -0.114 -0.012   -0.023  0.081 -0.014    0.196 -0.058  0.128
 C          0.012  0.063  0.058   -0.044  0.040 -0.049   -0.055  0.017  0.069
 H         -0.263  0.044 -0.022    0.134 -0.046  0.013    0.070 -0.232  0.129
 H          0.543 -0.203  0.032    0.344 -0.252  0.169   -0.319  0.248 -0.185
 C          0.013  0.012  0.018   -0.120  0.100 -0.027   -0.036  0.001 -0.056
 H          0.433 -0.243  0.123    0.433 -0.218  0.070    0.382 -0.297  0.183
 H         -0.383  0.242 -0.109    0.536 -0.344  0.190   -0.103  0.217 -0.102
 C         -0.007 -0.010 -0.068   -0.031  0.029  0.022    0.002  0.012 -0.014
 O         -0.010 -0.006  0.013    0.007  0.012 -0.007   -0.007 -0.009  0.004
 O          0.005 -0.006  0.013    0.029 -0.057  0.007    0.010 -0.017  0.004
 O         -0.010 -0.009  0.002   -0.003  0.009 -0.002   -0.047  0.002  0.034
 O          0.004 -0.002 -0.007   -0.001  0.001  0.002   -0.017 -0.027 -0.036
 H          0.017  0.031 -0.001   -0.042 -0.031  0.012    0.306  0.034 -0.015
 TransDip  -0.081  0.005 -0.177    0.013  0.020  0.032    0.402  0.167 -0.269

 Mode:                31                     32                     33
 Frequency:      1315.18                1378.21                1391.99
 Force Cnst:      1.4063                 1.5125                 2.3265
 Red. Mass:       1.3800                 1.3515                 2.0379
 IR Active:          YES                    YES                    YES
 IR Intens:      111.423                 25.168                129.880
 Raman Active:       YES                    YES                    YES
               X      Y      Z        X      Y      Z        X      Y      Z
 C         -0.077 -0.007  0.111    0.009  0.021 -0.019   -0.081  0.076 -0.051
 O          0.016 -0.003 -0.050   -0.003 -0.001  0.005    0.009 -0.006  0.011
 C          0.025 -0.006 -0.021    0.044 -0.128  0.071    0.033 -0.062  0.034
 H          0.013  0.018  0.092    0.077  0.487 -0.222    0.045  0.193 -0.070
 H         -0.099  0.015  0.036   -0.272  0.296 -0.403   -0.172  0.097 -0.092
 H         -0.046  0.072 -0.047   -0.226  0.482 -0.052   -0.139  0.121 -0.036
 C          0.018  0.045  0.022   -0.049  0.020 -0.008    0.177 -0.099  0.052
 H          0.441 -0.393  0.180    0.144 -0.053  0.051   -0.525  0.212 -0.166
 H         -0.277  0.283 -0.185    0.115 -0.067 -0.001   -0.429  0.248 -0.041
 C         -0.023 -0.030 -0.050    0.031 -0.014  0.004   -0.087  0.041 -0.014
 H          0.317 -0.298  0.200   -0.096  0.049  0.006    0.281 -0.114 -0.082
 H         -0.166  0.244 -0.116   -0.093  0.022 -0.030    0.280  0.012  0.076
 C         -0.023  0.010 -0.020    0.035 -0.012  0.000   -0.090  0.036 -0.001
 O          0.006  0.007  0.000   -0.013 -0.014  0.004    0.031  0.032 -0.010
 O          0.009 -0.020  0.007   -0.012  0.024 -0.005    0.032 -0.063  0.013
 O          0.019 -0.000 -0.018   -0.002  0.000  0.003    0.001 -0.007  0.001
 O          0.011  0.014  0.019   -0.003 -0.002 -0.002    0.001 -0.000 -0.003
 H         -0.183 -0.034  0.008    0.032  0.005 -0.002    0.057  0.033 -0.013
 TransDip  -0.278  0.027  0.191    0.086  0.106 -0.084   -0.242  0.257 -0.094

 Mode:                34                     35                     36
 Frequency:      1437.00                1455.43                1467.07
 Force Cnst:      6.9734                 1.4457                 1.3521
 Red. Mass:       5.7317                 1.1583                 1.0663
 IR Active:          YES                    YES                    YES
 IR Intens:      326.162                  8.919                 25.088
 Raman Active:       YES                    YES                    YES
               X      Y      Z        X      Y      Z        X      Y      Z
 C         -0.038  0.001  0.013   -0.006  0.003 -0.002   -0.019  0.017  0.003
 O          0.008 -0.002 -0.007    0.001  0.000  0.000   -0.002 -0.006 -0.001
 C          0.018  0.010 -0.010    0.007  0.002 -0.002   -0.022  0.006  0.051
 H          0.010  0.015  0.033    0.008  0.054 -0.018   -0.003 -0.436 -0.446
 H         -0.104 -0.020  0.121   -0.073 -0.013  0.074    0.577 -0.090 -0.207
 H         -0.058 -0.119 -0.038   -0.057 -0.076 -0.026   -0.193  0.343 -0.038
 C          0.092 -0.014  0.008    0.017 -0.048  0.034    0.013 -0.008  0.003
 H         -0.210 -0.087 -0.067    0.091  0.330  0.009   -0.004  0.009 -0.004
 H         -0.212  0.107  0.106    0.047  0.090 -0.333   -0.036  0.026 -0.014
 C         -0.213  0.038 -0.005   -0.006  0.068 -0.050   -0.007  0.006 -0.006
 H          0.381 -0.180 -0.253   -0.117 -0.122  0.586    0.003 -0.019  0.046
 H          0.368  0.221  0.117   -0.240 -0.542 -0.026   -0.011 -0.038 -0.001
 C          0.469 -0.068  0.001    0.038 -0.018 -0.001    0.011 -0.002 -0.000
 O         -0.166 -0.166  0.045   -0.009 -0.008  0.003   -0.004 -0.003  0.001
 O         -0.104  0.196 -0.043   -0.008  0.019 -0.005   -0.003  0.005 -0.001
 O          0.002 -0.002 -0.001    0.000 -0.000 -0.000    0.009 -0.004 -0.012
 O          0.003  0.002  0.001    0.001  0.000  0.000    0.011  0.010  0.014
 H         -0.004  0.001 -0.000   -0.003 -0.001  0.000   -0.236 -0.058  0.028
 TransDip   0.569 -0.103  0.004    0.040 -0.081  0.033   -0.081 -0.091 -0.104

 Mode:                37                     38                     39
 Frequency:      1469.27                1472.14                1507.76
 Force Cnst:      1.3739                 1.3781                 1.6487
 Red. Mass:       1.0802                 1.0793                 1.2309
 IR Active:          YES                    YES                    YES
 IR Intens:       10.189                 11.256                288.166
 Raman Active:       YES                    YES                    YES
               X      Y      Z        X      Y      Z        X      Y      Z
 C         -0.026 -0.000 -0.010    0.016  0.012  0.004   -0.063 -0.016  0.075
 O          0.003 -0.000  0.001   -0.001  0.000  0.001    0.027  0.014 -0.022
 C         -0.031 -0.021 -0.015    0.029  0.014  0.014   -0.003  0.003 -0.002
 H         -0.048 -0.074  0.383    0.043  0.061 -0.315   -0.008 -0.152 -0.038
 H          0.096  0.123 -0.320   -0.090 -0.101  0.269    0.160 -0.016 -0.078
 H          0.453  0.246  0.186   -0.384 -0.201 -0.158   -0.006  0.155 -0.004
 C          0.040  0.025 -0.021    0.022  0.041 -0.034    0.008 -0.002 -0.004
 H         -0.216 -0.302 -0.051   -0.200 -0.439 -0.035    0.093  0.032  0.018
 H         -0.131 -0.040  0.342   -0.169 -0.064  0.450    0.024  0.017 -0.061
 C          0.011  0.024 -0.017    0.025  0.013 -0.014   -0.004 -0.001 -0.001
 H         -0.070 -0.038  0.246   -0.081 -0.019  0.209    0.011 -0.010 -0.001
 H         -0.116 -0.232 -0.014   -0.124 -0.183 -0.025    0.002  0.010  0.001
 C          0.011 -0.013  0.000   -0.006 -0.009  0.000    0.001 -0.003 -0.000
 O         -0.002 -0.000  0.000    0.003  0.004 -0.001    0.000  0.001 -0.000
 O         -0.005  0.010 -0.002   -0.001  0.004 -0.001   -0.001  0.002 -0.000
 O          0.002 -0.002 -0.002   -0.005  0.001  0.006   -0.022  0.011  0.037
 O          0.002  0.001  0.002   -0.006 -0.005 -0.007   -0.033 -0.031 -0.047
 H         -0.026  0.001  0.002    0.125  0.030 -0.017    0.897  0.255 -0.133
 TransDip  -0.047 -0.072  0.056   -0.075 -0.058  0.051    0.383  0.240  0.302

 Mode:                40                     41                     42
 Frequency:      1574.55                2957.92                3039.05
 Force Cnst:     14.3373                 5.4912                 5.6808
 Red. Mass:       9.8153                 1.0652                 1.0440
 IR Active:          YES                    YES                    YES
 IR Intens:     1252.779                698.731                 10.402
 Raman Active:       YES                    YES                    YES
               X      Y      Z        X      Y      Z        X      Y      Z
 C         -0.009 -0.007  0.007   -0.002  0.003  0.008    0.002 -0.002  0.002
 O          0.001  0.001 -0.002    0.006  0.003 -0.002   -0.000  0.000 -0.000
 C          0.002  0.001 -0.001   -0.000 -0.001 -0.002   -0.007  0.033 -0.024
 H         -0.000 -0.016  0.009    0.006  0.001 -0.000    0.437 -0.009  0.020
 H          0.005  0.003 -0.006    0.003  0.004  0.005   -0.157 -0.379 -0.237
 H          0.005  0.008  0.000   -0.008  0.003  0.012   -0.206  0.009  0.487
 C          0.012  0.008 -0.015    0.001 -0.001 -0.003   -0.019 -0.012  0.032
 H         -0.016 -0.014 -0.027    0.002  0.001  0.017    0.125 -0.051 -0.471
 H          0.008 -0.004  0.046   -0.005  0.001 -0.000    0.099  0.198  0.088
 C          0.025 -0.061  0.012   -0.000 -0.000  0.000    0.001  0.000 -0.005
 H         -0.421  0.143  0.137    0.002  0.004  0.002   -0.002 -0.008 -0.004
 H         -0.155 -0.114 -0.024    0.000 -0.000 -0.004   -0.016  0.008  0.064
 C          0.138  0.722 -0.175   -0.000 -0.000 -0.000   -0.000 -0.000  0.000
 O         -0.165 -0.248  0.066    0.000  0.000 -0.000    0.000  0.000 -0.000
 O          0.074 -0.251  0.056    0.000 -0.000  0.000    0.000 -0.000  0.000
 O         -0.001  0.000  0.001    0.002 -0.003 -0.005   -0.000  0.000  0.000
 O         -0.001 -0.001 -0.001   -0.005 -0.024 -0.055   -0.000 -0.000 -0.000
 H          0.029  0.008 -0.004   -0.034  0.354  0.932    0.000  0.001  0.002
 TransDip   0.159  1.095 -0.248    0.306  0.442  0.654   -0.066  0.077  0.019

 Mode:                43                     44                     45
 Frequency:      3043.06                3062.69                3091.79
 Force Cnst:      5.7642                 5.8818                 6.1663
 Red. Mass:       1.0565                 1.0643                 1.0948
 IR Active:          YES                    YES                    YES
 IR Intens:       79.422                 40.208                 14.260
 Raman Active:       YES                    YES                    YES
               X      Y      Z        X      Y      Z        X      Y      Z
 C         -0.001 -0.001 -0.000    0.001  0.001 -0.001    0.000 -0.001 -0.001
 O          0.000  0.000 -0.000    0.000 -0.000  0.000   -0.000  0.000  0.000
 C         -0.006  0.023 -0.014   -0.001 -0.001  0.001    0.000  0.006  0.012
 H          0.305 -0.008  0.016    0.004  0.000  0.000   -0.014  0.003  0.002
 H         -0.110 -0.265 -0.165    0.003  0.008  0.005   -0.031 -0.075 -0.044
 H         -0.130  0.005  0.308    0.008 -0.000 -0.019    0.041  0.000 -0.098
 C          0.028  0.016 -0.051    0.006  0.008  0.000   -0.022 -0.061 -0.051
 H         -0.192  0.077  0.728   -0.009  0.006  0.040   -0.099  0.025  0.339
 H         -0.133 -0.269 -0.119   -0.057 -0.106 -0.043    0.368  0.705  0.279
 C         -0.001 -0.001  0.005    0.033  0.022 -0.059    0.012  0.026  0.014
 H          0.003  0.007  0.003   -0.181 -0.363 -0.147   -0.160 -0.305 -0.112
 H          0.016 -0.008 -0.064   -0.213  0.107  0.856    0.022 -0.004 -0.062
 C          0.001  0.001 -0.000   -0.001  0.001 -0.001   -0.001  0.000  0.000
 O         -0.000 -0.000  0.000    0.000 -0.000  0.000   -0.000  0.000 -0.000
 O         -0.000  0.000 -0.000    0.000 -0.000  0.000    0.000 -0.000 -0.000
 O         -0.000  0.000  0.000    0.000 -0.000  0.000    0.000  0.000  0.000
 O          0.000  0.000  0.001   -0.000 -0.000 -0.000    0.000  0.000  0.000
 H         -0.001 -0.008 -0.016   -0.000  0.002  0.004   -0.001 -0.001 -0.002
 TransDip   0.057  0.158 -0.231    0.025  0.139 -0.146   -0.008 -0.088 -0.082

 Mode:                46                     47                     48
 Frequency:      3114.38                3117.36                3124.06
 Force Cnst:      6.2884                 6.3055                 6.3414
 Red. Mass:       1.1004                 1.1013                 1.1028
 IR Active:          YES                    YES                    YES
 IR Intens:       12.460                136.446                 62.120
 Raman Active:       YES                    YES                    YES
               X      Y      Z        X      Y      Z        X      Y      Z
 C         -0.000  0.000  0.001    0.000 -0.001 -0.002   -0.002 -0.000 -0.000
 O          0.000 -0.000 -0.000   -0.000  0.000  0.000    0.000 -0.000 -0.000
 C         -0.005  0.030  0.052    0.012 -0.034 -0.059   -0.089 -0.026  0.001
 H          0.035  0.005  0.012   -0.106 -0.002 -0.017    0.836 -0.036  0.049
 H         -0.153 -0.370 -0.218    0.170  0.409  0.240    0.131  0.358  0.220
 H          0.181  0.002 -0.425   -0.208 -0.002  0.491    0.105 -0.007 -0.286
 C         -0.004 -0.012 -0.012   -0.007 -0.021 -0.021   -0.001 -0.002 -0.002
 H         -0.020  0.006  0.078   -0.044  0.012  0.157   -0.001  0.000  0.006
 H          0.069  0.138  0.054    0.125  0.243  0.095    0.017  0.030  0.012
 C         -0.017 -0.049 -0.042   -0.013 -0.038 -0.035   -0.001 -0.002 -0.001
 H          0.287  0.556  0.201    0.220  0.426  0.153    0.015  0.029  0.010
 H         -0.085  0.029  0.310   -0.072  0.025  0.268   -0.002  0.000  0.005
 C          0.001 -0.001 -0.000    0.000 -0.001 -0.000    0.000 -0.000 -0.000
 O         -0.000  0.000 -0.000   -0.000  0.000 -0.000   -0.000  0.000 -0.000
 O          0.000  0.000  0.000    0.000  0.000  0.000   -0.000  0.000 -0.000
 O         -0.000  0.000 -0.000   -0.000  0.000  0.000    0.000  0.000  0.000
 O         -0.000 -0.000 -0.000    0.000  0.000  0.001    0.000 -0.000  0.000
 H          0.000  0.003  0.006   -0.001 -0.007 -0.015    0.000 -0.000 -0.004
 TransDip  -0.066 -0.074  0.055   -0.023 -0.239 -0.287   -0.242 -0.072  0.005

 STANDARD THERMODYNAMIC QUANTITIES AT   298.15 K  AND     1.00 ATM

   This Molecule has  0 Imaginary Frequencies
   Zero point vibrational energy:       83.795 kcal/mol

   Atom    1 Element C  Has Mass   12.00000
   Atom    2 Element O  Has Mass   15.99491
   Atom    3 Element C  Has Mass   12.00000
   Atom    4 Element H  Has Mass    1.00783
   Atom    5 Element H  Has Mass    1.00783
   Atom    6 Element H  Has Mass    1.00783
   Atom    7 Element C  Has Mass   12.00000
   Atom    8 Element H  Has Mass    1.00783
   Atom    9 Element H  Has Mass    1.00783
   Atom   10 Element C  Has Mass   12.00000
   Atom   11 Element H  Has Mass    1.00783
   Atom   12 Element H  Has Mass    1.00783
   Atom   13 Element C  Has Mass   12.00000
   Atom   14 Element O  Has Mass   15.99491
   Atom   15 Element O  Has Mass   15.99491
   Atom   16 Element O  Has Mass   15.99491
   Atom   17 Element O  Has Mass   15.99491
   Atom   18 Element H  Has Mass    1.00783
   Molecular Mass:   148.037190 amu
   Principal axes and moments of inertia in amu*Bohr^2:
                             1           2           3
    Eigenvalues --      673.84747  2792.46628  3099.84204
          X               0.94717     0.29419    -0.12775
          Y              -0.26711     0.94403     0.19354
          Z               0.17754    -0.14919     0.97274
   Rotational Symmetry Number is   1
   The Molecule is an Asymmetric Top
   Translational Enthalpy:        0.889 kcal/mol
   Rotational Enthalpy:           0.889 kcal/mol
   Vibrational Enthalpy:         88.606 kcal/mol
   gas constant (RT):             0.592 kcal/mol
   Translational Entropy:        40.887  cal/mol.K
   Rotational Entropy:           30.146  cal/mol.K
   Vibrational Entropy:          31.583  cal/mol.K

   Total Enthalpy:               90.975 kcal/mol
   Total Entropy:               102.616  cal/mol.K
Archival summary:
1\1\c5-89\FREQ\ProcedureUnspecified\BasisUnspecified\558(2-,1)\lmgong\FriMar2021:30:012020FriMar2021:30:012020\0\\#,FREQ,ProcedureUnspecified,BasisUnspecified,\\-2,1\O\O,1,1.43223\H,2,1.01413,1,95.3535\C,1,1.52315,2,105.199,3,-23.1287,0\O,4,1.33875,1,108.248,2,32.5047,0\C,4,1.5359,1,105.647,2,-88.7689,0\H,6,1.09429,4,109.331,1,61.2382,0\H,6,1.09497,4,109.475,1,179.964,0\H,6,1.09519,4,111.807,1,-59.4888,0\C,4,1.53594,1,102.436,2,155.708,0\H,10,1.09551,4,107.24,1,167.531,0\H,10,1.09816,4,108.597,1,52.9996,0\C,10,1.52159,4,114.678,1,-70.2967,0\H,13,1.09354,10,110.679,4,57.8807,0\H,13,1.09693,10,109.62,4,-58.8433,0\C,13,1.53591,10,115.136,4,-178.979,0\O,16,1.25897,13,118.498,10,23.4324,0\O,16,1.26266,13,116.516,10,-157.987,0\\\@

 Total job time:  34556.67s(wall), 485389.68s(cpu) 
 Fri Mar 20 21:30:01 2020

        *************************************************************
        *                                                           *
        *  Thank you very much for using Q-Chem.  Have a nice day.  *
        *                                                           *
        *************************************************************


