
Running Job 1 of 1 qc-3-tshess.in
qchem qc-3-tshess.in_8988.0 ./qc-3-tshess.d/ 1
/home/leeping/opt/qchem/5.0.2-openmp/exe/qcprog.exe_s qc-3-tshess.in_8988.0 ./qc-3-tshess.d/
Check license passed

                  Welcome to Q-Chem
     A Quantum Leap Into The Future Of Chemistry


 Q-Chem 5.0, Q-Chem, Inc., Pleasanton, CA (2017)

 Yihan Shao,  Zhengting Gan,  E. Epifanovsky,  A. T. B. Gilbert,  M. Wormit,  
 J. Kussmann,  A. W. Lange,  A. Behn,  Jia Deng,  Xintian Feng,  D. Ghosh,  
 M. Goldey,  P. R. Horn,  L. D. Jacobson,  I. Kaliman,  T. Kus,  A. Landau,  
 Jie Liu,  E. I. Proynov,  R. M. Richard,  R. P. Steele,  E. J. Sundstrom,  
 H. L. Woodcock III,  P. M. Zimmerman,  D. Zuev,  B. Albrecht,  E. Alguire,  
 S. A. Baeppler,  D. Barton,  Z. Benda,  Y. A. Bernard,  E. J. Berquist,  
 K. B. Bravaya,  H. Burton,  D. Casanova,  Chun-Min Chang,  Yunqing Chen,  
 A. Chien,  K. D. Closser,  M. P. Coons,  S. Dasgupta,  A. L. Dempwolff,  
 M. Diedenhofen,  Hainam Do,  R. G. Edgar,  Po-Tung Fang,  S. Fatehi,  
 Qingguo Feng,  J. Fosso-Tande,  Qinghui Ge,  A. Ghysels,  G. Gidofalvi,  
 J. Gomes,  J. Gonthier,  A. Gunina,  M. W. D. Hanson-Heine,  
 P. H. P. Harbach,  A. W. Hauser,  J. E. Herr,  E. G. Hohenstein,  
 Z. C. Holden,  Kerwin Hui,  T.-C. Jagau,  Hyunjun Ji,  B. Kaduk,  
 K. Khistyaev,  Jaehoon Kim,  P. Klunzinger,  K. Koh,  D. Kosenkov,  
 L. Koulias,  T. Kowalczyk,  C. M. Krauter,  A. Kunitsa,  Ka Un Lao,  
 A. Laurent,  K. V. Lawler,  Joonho Lee,  D. Lefrancois,  S. Lehtola,  
 D. S. Levine,  Yi-Pei Li,  You-Sheng Lin,  Fenglai Liu,  E. Livshits,  
 A. Luenser,  P. Manohar,  E. Mansoor,  S. F. Manzer,  Shan-Ping Mao,  
 Yuezhi Mao,  N. Mardirossian,  A. V. Marenich,  T. Markovich,  
 L. A. Martinez-Martinez,  S. A. Maurer,  N. J. Mayhall,  S. C. McKenzie,  
 J.-M. Mewes,  A. F. Morrison,  J. W. Mullinax,  K. Nanda,  
 T. S. Nguyen-Beck,  R. Olivares-Amaya,  J. A. Parkhill,  T. M. Perrine,  
 F. Plasser,  S. Prager,  A. Prociuk,  E. Ramos,  D. R. Rehn,  F. Rob,  
 M. Schneider,  N. Sergueev,  S. M. Sharada,  S. Sharma,  D. W. Small,  
 T. Stauch,  T. Stein,  Yu-Chuan Su,  A. J. W. Thom,  A. Tkatchenko,  
 T. Tsuchimochi,  L. Vogt,  O. Vydrov,  M. A. Watson,  J. Wenzel,  
 M. de Wergifosse,  T. A. Wesolowski,  A. White,  J. Witte,  A. Yamada,  
 Jun Yang,  K. Yao,  S. Yeganeh,  S. R. Yost,  Zhi-Qiang You,  A. Zech,  
 Igor Ying Zhang,  Xing Zhang,  Yan Zhao,  Ying Zhu,  B. R. Brooks,  
 G. K. L. Chan,  C. J. Cramer,  M. S. Gordon,  W. J. Hehre,  A. Klamt,  
 M. W. Schmidt,  C. D. Sherrill,  D. G. Truhlar,  A. Aspuru-Guzik,  R. Baer,  
 A. T. Bell,  N. A. Besley,  Jeng-Da Chai,  R. A. DiStasio Jr.,  A. Dreuw,  
 B. D. Dunietz,  T. R. Furlani,  Chao-Ping Hsu,  Yousung Jung,  Jing Kong,  
 D. S. Lambrecht,  WanZhen Liang,  C. Ochsenfeld,  V. A. Rassolov,  
 L. V. Slipchenko,  J. E. Subotnik,  T. Van Voorhis,  J. M. Herbert,  
 A. I. Krylov,  P. M. W. Gill,  M. Head-Gordon

 Contributors to earlier versions of Q-Chem not listed above: 
 R. D. Adamson,  B. Austin,  J. Baker,  G. J. O. Beran,  K. Brandhorst,  
 S. T. Brown,  E. F. C. Byrd,  A. K. Chakraborty,  C.-L. Cheng,  
 Siu Hung Chien,  D. M. Chipman,  D. L. Crittenden,  H. Dachsel,  
 R. J. Doerksen,  A. D. Dutoi,  L. Fusti-Molnar,  W. A. Goddard III,  
 A. Golubeva-Zadorozhnaya,  S. R. Gwaltney,  G. Hawkins,  A. Heyden,  
 S. Hirata,  G. Kedziora,  F. J. Keil,  C. Kelley,  Jihan Kim,  R. A. King,  
 R. Z. Khaliullin,  P. P. Korambath,  W. Kurlancheek,  A. M. Lee,  M. S. Lee,  
 S. V. Levchenko,  Ching Yeh Lin,  D. Liotard,  R. C. Lochan,  I. Lotan,  
 P. E. Maslen,  N. Nair,  D. P. O'Neill,  D. Neuhauser,  E. Neuscamman,  
 C. M. Oana,  R. Olson,  B. Peters,  R. Peverati,  P. A. Pieniazek,  
 Y. M. Rhee,  J. Ritchie,  M. A. Rohrdanz,  E. Rosta,  N. J. Russ,  
 H. F. Schaefer III,  N. E. Schultz,  N. Shenvi,  A. C. Simmonett,  A. Sodt,  
 D. Stuck,  K. S. Thanthiriwatte,  V. Vanovschi,  Tao Wang,  A. Warshel,  
 C. F. Williams,  Q. Wu,  X. Xu,  W. Zhang

 Please cite Q-Chem as follows:
 Y. Shao et al., Mol. Phys. 113, 184-215 (2015)
 DOI: 10.1080/00268976.2014.952696

 Q-Chem 5.0.2 for Intel X86 EM64T Linux

 Parts of Q-Chem use Armadillo 5.200.1 (Boston Tea Smuggler).
 http://arma.sourceforge.net/

 Q-Chem begins on Wed May  8 11:54:55 2019  

Host: 
0

     Scratch files written to ./qc-3-tshess.d//
 Dec517 15110_ 26548  26544 5633   
Processing $rem in /home/leeping/opt/qchem/5.0.2-openmp/config/preferences.
 MEM_STATIC 2000
 MEM_TOTAL  8000
 SYMMETRY   OFF
 SYM_IGNORE TRUE 
Symmetry turned off for PCM/SM12/SMD calculation

Checking the input file for inconsistencies... 	...done.

--------------------------------------------------------------
User input:
--------------------------------------------------------------
$molecule
-2 1
C       -0.9680515023    0.6374150962    0.2381687418
O       -1.0072180789    0.8985671626    1.4831833636
C       -1.2558579135    1.7755336112   -0.7369651314
H       -2.3148161009    2.0365255954   -0.6461020192
H       -0.6587679890    2.6516732662   -0.4734373278
H       -1.0515134313    1.4895612002   -1.7714523184
C        0.6268303988   -0.0545993738   -0.2988625752
H        0.6522020555   -0.3315743241   -1.3511450137
H        1.1063782224    0.9183230915   -0.1681607080
C        1.2105432440   -1.0798011896    0.6350525946
H        0.8846774738   -2.0893318397    0.3768778523
H        0.8529434956   -0.8728195184    1.6519655149
C        2.7509519688   -1.0575927258    0.7055281753
O        3.3365407893    0.0340241719    0.4887658620
O        3.3113823688   -2.1423938689    1.0119436533
O       -1.3057119186   -0.5863466608   -0.2245932127
O       -3.1639433779   -0.8047104171   -0.0961548324
H       -3.1748697049   -0.9593432768    0.8555173813
$end

$rem
jobtype               freq
method                wb97x-v
basis                 def2-tzvpd
symmetry              off
sym_ignore            true
unrestricted          false
incdft                false
incfock               0
!scf_algorithm        diis_gdm
scf_convergence       8
thresh                14
!purecart             112
max_scf_cycles        1000
geom_opt_max_cycles   500
geom_opt_dmax         100
geom_opt_tol_gradient 10
solvent_method        pcm
ideriv                1
rpath_tol_displacement 1000
rpath_max_cycles      100
rpath_direction       1
!scf_guess            read
scf_guess             read
$end

$pcm
theory              cosmo
method              iswig
Radii               bondi
vdwScale            1.20
hpoints             110
heavypoints         110
$end

$solvent
dielectric 78.400000
$end

--------------------------------------------------------------
 ----------------------------------------------------------------
             Standard Nuclear Orientation (Angstroms)
    I     Atom           X                Y                Z
 ----------------------------------------------------------------
    1      C      -0.9680515023     0.6374150962     0.2381687418
    2      O      -1.0072180789     0.8985671626     1.4831833636
    3      C      -1.2558579135     1.7755336112    -0.7369651314
    4      H      -2.3148161009     2.0365255954    -0.6461020192
    5      H      -0.6587679890     2.6516732662    -0.4734373278
    6      H      -1.0515134313     1.4895612002    -1.7714523184
    7      C       0.6268303988    -0.0545993738    -0.2988625752
    8      H       0.6522020555    -0.3315743241    -1.3511450137
    9      H       1.1063782224     0.9183230915    -0.1681607080
   10      C       1.2105432440    -1.0798011896     0.6350525946
   11      H       0.8846774738    -2.0893318397     0.3768778523
   12      H       0.8529434956    -0.8728195184     1.6519655149
   13      C       2.7509519688    -1.0575927258     0.7055281753
   14      O       3.3365407893     0.0340241719     0.4887658620
   15      O       3.3113823688    -2.1423938689     1.0119436533
   16      O      -1.3057119186    -0.5863466608    -0.2245932127
   17      O      -3.1639433779    -0.8047104171    -0.0961548324
   18      H      -3.1748697049    -0.9593432768     0.8555173813
 ----------------------------------------------------------------
 Nuclear Repulsion Energy =   535.3208450576 hartrees
 There are       40 alpha and       40 beta electrons
 Requested basis set is def2-TZVPD
 There are 175 shells and 457 basis functions

 Total QAlloc Memory Limit   8000 MB
 Mega-Array Size      1956 MB
 MEM_STATIC part      2000 MB
 Discretize the solute cavity surface with Lebedev spheres
	Using 110 Lebedev grid points for each H atom
	Using 110 Lebedev grid points for other atoms
	Atomic van der Waals radii will be scaled by 1.20
 Remove points where switching function is < 1.0e-08
 Keep 1081 surface tesserae and discard 899 interior tesserae
 Molecular Surface Area = 192.745 Angst**2
 A cutoff of  1.0D-14 yielded  13982 shell pairs
 There are     95456 function pairs (    121408 Cartesian)
 
 -------------------------------------------------------
 OpenMP Integral Computing Module                       
 Release: version 1.0, May 2013, Q-Chem Inc. Pittsburgh 
 -------------------------------------------------------
 Integral Job Info:
 Integral job number is                      11
 Integral operator is                         1
 short-range coefficients              16700000
 long-range coefficients              100000000
 Omega coefficients                         300
 if combine SR and LR in K                    1
 Integral screening is                        0
 Integral computing path is                   2
 max size of driver memory is            800000
 size of driver memory is                776718
 size of scratch memory is              4473992
 max col of scratch BK array              10000
 max len of scratch array in speh3          662
 max len of scratch index in speh4           32
 max int batch size is                      520
 min int batch size is                       52
 fixed nKL is                                52
 max L of basis functions is                  3
 order of int derivative is                   0
 number of shells is                        175
 number of basis is                         517
 number of cartesian basis is               517
 number of contracted shell pairs         13982
 number of primitive shell pairs          28303
 maxK2 (contraction) of shell pair           36
 max number of K2 of shell pair               1
 max number of CS2 of shell pair           2307
 max number of PS2 of shell pair           3216
 mem total for path MDJ                  776120
 -------------------------------------------------------
 Smallest overlap matrix eigenvalue = 3.60E-06
 Guess MOs from SCF MO coefficient file
 Reading MOs from coefficient file
 Reading MOs from coefficient file
 Long-range K will be added via erf
 Coulomb attenuation parameter = 0.3 bohr**(-1)
 A restricted hybrid HF-DFT SCF calculation will be
 performed using Pulay DIIS extrapolation
 Polarizable Continuum solvation model will be applied
 Exchange:     0.1670 Hartree-Fock + 1.0000 wB97X-V + LR-HF
 Correlation:  1.0000 wB97X-V
 Using SG-2 standard quadrature grid
 Nonlocal Correlation:  VV10 with C = 0.0100 and b = 6.00
 Grid used for NLC:  SG-1 standard quadrature
 SCF converges when DIIS error is below 1.0E-08
Using Q-Chem read-in guess as SCF_GUESS READ specified.

 using 8 threads for integral computing
 -------------------------------------------------------
 OpenMP Integral computing Module                
 Release: version 1.0, May 2013, Q-Chem Inc. Pittsburgh 
 -------------------------------------------------------
 using 8 threads for integral computing
 -------------------------------------------------------
 OpenMP Integral computing Module                
 Release: version 1.0, May 2013, Q-Chem Inc. Pittsburgh 
 -------------------------------------------------------
 -------------------------------------------------------
 OpenMP BLAS3 based DFT computing Module                
 Release: version 1.0, May 2013, Q-Chem Inc. Pittsburgh 
 -------------------------------------------------------
 -------------------------------------------------------
 OpenMP BLAS3 based DFT computing Module                
 Release: version 1.0, May 2013, Q-Chem Inc. Pittsburgh 
 -------------------------------------------------------
 -------------------------------------------------------
 OpenMP BLAS3 based DFT computing Module                
 Release: version 1.0, May 2013, Q-Chem Inc. Pittsburgh 
 -------------------------------------------------------
 ---------------------------------------
  Cycle       Energy         DIIS Error
 ---------------------------------------
    1    -571.3636335604      3.29E-04
    2    -571.6613515969      3.83E-04
    3    -571.6664208930      1.76E-04
    4    -571.6672398778      1.24E-04
    5    -571.6676867446      9.76E-05
    6    -571.6679547996      7.82E-05
    7    -571.6681365198      6.22E-05
    8    -571.6682690417      4.71E-05
    9    -571.6683436664      3.60E-05
   10    -571.6683796232      2.92E-05
   11    -571.6684095677      2.19E-05
   12    -571.6684281347      1.59E-05
   13    -571.6684392410      1.07E-05
   14    -571.6684435625      7.80E-06
   15    -571.6684451600      6.40E-06
   16    -571.6684462153      5.29E-06
   17    -571.6684484651      1.49E-08
   18    -571.6684484651      6.27E-09 Convergence criterion met
 ---------------------------------------

************** Final PCM Free Energy Summary **************
 G_electrostatic  =      -0.30481492 hartree =    -191.27424778 kcal/mol
 G_cavitation     =       0.00000000 hartree =       0.00000000 kcal/mol
 G_dispersion     =       0.00000000 hartree =       0.00000000 kcal/mol
 G_repulsion      =       0.00000000 hartree =       0.00000000 kcal/mol
 --------------------------------------------------
 Non-electrostatic Free Energy =       0.00000000 hartree =       0.00000000 kcal/mol
 Total                         =      -0.30481492 hartree =    -191.27424778 kcal/mol
 --------------------------------------------------
 SCF Energy (H0 + V/2)                       =    -571.66844847 
 Solute Internal Energy (H0)                 =    -571.36363355 
 Total Free Energy (H0 + V/2 + non-elec)     =    -571.66844847 hartree
                                             = -358727.36568375 kcal/mol
***********************************************************

 SCF time:  CPU 4162.20 s  wall 651.58 s
 SCF   energy in the final basis set = -571.66844847
 Total energy in the final basis set = -571.66844847
 
 --------------------------------------------------------------
 
                    Orbital Energies (a.u.)
 --------------------------------------------------------------
 
 Alpha MOs
 -- Occupied --
-19.243 -19.148 -19.141 -19.140 -19.130 -10.358 -10.343 -10.284
-10.249 -10.244  -1.169  -1.145  -1.066  -1.051  -1.009  -0.886
 -0.841  -0.748  -0.640  -0.608  -0.572  -0.563  -0.552  -0.541
 -0.528  -0.510  -0.501  -0.488  -0.480  -0.474  -0.453  -0.434
 -0.384  -0.378  -0.351  -0.349  -0.342  -0.333  -0.330  -0.283
 -- Virtual --
  0.025   0.060   0.076   0.083   0.086   0.101   0.105   0.112
  0.122   0.123   0.133   0.134   0.142   0.146   0.154   0.161
  0.165   0.177   0.184   0.190   0.194   0.206   0.208   0.214
  0.224   0.225   0.237   0.248   0.251   0.255   0.263   0.269
  0.273   0.280   0.292   0.298   0.305   0.311   0.320   0.323
  0.329   0.335   0.338   0.347   0.359   0.361   0.363   0.366
  0.370   0.378   0.381   0.394   0.395   0.399   0.406   0.412
  0.416   0.417   0.421   0.428   0.429   0.437   0.446   0.452
  0.455   0.466   0.474   0.474   0.485   0.488   0.493   0.497
  0.503   0.506   0.513   0.518   0.524   0.528   0.530   0.543
  0.549   0.555   0.564   0.573   0.578   0.583   0.584   0.589
  0.599   0.604   0.609   0.615   0.624   0.631   0.636   0.638
  0.648   0.660   0.672   0.674   0.683   0.688   0.689   0.701
  0.705   0.712   0.730   0.736   0.740   0.752   0.762   0.769
  0.776   0.779   0.785   0.796   0.800   0.803   0.803   0.814
  0.825   0.829   0.837   0.846   0.848   0.851   0.859   0.868
  0.869   0.879   0.887   0.898   0.905   0.915   0.923   0.929
  0.942   0.946   0.955   0.958   0.965   0.983   1.001   1.006
  1.013   1.032   1.053   1.058   1.073   1.085   1.096   1.109
  1.119   1.141   1.144   1.162   1.174   1.183   1.188   1.196
  1.220   1.232   1.237   1.255   1.275   1.285   1.305   1.325
  1.331   1.351   1.356   1.380   1.384   1.412   1.432   1.434
  1.451   1.460   1.471   1.496   1.521   1.528   1.545   1.572
  1.605   1.618   1.656   1.673   1.697   1.741   1.775   1.801
  1.829   1.866   1.889   1.905   1.921   1.927   1.934   1.942
  1.954   1.962   1.980   1.990   1.997   2.008   2.015   2.024
  2.034   2.045   2.055   2.063   2.091   2.106   2.136   2.144
  2.152   2.188   2.202   2.205   2.227   2.254   2.272   2.277
  2.288   2.311   2.322   2.357   2.364   2.379   2.392   2.444
  2.450   2.458   2.463   2.487   2.495   2.507   2.530   2.555
  2.568   2.574   2.602   2.641   2.663   2.686   2.698   2.706
  2.718   2.737   2.764   2.783   2.812   2.835   2.870   2.883
  2.897   2.921   2.939   2.954   2.976   2.996   3.007   3.025
  3.044   3.056   3.073   3.081   3.108   3.128   3.164   3.191
  3.216   3.235   3.265   3.274   3.284   3.298   3.314   3.329
  3.336   3.352   3.372   3.395   3.400   3.425   3.454   3.466
  3.481   3.491   3.516   3.524   3.541   3.552   3.565   3.581
  3.599   3.614   3.629   3.645   3.654   3.670   3.691   3.712
  3.730   3.731   3.755   3.770   3.774   3.792   3.821   3.829
  3.854   3.862   3.911   3.917   3.957   3.981   3.998   4.043
  4.096   4.120   4.124   4.139   4.167   4.179   4.244   4.298
  4.315   4.386   4.397   4.535   4.578   4.633   4.638   4.705
  4.719   4.769   4.789   4.805   4.893   4.908   4.940   5.064
  5.100   5.112   5.219   5.311   5.320   5.325   5.354   5.360
  5.364   5.371   5.379   5.400   5.426   5.441   5.499   5.521
  5.572   5.606   5.631   5.675   5.688   5.714   5.727   5.778
  5.786   5.869   6.005   6.148   6.252   6.285   6.300   6.333
  6.360   6.405   6.505   6.622   6.629   6.640   6.656   6.689
  6.700   6.724   6.737   6.755   6.775   6.783   6.818   6.882
  6.958   6.973   6.977   7.055   7.133   7.186   7.205   7.234
  7.299   7.368   7.388   7.399   7.411   7.420   7.581  22.722
 22.871  22.888  23.483  23.728  44.052  44.298  44.421  44.463
 44.604
 --------------------------------------------------------------
 
          Ground-State Mulliken Net Atomic Charges

     Atom                 Charge (a.u.)
  ----------------------------------------
      1 C                     0.917833
      2 O                    -0.778166
      3 C                    -1.027184
      4 H                     0.214461
      5 H                     0.267575
      6 H                     0.257590
      7 C                    -0.346573
      8 H                     0.332982
      9 H                     0.202335
     10 C                    -0.220672
     11 H                     0.204382
     12 H                     0.204110
     13 C                     0.079420
     14 O                    -0.699218
     15 O                    -0.703846
     16 O                    -0.390049
     17 O                    -0.774787
     18 H                     0.259808
  ----------------------------------------
  Sum of atomic charges =    -2.000000

 -----------------------------------------------------------------
                    Cartesian Multipole Moments
 -----------------------------------------------------------------
    Charge (ESU x 10^10)
                -9.6064
    Dipole Moment (Debye)
         X      -5.4487      Y       5.8828      Z      -7.1183
       Tot      10.7223
    Quadrupole Moments (Debye-Ang)
        XX    -159.4309     XY      13.4416     YY     -83.8230
        XZ     -14.4948     YZ      -0.6672     ZZ     -74.4973
    Octopole Moments (Debye-Ang^2)
       XXX    -186.8390    XXY     102.3054    XYY     -58.1274
       YYY      77.1372    XXZ     -55.2326    XYZ      34.1673
       YYZ     -39.5637    XZZ     -23.4487    YZZ       9.8479
       ZZZ     -74.7809
    Hexadecapole Moments (Debye-Ang^3)
      XXXX   -3092.5000   XXXY     387.7227   XXYY    -624.6004
      XYYY     335.9147   YYYY    -695.1462   XXXZ    -371.0099
      XXYZ      75.6364   XYYZ    -102.7908   YYYZ     103.9126
      XXZZ    -413.4999   XYZZ     109.6047   YYZZ    -180.4127
      XZZZ    -136.4467   YZZZ      64.8242   ZZZZ    -320.7155
 -----------------------------------------------------------------
 Calculating analytic gradient of the SCF energy
 Gradient of SCF Energy
            1           2           3           4           5           6
    1   0.0499963   0.0013011  -0.0158213   0.0780071  -0.0450100  -0.0202461
    2  -0.0634831   0.0050275   0.0734584  -0.0229017  -0.0625467   0.0300266
    3   0.0773747  -0.0491205  -0.0546045  -0.0058448  -0.0185684   0.0611619
            7           8           9          10          11          12
    1   0.0566962  -0.0060183  -0.0212239  -0.1067448   0.0187973   0.0297219
    2   0.0854873   0.0107189  -0.0752904  -0.0430643   0.0622631  -0.0221794
    3  -0.0461952   0.0374577  -0.0046011   0.0479022   0.0141142  -0.0616436
           13          14          15          16          17          18
    1   0.0520403  -0.0331106  -0.0323596   0.0268611  -0.0323533  -0.0005334
    2   0.0058748  -0.0481227   0.0478676   0.0199172  -0.0130337   0.0099806
    3   0.0009154   0.0130122  -0.0105853   0.0025972   0.0596827  -0.0630548
 Max gradient component =       1.067E-01
 RMS gradient           =       4.448E-02
 Computing fast CPCM-ISWIG gradient
 Updating gradient with PCM contributions...
 -- total gradient after adding PCM contribution --
---------------------------------------------------
  Atom         X              Y              Z     
---------------------------------------------------
   1      -0.000008      -0.000011       0.000003
   2      -0.000010      -0.000018       0.000001
   3      -0.000010      -0.000002       0.000009
   4      -0.000011      -0.000011       0.000009
   5      -0.000017      -0.000001       0.000017
   6      -0.000006       0.000007       0.000009
   7       0.000003       0.000008      -0.000000
   8       0.000007       0.000015      -0.000000
   9      -0.000006       0.000009       0.000009
  10       0.000006       0.000004      -0.000004
  11       0.000014       0.000004      -0.000013
  12       0.000002      -0.000006      -0.000005
  13       0.000006       0.000015      -0.000001
  14      -0.000001       0.000020       0.000009
  15       0.000013       0.000017      -0.000007
  16       0.000010      -0.000002      -0.000005
  17       0.000002      -0.000021      -0.000014
  18       0.000006      -0.000027      -0.000016
---------------------------------------------------
 Number of fixed atoms: 0
 Gradient time:  CPU 828.23 s  wall 110.91 s
 ######################################################
 ######################################################
 # Starting finite difference calculation for IDERIV  #
 Finite diff step size:  1.88973e-03 a.u.
 ----------------------------------------------------------------
             Standard Nuclear Orientation (Angstroms)
    I     Atom           X                Y                Z
 ----------------------------------------------------------------
    1      C      -0.9670515023     0.6374150962     0.2381687418
    2      O      -1.0072180789     0.8985671626     1.4831833636
    3      C      -1.2558579135     1.7755336112    -0.7369651314
    4      H      -2.3148161009     2.0365255954    -0.6461020192
    5      H      -0.6587679890     2.6516732662    -0.4734373278
    6      H      -1.0515134313     1.4895612002    -1.7714523184
    7      C       0.6268303988    -0.0545993738    -0.2988625752
    8      H       0.6522020555    -0.3315743241    -1.3511450137
    9      H       1.1063782224     0.9183230915    -0.1681607080
   10      C       1.2105432440    -1.0798011896     0.6350525946
   11      H       0.8846774738    -2.0893318397     0.3768778523
   12      H       0.8529434956    -0.8728195184     1.6519655149
   13      C       2.7509519688    -1.0575927258     0.7055281753
   14      O       3.3365407893     0.0340241719     0.4887658620
   15      O       3.3113823688    -2.1423938689     1.0119436533
   16      O      -1.3057119186    -0.5863466608    -0.2245932127
   17      O      -3.1639433779    -0.8047104171    -0.0961548324
   18      H      -3.1748697049    -0.9593432768     0.8555173813
 ----------------------------------------------------------------
 Nuclear Repulsion Energy =   535.3231657895 hartrees
 There are       40 alpha and       40 beta electrons
 Discretize the solute cavity surface with Lebedev spheres
	Using 110 Lebedev grid points for each H atom
	Using 110 Lebedev grid points for other atoms
	Atomic van der Waals radii will be scaled by 1.20
 Remove points where switching function is < 1.0e-08
 Keep 1081 surface tesserae and discard 899 interior tesserae
 Molecular Surface Area = 192.745 Angst**2
 Requested basis set is def2-TZVPD
 There are 175 shells and 457 basis functions
 A cutoff of  1.0D-14 yielded  13982 shell pairs
 There are     95456 function pairs (    121408 Cartesian)
 Smallest overlap matrix eigenvalue = 3.60E-06
 Guess MOs from SCF MO coefficient file
 Reading MOs from coefficient file
 Reading MOs from coefficient file
 Long-range K will be added via erf
 Coulomb attenuation parameter = 0.3 bohr**(-1)
 A restricted hybrid HF-DFT SCF calculation will be
 performed using Pulay DIIS extrapolation
 Polarizable Continuum solvation model will be applied
 Exchange:     0.1670 Hartree-Fock + 1.0000 wB97X-V + LR-HF
 Correlation:  1.0000 wB97X-V
 Using SG-2 standard quadrature grid
 Nonlocal Correlation:  VV10 with C = 0.0100 and b = 6.00
 Grid used for NLC:  SG-1 standard quadrature
 SCF converges when DIIS error is below 1.0E-08
Using Q-Chem read-in guess as SCF_GUESS READ specified.

 using 8 threads for integral computing
 -------------------------------------------------------
 OpenMP Integral computing Module                
 Release: version 1.0, May 2013, Q-Chem Inc. Pittsburgh 
 -------------------------------------------------------
 using 8 threads for integral computing
 -------------------------------------------------------
 OpenMP Integral computing Module                
 Release: version 1.0, May 2013, Q-Chem Inc. Pittsburgh 
 -------------------------------------------------------
 -------------------------------------------------------
 OpenMP BLAS3 based DFT computing Module                
 Release: version 1.0, May 2013, Q-Chem Inc. Pittsburgh 
 -------------------------------------------------------
 -------------------------------------------------------
 OpenMP BLAS3 based DFT computing Module                
 Release: version 1.0, May 2013, Q-Chem Inc. Pittsburgh 
 -------------------------------------------------------
 -------------------------------------------------------
 OpenMP BLAS3 based DFT computing Module                
 Release: version 1.0, May 2013, Q-Chem Inc. Pittsburgh 
 -------------------------------------------------------
 ---------------------------------------
  Cycle       Energy         DIIS Error
 ---------------------------------------
    1    -571.3638723101      3.30E-04
    2    -571.6613422828      3.84E-04
    3    -571.6664203521      1.76E-04
    4    -571.6672416402      1.24E-04
    5    -571.6676918044      9.73E-05
    6    -571.6679706221      7.69E-05
    7    -571.6681803789      5.76E-05
    8    -571.6683431373      3.60E-05
    9    -571.6684202772      1.85E-05
   10    -571.6684417574      8.90E-06
   11    -571.6684477087      2.40E-06
   12    -571.6684481514      6.10E-07
   13    -571.6684481823      1.02E-07
   14    -571.6684481832      3.16E-08
   15    -571.6684481833      8.63E-09 Convergence criterion met
 ---------------------------------------

************** Final PCM Free Energy Summary **************
 G_electrostatic  =      -0.30481315 hartree =    -191.27313969 kcal/mol
 G_cavitation     =       0.00000000 hartree =       0.00000000 kcal/mol
 G_dispersion     =       0.00000000 hartree =       0.00000000 kcal/mol
 G_repulsion      =       0.00000000 hartree =       0.00000000 kcal/mol
 --------------------------------------------------
 Non-electrostatic Free Energy =       0.00000000 hartree =       0.00000000 kcal/mol
 Total                         =      -0.30481315 hartree =    -191.27313969 kcal/mol
 --------------------------------------------------
 SCF Energy (H0 + V/2)                       =    -571.66844818 
 Solute Internal Energy (H0)                 =    -571.36363503 
 Total Free Energy (H0 + V/2 + non-elec)     =    -571.66844818 hartree
                                             = -358727.36550688 kcal/mol
***********************************************************

 SCF time:  CPU 3471.94 s  wall 472.63 s
 SCF   energy in the final basis set = -571.66844818
 Total energy in the final basis set = -571.66844818
 
 --------------------------------------------------------------
 
                    Orbital Energies (a.u.)
 --------------------------------------------------------------
 
 Alpha MOs
 -- Occupied --
-19.243 -19.148 -19.141 -19.140 -19.130 -10.358 -10.343 -10.284
-10.249 -10.244  -1.168  -1.145  -1.066  -1.051  -1.009  -0.886
 -0.841  -0.748  -0.640  -0.608  -0.572  -0.563  -0.552  -0.541
 -0.528  -0.510  -0.501  -0.488  -0.480  -0.474  -0.453  -0.434
 -0.384  -0.378  -0.351  -0.349  -0.342  -0.333  -0.330  -0.283
 -- Virtual --
  0.025   0.060   0.076   0.083   0.086   0.101   0.105   0.112
  0.122   0.123   0.133   0.134   0.142   0.146   0.154   0.161
  0.165   0.177   0.184   0.190   0.194   0.206   0.208   0.214
  0.224   0.225   0.237   0.248   0.251   0.255   0.263   0.269
  0.273   0.280   0.292   0.298   0.305   0.311   0.320   0.323
  0.329   0.335   0.338   0.347   0.359   0.361   0.363   0.366
  0.370   0.378   0.381   0.394   0.395   0.399   0.406   0.412
  0.416   0.417   0.421   0.428   0.429   0.437   0.446   0.452
  0.455   0.466   0.474   0.474   0.485   0.488   0.493   0.497
  0.503   0.506   0.512   0.518   0.524   0.528   0.530   0.543
  0.549   0.555   0.564   0.573   0.578   0.583   0.584   0.589
  0.599   0.604   0.609   0.615   0.624   0.631   0.636   0.638
  0.648   0.660   0.672   0.674   0.683   0.688   0.689   0.701
  0.705   0.712   0.730   0.736   0.740   0.752   0.762   0.769
  0.776   0.779   0.785   0.796   0.800   0.803   0.803   0.814
  0.825   0.829   0.837   0.846   0.848   0.851   0.859   0.868
  0.869   0.879   0.887   0.898   0.905   0.915   0.923   0.929
  0.942   0.946   0.955   0.958   0.965   0.983   1.001   1.006
  1.013   1.032   1.053   1.059   1.073   1.085   1.096   1.109
  1.119   1.141   1.144   1.162   1.174   1.183   1.188   1.196
  1.220   1.232   1.237   1.255   1.275   1.285   1.305   1.325
  1.331   1.351   1.356   1.380   1.384   1.412   1.432   1.434
  1.451   1.460   1.471   1.496   1.521   1.528   1.545   1.572
  1.605   1.618   1.656   1.673   1.698   1.741   1.775   1.801
  1.829   1.866   1.889   1.905   1.921   1.927   1.934   1.942
  1.954   1.962   1.980   1.990   1.997   2.008   2.015   2.024
  2.034   2.045   2.055   2.062   2.091   2.106   2.136   2.144
  2.152   2.188   2.202   2.205   2.227   2.254   2.272   2.277
  2.288   2.312   2.322   2.357   2.364   2.379   2.392   2.444
  2.450   2.458   2.463   2.487   2.495   2.507   2.530   2.555
  2.568   2.574   2.602   2.641   2.663   2.686   2.698   2.706
  2.718   2.737   2.764   2.783   2.812   2.835   2.870   2.883
  2.897   2.922   2.939   2.954   2.976   2.996   3.007   3.025
  3.044   3.056   3.073   3.081   3.108   3.128   3.164   3.191
  3.216   3.235   3.265   3.274   3.284   3.298   3.314   3.329
  3.336   3.352   3.372   3.395   3.400   3.425   3.454   3.467
  3.481   3.491   3.516   3.524   3.541   3.552   3.565   3.581
  3.599   3.614   3.629   3.646   3.654   3.670   3.691   3.712
  3.730   3.731   3.756   3.770   3.774   3.793   3.821   3.829
  3.854   3.862   3.911   3.917   3.957   3.982   3.998   4.043
  4.096   4.120   4.124   4.139   4.168   4.179   4.244   4.298
  4.315   4.387   4.397   4.535   4.578   4.633   4.638   4.705
  4.718   4.769   4.789   4.806   4.894   4.908   4.940   5.064
  5.100   5.112   5.219   5.311   5.320   5.325   5.354   5.360
  5.364   5.371   5.379   5.400   5.425   5.441   5.499   5.521
  5.572   5.606   5.631   5.675   5.688   5.714   5.727   5.778
  5.786   5.869   6.005   6.147   6.252   6.285   6.300   6.334
  6.360   6.405   6.504   6.622   6.629   6.640   6.656   6.689
  6.700   6.724   6.736   6.755   6.775   6.783   6.818   6.882
  6.958   6.973   6.976   7.055   7.132   7.186   7.205   7.234
  7.299   7.368   7.389   7.399   7.412   7.420   7.581  22.722
 22.872  22.889  23.482  23.728  44.052  44.298  44.421  44.463
 44.604
 --------------------------------------------------------------
 
          Ground-State Mulliken Net Atomic Charges

     Atom                 Charge (a.u.)
  ----------------------------------------
      1 C                     0.917901
      2 O                    -0.778378
      3 C                    -1.027703
      4 H                     0.214494
      5 H                     0.267521
      6 H                     0.257599
      7 C                    -0.346229
      8 H                     0.332893
      9 H                     0.202150
     10 C                    -0.220827
     11 H                     0.204378
     12 H                     0.204133
     13 C                     0.079374
     14 O                    -0.699224
     15 O                    -0.703865
     16 O                    -0.390026
     17 O                    -0.774136
     18 H                     0.259944
  ----------------------------------------
  Sum of atomic charges =    -2.000000

 -----------------------------------------------------------------
                    Cartesian Multipole Moments
 -----------------------------------------------------------------
    Charge (ESU x 10^10)
                -9.6064
    Dipole Moment (Debye)
         X      -5.4579      Y       5.8772      Z      -7.1197
       Tot      10.7247
    Quadrupole Moments (Debye-Ang)
        XX    -159.3977     XY      13.4565     YY     -83.8262
        XZ     -14.4945     YZ      -0.6671     ZZ     -74.5021
    Octopole Moments (Debye-Ang^2)
       XXX    -187.0290    XXY     102.2613    XYY     -58.1487
       YYY      77.1158    XXZ     -55.2373    XYZ      34.1704
       YYZ     -39.5635    XZZ     -23.4587    YZZ       9.8393
       ZZZ     -74.7881
    Hexadecapole Moments (Debye-Ang^3)
      XXXX   -3091.7944   XXXY     387.8988   XXYY    -624.5402
      XYYY     335.9523   YYYY    -695.1874   XXXZ    -371.0202
      XXYZ      75.6358   XYYZ    -102.7946   YYYZ     103.9211
      XXZZ    -413.4714   XYZZ     109.6138   YYZZ    -180.4263
      XZZZ    -136.4544   YZZZ      64.8239   ZZZZ    -320.7475
 -----------------------------------------------------------------
 Calculating analytic gradient of the SCF energy
 Gradient of SCF Energy
            1           2           3           4           5           6
    1   0.0499627   0.0013171  -0.0158233   0.0780091  -0.0450109  -0.0202674
    2  -0.0634739   0.0050287   0.0735246  -0.0228652  -0.0625847   0.0300260
    3   0.0773813  -0.0491417  -0.0545631  -0.0058777  -0.0185559   0.0611657
            7           8           9          10          11          12
    1   0.0566869  -0.0060569  -0.0212635  -0.1066912   0.0187970   0.0297186
    2   0.0854571   0.0107241  -0.0753062  -0.0430829   0.0622559  -0.0221878
    3  -0.0461889   0.0374369  -0.0045810   0.0478756   0.0141210  -0.0616426
           13          14          15          16          17          18
    1   0.0520544  -0.0331171  -0.0323673   0.0270299  -0.0324314  -0.0005467
    2   0.0058902  -0.0481264   0.0478739   0.0199233  -0.0130511   0.0099745
    3   0.0009218   0.0130131  -0.0105860   0.0025762   0.0597091  -0.0630638
 Max gradient component =       1.067E-01
 RMS gradient           =       4.448E-02
 Computing fast CPCM-ISWIG gradient
 Updating gradient with PCM contributions...
 -- total gradient after adding PCM contribution --
---------------------------------------------------
  Atom         X              Y              Z     
---------------------------------------------------
   1       0.000306       0.000034       0.000139
   2      -0.000128      -0.000033      -0.000062
   3      -0.000138       0.000028      -0.000016
   4      -0.000022       0.000032      -0.000027
   5      -0.000014      -0.000026       0.000040
   6      -0.000008      -0.000006       0.000019
   7       0.000020      -0.000116      -0.000071
   8       0.000017       0.000006      -0.000003
   9      -0.000078       0.000022       0.000031
  10      -0.000018       0.000006      -0.000010
  11       0.000014       0.000005      -0.000014
  12       0.000002      -0.000004      -0.000003
  13       0.000016       0.000014       0.000000
  14      -0.000005       0.000022       0.000007
  15       0.000006       0.000022      -0.000009
  16       0.000214       0.000082      -0.000003
  17      -0.000181      -0.000060       0.000003
  18      -0.000002      -0.000029      -0.000022
---------------------------------------------------
 Number of fixed atoms: 0
 Gradient time:  CPU 828.12 s  wall 110.90 s
 ----------------------------------------------------------------
             Standard Nuclear Orientation (Angstroms)
    I     Atom           X                Y                Z
 ----------------------------------------------------------------
    1      C      -0.9690515023     0.6374150962     0.2381687418
    2      O      -1.0072180789     0.8985671626     1.4831833636
    3      C      -1.2558579135     1.7755336112    -0.7369651314
    4      H      -2.3148161009     2.0365255954    -0.6461020192
    5      H      -0.6587679890     2.6516732662    -0.4734373278
    6      H      -1.0515134313     1.4895612002    -1.7714523184
    7      C       0.6268303988    -0.0545993738    -0.2988625752
    8      H       0.6522020555    -0.3315743241    -1.3511450137
    9      H       1.1063782224     0.9183230915    -0.1681607080
   10      C       1.2105432440    -1.0798011896     0.6350525946
   11      H       0.8846774738    -2.0893318397     0.3768778523
   12      H       0.8529434956    -0.8728195184     1.6519655149
   13      C       2.7509519688    -1.0575927258     0.7055281753
   14      O       3.3365407893     0.0340241719     0.4887658620
   15      O       3.3113823688    -2.1423938689     1.0119436533
   16      O      -1.3057119186    -0.5863466608    -0.2245932127
   17      O      -3.1639433779    -0.8047104171    -0.0961548324
   18      H      -3.1748697049    -0.9593432768     0.8555173813
 ----------------------------------------------------------------
 Nuclear Repulsion Energy =   535.3185066535 hartrees
 There are       40 alpha and       40 beta electrons
 Discretize the solute cavity surface with Lebedev spheres
	Using 110 Lebedev grid points for each H atom
	Using 110 Lebedev grid points for other atoms
	Atomic van der Waals radii will be scaled by 1.20
 Remove points where switching function is < 1.0e-08
 Keep 1081 surface tesserae and discard 899 interior tesserae
 Molecular Surface Area = 192.745 Angst**2
 Requested basis set is def2-TZVPD
 There are 175 shells and 457 basis functions
 A cutoff of  1.0D-14 yielded  13982 shell pairs
 There are     95456 function pairs (    121408 Cartesian)
 Smallest overlap matrix eigenvalue = 3.60E-06
 Guess MOs from SCF MO coefficient file
 Reading MOs from coefficient file
 Reading MOs from coefficient file
 Long-range K will be added via erf
 Coulomb attenuation parameter = 0.3 bohr**(-1)
 A restricted hybrid HF-DFT SCF calculation will be
 performed using Pulay DIIS extrapolation
 Polarizable Continuum solvation model will be applied
 Exchange:     0.1670 Hartree-Fock + 1.0000 wB97X-V + LR-HF
 Correlation:  1.0000 wB97X-V
 Using SG-2 standard quadrature grid
 Nonlocal Correlation:  VV10 with C = 0.0100 and b = 6.00
 Grid used for NLC:  SG-1 standard quadrature
 SCF converges when DIIS error is below 1.0E-08
Using Q-Chem read-in guess as SCF_GUESS READ specified.

 using 8 threads for integral computing
 -------------------------------------------------------
 OpenMP Integral computing Module                
 Release: version 1.0, May 2013, Q-Chem Inc. Pittsburgh 
 -------------------------------------------------------
 using 8 threads for integral computing
 -------------------------------------------------------
 OpenMP Integral computing Module                
 Release: version 1.0, May 2013, Q-Chem Inc. Pittsburgh 
 -------------------------------------------------------
 -------------------------------------------------------
 OpenMP BLAS3 based DFT computing Module                
 Release: version 1.0, May 2013, Q-Chem Inc. Pittsburgh 
 -------------------------------------------------------
 -------------------------------------------------------
 OpenMP BLAS3 based DFT computing Module                
 Release: version 1.0, May 2013, Q-Chem Inc. Pittsburgh 
 -------------------------------------------------------
 -------------------------------------------------------
 OpenMP BLAS3 based DFT computing Module                
 Release: version 1.0, May 2013, Q-Chem Inc. Pittsburgh 
 -------------------------------------------------------
 ---------------------------------------
  Cycle       Energy         DIIS Error
 ---------------------------------------
    1    -571.3631558220      3.31E-04
    2    -571.6613744703      3.82E-04
    3    -571.6664292863      1.76E-04
    4    -571.6672464695      1.24E-04
    5    -571.6677077761      9.61E-05
    6    -571.6679993537      7.44E-05
    7    -571.6682559097      4.87E-05
    8    -571.6684109842      2.12E-05
    9    -571.6684443992      6.71E-06
   10    -571.6684477904      2.09E-06
   11    -571.6684481416      3.24E-07
   12    -571.6684481519      1.55E-07
   13    -571.6684481541      8.00E-08
   14    -571.6684481545      3.10E-08
   15    -571.6684481546      7.38E-09 Convergence criterion met
 ---------------------------------------

************** Final PCM Free Energy Summary **************
 G_electrostatic  =      -0.30481661 hartree =    -191.27531126 kcal/mol
 G_cavitation     =       0.00000000 hartree =       0.00000000 kcal/mol
 G_dispersion     =       0.00000000 hartree =       0.00000000 kcal/mol
 G_repulsion      =       0.00000000 hartree =       0.00000000 kcal/mol
 --------------------------------------------------
 Non-electrostatic Free Energy =       0.00000000 hartree =       0.00000000 kcal/mol
 Total                         =      -0.30481661 hartree =    -191.27531126 kcal/mol
 --------------------------------------------------
 SCF Energy (H0 + V/2)                       =    -571.66844815 
 Solute Internal Energy (H0)                 =    -571.36363154 
 Total Free Energy (H0 + V/2 + non-elec)     =    -571.66844815 hartree
                                             = -358727.36548886 kcal/mol
***********************************************************

 SCF time:  CPU 3471.81 s  wall 471.95 s
 SCF   energy in the final basis set = -571.66844815
 Total energy in the final basis set = -571.66844815
 
 --------------------------------------------------------------
 
                    Orbital Energies (a.u.)
 --------------------------------------------------------------
 
 Alpha MOs
 -- Occupied --
-19.243 -19.148 -19.141 -19.140 -19.130 -10.359 -10.343 -10.284
-10.249 -10.244  -1.169  -1.145  -1.066  -1.051  -1.009  -0.886
 -0.842  -0.748  -0.640  -0.608  -0.572  -0.563  -0.552  -0.541
 -0.528  -0.510  -0.501  -0.488  -0.480  -0.474  -0.453  -0.434
 -0.384  -0.378  -0.351  -0.349  -0.342  -0.333  -0.330  -0.283
 -- Virtual --
  0.025   0.060   0.076   0.083   0.086   0.101   0.105   0.112
  0.122   0.123   0.133   0.134   0.142   0.146   0.154   0.161
  0.164   0.177   0.184   0.190   0.194   0.206   0.208   0.214
  0.224   0.225   0.237   0.248   0.251   0.255   0.263   0.269
  0.273   0.280   0.292   0.298   0.305   0.311   0.320   0.323
  0.329   0.335   0.338   0.347   0.359   0.361   0.363   0.366
  0.370   0.378   0.381   0.394   0.395   0.399   0.406   0.412
  0.416   0.417   0.421   0.428   0.429   0.437   0.446   0.452
  0.455   0.466   0.474   0.474   0.485   0.488   0.493   0.497
  0.503   0.506   0.513   0.518   0.524   0.528   0.530   0.543
  0.549   0.555   0.564   0.573   0.578   0.583   0.584   0.589
  0.599   0.604   0.609   0.615   0.624   0.631   0.636   0.638
  0.648   0.660   0.672   0.674   0.683   0.688   0.689   0.701
  0.705   0.712   0.730   0.736   0.740   0.752   0.762   0.769
  0.776   0.779   0.785   0.796   0.800   0.803   0.803   0.814
  0.825   0.829   0.837   0.846   0.848   0.851   0.859   0.868
  0.869   0.879   0.887   0.898   0.905   0.915   0.923   0.929
  0.942   0.945   0.955   0.958   0.965   0.983   1.001   1.006
  1.013   1.032   1.053   1.058   1.073   1.085   1.096   1.109
  1.118   1.141   1.144   1.162   1.174   1.183   1.188   1.196
  1.220   1.232   1.237   1.255   1.275   1.285   1.305   1.325
  1.331   1.351   1.356   1.380   1.384   1.412   1.432   1.434
  1.451   1.460   1.471   1.496   1.521   1.528   1.545   1.572
  1.605   1.617   1.655   1.673   1.697   1.741   1.775   1.801
  1.829   1.866   1.889   1.905   1.921   1.927   1.934   1.942
  1.954   1.962   1.980   1.990   1.997   2.008   2.015   2.024
  2.034   2.045   2.055   2.063   2.091   2.106   2.136   2.145
  2.152   2.187   2.202   2.205   2.227   2.254   2.272   2.277
  2.288   2.311   2.322   2.357   2.364   2.379   2.392   2.444
  2.450   2.458   2.463   2.487   2.495   2.507   2.530   2.555
  2.568   2.574   2.602   2.641   2.663   2.686   2.698   2.706
  2.718   2.736   2.764   2.783   2.812   2.834   2.870   2.883
  2.897   2.921   2.939   2.954   2.976   2.996   3.007   3.025
  3.044   3.056   3.073   3.081   3.108   3.128   3.164   3.191
  3.216   3.235   3.264   3.274   3.284   3.298   3.314   3.329
  3.336   3.352   3.372   3.395   3.400   3.425   3.454   3.466
  3.481   3.491   3.516   3.524   3.541   3.552   3.565   3.581
  3.599   3.614   3.629   3.645   3.654   3.670   3.691   3.712
  3.729   3.731   3.755   3.770   3.774   3.792   3.821   3.829
  3.854   3.862   3.911   3.917   3.957   3.981   3.998   4.043
  4.096   4.120   4.124   4.139   4.167   4.179   4.244   4.298
  4.315   4.386   4.397   4.535   4.577   4.633   4.638   4.705
  4.719   4.769   4.789   4.805   4.893   4.907   4.940   5.064
  5.100   5.112   5.218   5.311   5.320   5.325   5.354   5.360
  5.364   5.371   5.379   5.400   5.426   5.441   5.499   5.521
  5.572   5.606   5.631   5.676   5.688   5.714   5.727   5.778
  5.786   5.869   6.005   6.148   6.252   6.284   6.300   6.333
  6.360   6.405   6.505   6.622   6.629   6.640   6.657   6.689
  6.700   6.725   6.737   6.755   6.775   6.783   6.818   6.882
  6.958   6.973   6.977   7.055   7.133   7.186   7.206   7.234
  7.299   7.368   7.388   7.399   7.411   7.419   7.582  22.722
 22.871  22.888  23.484  23.728  44.053  44.298  44.421  44.464
 44.604
 --------------------------------------------------------------
 
          Ground-State Mulliken Net Atomic Charges

     Atom                 Charge (a.u.)
  ----------------------------------------
      1 C                     0.917765
      2 O                    -0.777954
      3 C                    -1.026669
      4 H                     0.214429
      5 H                     0.267630
      6 H                     0.257580
      7 C                    -0.346916
      8 H                     0.333070
      9 H                     0.202519
     10 C                    -0.220517
     11 H                     0.204385
     12 H                     0.204087
     13 C                     0.079466
     14 O                    -0.699211
     15 O                    -0.703827
     16 O                    -0.390072
     17 O                    -0.775436
     18 H                     0.259671
  ----------------------------------------
  Sum of atomic charges =    -2.000000

 -----------------------------------------------------------------
                    Cartesian Multipole Moments
 -----------------------------------------------------------------
    Charge (ESU x 10^10)
                -9.6064
    Dipole Moment (Debye)
         X      -5.4396      Y       5.8885      Z      -7.1169
       Tot      10.7198
    Quadrupole Moments (Debye-Ang)
        XX    -159.4641     XY      13.4269     YY     -83.8198
        XZ     -14.4951     YZ      -0.6673     ZZ     -74.4925
    Octopole Moments (Debye-Ang^2)
       XXX    -186.6493    XXY     102.3494    XYY     -58.1061
       YYY      77.1585    XXZ     -55.2280    XYZ      34.1641
       YYZ     -39.5637    XZZ     -23.4386    YZZ       9.8564
       ZZZ     -74.7736
    Hexadecapole Moments (Debye-Ang^3)
      XXXX   -3093.2054   XXXY     387.5468   XXYY    -624.6608
      XYYY     335.8773   YYYY    -695.1053   XXXZ    -370.9995
      XXYZ      75.6371   XYYZ    -102.7871   YYYZ     103.9041
      XXZZ    -413.5284   XYZZ     109.5956   YYZZ    -180.3991
      XZZZ    -136.4390   YZZZ      64.8246   ZZZZ    -320.6838
 -----------------------------------------------------------------
 Calculating analytic gradient of the SCF energy
 Gradient of SCF Energy
            1           2           3           4           5           6
    1   0.0500293   0.0012853  -0.0158192   0.0780046  -0.0450089  -0.0202246
    2  -0.0634910   0.0050265   0.0733912  -0.0229381  -0.0625080   0.0300270
    3   0.0773669  -0.0490981  -0.0546455  -0.0058118  -0.0185810   0.0611578
            7           8           9          10          11          12
    1   0.0567048  -0.0059795  -0.0211840  -0.1067974   0.0187976   0.0297250
    2   0.0855165   0.0107134  -0.0752740  -0.0430454   0.0622696  -0.0221709
    3  -0.0462012   0.0374782  -0.0046214   0.0479286   0.0141071  -0.0616441
           13          14          15          16          17          18
    1   0.0520260  -0.0331040  -0.0323519   0.0266923  -0.0322750  -0.0005202
    2   0.0058592  -0.0481184   0.0478610   0.0199106  -0.0130161   0.0099867
    3   0.0009089   0.0130111  -0.0105844   0.0026184   0.0596558  -0.0630453
 Max gradient component =       1.068E-01
 RMS gradient           =       4.447E-02
 Computing fast CPCM-ISWIG gradient
 Updating gradient with PCM contributions...
 -- total gradient after adding PCM contribution --
---------------------------------------------------
  Atom         X              Y              Z     
---------------------------------------------------
   1      -0.000321      -0.000056      -0.000135
   2       0.000108      -0.000004       0.000065
   3       0.000117      -0.000032       0.000035
   4      -0.000001      -0.000052       0.000046
   5      -0.000020       0.000024      -0.000005
   6      -0.000003       0.000018      -0.000002
   7      -0.000014       0.000132       0.000071
   8      -0.000003       0.000024       0.000002
   9       0.000067      -0.000004      -0.000013
  10       0.000031       0.000002       0.000001
  11       0.000014       0.000004      -0.000013
  12       0.000002      -0.000008      -0.000006
  13      -0.000005       0.000015      -0.000003
  14       0.000003       0.000019       0.000011
  15       0.000019       0.000011      -0.000005
  16      -0.000194      -0.000085      -0.000007
  17       0.000186       0.000017      -0.000032
  18       0.000013      -0.000025      -0.000010
---------------------------------------------------
 Number of fixed atoms: 0
 Gradient time:  CPU 828.18 s  wall 111.47 s
 ----------------------------------------------------------------
             Standard Nuclear Orientation (Angstroms)
    I     Atom           X                Y                Z
 ----------------------------------------------------------------
    1      C      -0.9680515023     0.6384150962     0.2381687418
    2      O      -1.0072180789     0.8985671626     1.4831833636
    3      C      -1.2558579135     1.7755336112    -0.7369651314
    4      H      -2.3148161009     2.0365255954    -0.6461020192
    5      H      -0.6587679890     2.6516732662    -0.4734373278
    6      H      -1.0515134313     1.4895612002    -1.7714523184
    7      C       0.6268303988    -0.0545993738    -0.2988625752
    8      H       0.6522020555    -0.3315743241    -1.3511450137
    9      H       1.1063782224     0.9183230915    -0.1681607080
   10      C       1.2105432440    -1.0798011896     0.6350525946
   11      H       0.8846774738    -2.0893318397     0.3768778523
   12      H       0.8529434956    -0.8728195184     1.6519655149
   13      C       2.7509519688    -1.0575927258     0.7055281753
   14      O       3.3365407893     0.0340241719     0.4887658620
   15      O       3.3113823688    -2.1423938689     1.0119436533
   16      O      -1.3057119186    -0.5863466608    -0.2245932127
   17      O      -3.1639433779    -0.8047104171    -0.0961548324
   18      H      -3.1748697049    -0.9593432768     0.8555173813
 ----------------------------------------------------------------
 Nuclear Repulsion Energy =   535.3112924838 hartrees
 There are       40 alpha and       40 beta electrons
 Discretize the solute cavity surface with Lebedev spheres
	Using 110 Lebedev grid points for each H atom
	Using 110 Lebedev grid points for other atoms
	Atomic van der Waals radii will be scaled by 1.20
 Remove points where switching function is < 1.0e-08
 Keep 1082 surface tesserae and discard 898 interior tesserae
 Molecular Surface Area = 192.744 Angst**2
 Requested basis set is def2-TZVPD
 There are 175 shells and 457 basis functions
 A cutoff of  1.0D-14 yielded  13982 shell pairs
 There are     95456 function pairs (    121408 Cartesian)
 Smallest overlap matrix eigenvalue = 3.60E-06
 Guess MOs from SCF MO coefficient file
 Reading MOs from coefficient file
 Reading MOs from coefficient file
 Long-range K will be added via erf
 Coulomb attenuation parameter = 0.3 bohr**(-1)
 A restricted hybrid HF-DFT SCF calculation will be
 performed using Pulay DIIS extrapolation
 Polarizable Continuum solvation model will be applied
 Exchange:     0.1670 Hartree-Fock + 1.0000 wB97X-V + LR-HF
 Correlation:  1.0000 wB97X-V
 Using SG-2 standard quadrature grid
 Nonlocal Correlation:  VV10 with C = 0.0100 and b = 6.00
 Grid used for NLC:  SG-1 standard quadrature
 SCF converges when DIIS error is below 1.0E-08
Using Q-Chem read-in guess as SCF_GUESS READ specified.

 using 8 threads for integral computing
 -------------------------------------------------------
 OpenMP Integral computing Module                
 Release: version 1.0, May 2013, Q-Chem Inc. Pittsburgh 
 -------------------------------------------------------
 using 8 threads for integral computing
 -------------------------------------------------------
 OpenMP Integral computing Module                
 Release: version 1.0, May 2013, Q-Chem Inc. Pittsburgh 
 -------------------------------------------------------
 -------------------------------------------------------
 OpenMP BLAS3 based DFT computing Module                
 Release: version 1.0, May 2013, Q-Chem Inc. Pittsburgh 
 -------------------------------------------------------
 -------------------------------------------------------
 OpenMP BLAS3 based DFT computing Module                
 Release: version 1.0, May 2013, Q-Chem Inc. Pittsburgh 
 -------------------------------------------------------
 -------------------------------------------------------
 OpenMP BLAS3 based DFT computing Module                
 Release: version 1.0, May 2013, Q-Chem Inc. Pittsburgh 
 -------------------------------------------------------
 ---------------------------------------
  Cycle       Energy         DIIS Error
 ---------------------------------------
    1    -571.3633777711      3.31E-04
    2    -571.6613294187      3.85E-04
    3    -571.6664173295      1.76E-04
    4    -571.6672417910      1.24E-04
    5    -571.6676980342      9.68E-05
    6    -571.6679907525      7.52E-05
    7    -571.6682296199      5.20E-05
    8    -571.6683919447      2.61E-05
    9    -571.6684393944      9.97E-06
   10    -571.6684462767      3.93E-06
   11    -571.6684474773      8.70E-07
   12    -571.6684475386      2.45E-07
   13    -571.6684475444      6.14E-08
   14    -571.6684475447      2.93E-08
   15    -571.6684475448      7.15E-09 Convergence criterion met
 ---------------------------------------

************** Final PCM Free Energy Summary **************
 G_electrostatic  =      -0.30482706 hartree =    -191.28186643 kcal/mol
 G_cavitation     =       0.00000000 hartree =       0.00000000 kcal/mol
 G_dispersion     =       0.00000000 hartree =       0.00000000 kcal/mol
 G_repulsion      =       0.00000000 hartree =       0.00000000 kcal/mol
 --------------------------------------------------
 Non-electrostatic Free Energy =       0.00000000 hartree =       0.00000000 kcal/mol
 Total                         =      -0.30482706 hartree =    -191.28186643 kcal/mol
 --------------------------------------------------
 SCF Energy (H0 + V/2)                       =    -571.66844754 
 Solute Internal Energy (H0)                 =    -571.36362049 
 Total Free Energy (H0 + V/2 + non-elec)     =    -571.66844754 hartree
                                             = -358727.36510620 kcal/mol
***********************************************************

 SCF time:  CPU 3460.07 s  wall 470.58 s
 SCF   energy in the final basis set = -571.66844754
 Total energy in the final basis set = -571.66844754
 
 --------------------------------------------------------------
 
                    Orbital Energies (a.u.)
 --------------------------------------------------------------
 
 Alpha MOs
 -- Occupied --
-19.243 -19.148 -19.141 -19.140 -19.130 -10.358 -10.343 -10.284
-10.249 -10.244  -1.168  -1.145  -1.066  -1.051  -1.009  -0.886
 -0.842  -0.748  -0.640  -0.608  -0.572  -0.563  -0.552  -0.541
 -0.528  -0.510  -0.501  -0.488  -0.480  -0.474  -0.453  -0.434
 -0.384  -0.378  -0.351  -0.349  -0.342  -0.333  -0.331  -0.283
 -- Virtual --
  0.025   0.060   0.076   0.083   0.086   0.101   0.105   0.112
  0.122   0.123   0.133   0.134   0.142   0.146   0.154   0.161
  0.165   0.177   0.184   0.190   0.194   0.206   0.208   0.214
  0.224   0.225   0.237   0.248   0.251   0.255   0.263   0.269
  0.273   0.280   0.292   0.298   0.305   0.311   0.320   0.323
  0.329   0.334   0.338   0.347   0.359   0.361   0.363   0.366
  0.370   0.378   0.381   0.394   0.395   0.399   0.406   0.412
  0.416   0.417   0.421   0.428   0.429   0.437   0.446   0.452
  0.455   0.466   0.474   0.474   0.485   0.488   0.493   0.497
  0.503   0.506   0.512   0.518   0.524   0.528   0.530   0.543
  0.549   0.555   0.564   0.573   0.578   0.583   0.584   0.589
  0.599   0.604   0.609   0.615   0.624   0.631   0.636   0.638
  0.648   0.660   0.672   0.674   0.683   0.688   0.689   0.701
  0.705   0.712   0.730   0.736   0.740   0.752   0.762   0.769
  0.776   0.779   0.785   0.796   0.800   0.803   0.803   0.814
  0.825   0.829   0.837   0.846   0.848   0.851   0.859   0.868
  0.869   0.879   0.887   0.898   0.905   0.915   0.923   0.929
  0.942   0.946   0.955   0.958   0.965   0.983   1.001   1.006
  1.013   1.032   1.053   1.058   1.073   1.085   1.096   1.109
  1.119   1.141   1.144   1.162   1.174   1.183   1.188   1.196
  1.220   1.232   1.237   1.255   1.275   1.285   1.305   1.325
  1.331   1.351   1.356   1.380   1.384   1.412   1.432   1.434
  1.451   1.460   1.471   1.496   1.521   1.528   1.545   1.572
  1.605   1.617   1.656   1.673   1.698   1.741   1.775   1.801
  1.829   1.866   1.889   1.905   1.921   1.927   1.934   1.942
  1.954   1.962   1.980   1.990   1.997   2.008   2.015   2.024
  2.034   2.045   2.055   2.062   2.091   2.106   2.136   2.144
  2.152   2.187   2.202   2.205   2.227   2.254   2.272   2.277
  2.288   2.311   2.322   2.357   2.364   2.379   2.392   2.444
  2.450   2.458   2.463   2.487   2.495   2.507   2.530   2.556
  2.568   2.574   2.602   2.642   2.663   2.686   2.698   2.706
  2.718   2.737   2.764   2.783   2.812   2.835   2.870   2.883
  2.897   2.921   2.939   2.954   2.976   2.996   3.007   3.025
  3.044   3.056   3.073   3.081   3.108   3.128   3.164   3.191
  3.216   3.235   3.265   3.274   3.284   3.298   3.314   3.329
  3.336   3.352   3.372   3.395   3.400   3.425   3.454   3.466
  3.481   3.491   3.516   3.524   3.541   3.552   3.565   3.581
  3.599   3.614   3.629   3.646   3.654   3.670   3.691   3.712
  3.730   3.731   3.755   3.770   3.774   3.792   3.821   3.829
  3.854   3.862   3.911   3.917   3.957   3.981   3.998   4.043
  4.096   4.120   4.125   4.139   4.168   4.180   4.244   4.298
  4.315   4.387   4.397   4.535   4.578   4.634   4.638   4.705
  4.719   4.769   4.789   4.805   4.893   4.908   4.940   5.064
  5.100   5.111   5.219   5.311   5.320   5.325   5.354   5.360
  5.364   5.371   5.379   5.400   5.425   5.441   5.499   5.521
  5.572   5.606   5.631   5.675   5.688   5.714   5.727   5.778
  5.786   5.869   6.005   6.146   6.252   6.285   6.300   6.334
  6.360   6.405   6.504   6.622   6.629   6.640   6.656   6.689
  6.700   6.724   6.736   6.755   6.775   6.783   6.818   6.882
  6.958   6.973   6.976   7.055   7.132   7.186   7.205   7.234
  7.299   7.368   7.389   7.399   7.412   7.420   7.581  22.722
 22.871  22.888  23.482  23.728  44.052  44.298  44.421  44.463
 44.604
 --------------------------------------------------------------
 
          Ground-State Mulliken Net Atomic Charges

     Atom                 Charge (a.u.)
  ----------------------------------------
      1 C                     0.918033
      2 O                    -0.777899
      3 C                    -1.027340
      4 H                     0.214522
      5 H                     0.267610
      6 H                     0.257648
      7 C                    -0.346738
      8 H                     0.332964
      9 H                     0.202384
     10 C                    -0.220586
     11 H                     0.204269
     12 H                     0.203953
     13 C                     0.079527
     14 O                    -0.699220
     15 O                    -0.703865
     16 O                    -0.390112
     17 O                    -0.774913
     18 H                     0.259761
  ----------------------------------------
  Sum of atomic charges =    -2.000000

 -----------------------------------------------------------------
                    Cartesian Multipole Moments
 -----------------------------------------------------------------
    Charge (ESU x 10^10)
                -9.6064
    Dipole Moment (Debye)
         X      -5.4504      Y       5.8913      Z      -7.1160
       Tot      10.7262
    Quadrupole Moments (Debye-Ang)
        XX    -159.4411     XY      13.4316     YY     -83.8165
        XZ     -14.4964     YZ      -0.6679     ZZ     -74.4908
    Octopole Moments (Debye-Ang^2)
       XXX    -186.8273    XXY     102.3299    XYY     -58.1385
       YYY      77.1537    XXZ     -55.2314    XYZ      34.1715
       YYZ     -39.5678    XZZ     -23.4602    YZZ       9.8566
       ZZZ     -74.7706
    Hexadecapole Moments (Debye-Ang^3)
      XXXX   -3092.7026   XXXY     387.6766   XXYY    -624.6146
      XYYY     335.8989   YYYY    -695.1504   XXXZ    -371.0241
      XXYZ      75.6338   XYYZ    -102.7876   YYYZ     103.8989
      XXZZ    -413.4961   XYZZ     109.5964   YYZZ    -180.4055
      XZZZ    -136.4565   YZZZ      64.8102   ZZZZ    -320.6635
 -----------------------------------------------------------------
 Calculating analytic gradient of the SCF energy
 Gradient of SCF Energy
            1           2           3           4           5           6
    1   0.0499626   0.0013176  -0.0157451   0.0779852  -0.0449881  -0.0202510
    2  -0.0626207   0.0049358   0.0731877  -0.0229009  -0.0625260   0.0300424
    3   0.0774886  -0.0492487  -0.0544627  -0.0058427  -0.0185518   0.0611282
            7           8           9          10          11          12
    1   0.0567629  -0.0060171  -0.0212037  -0.1067805   0.0187975   0.0297168
    2   0.0854021   0.0107265  -0.0752565  -0.0430997   0.0622856  -0.0221776
    3  -0.0462047   0.0374470  -0.0046075   0.0479148   0.0141214  -0.0616438
           13          14          15          16          17          18
    1   0.0520730  -0.0331133  -0.0323678   0.0267402  -0.0323534  -0.0005360
    2   0.0058833  -0.0481298   0.0478727   0.0194267  -0.0130363   0.0099847
    3   0.0009182   0.0130096  -0.0105877   0.0024806   0.0596847  -0.0630434
 Max gradient component =       1.068E-01
 RMS gradient           =       4.444E-02
 Computing fast CPCM-ISWIG gradient
 Updating gradient with PCM contributions...
 -- total gradient after adding PCM contribution --
---------------------------------------------------
  Atom         X              Y              Z     
---------------------------------------------------
   1       0.000036       0.000985       0.000003
   2      -0.000004      -0.000205      -0.000035
   3       0.000033      -0.000258       0.000111
   4      -0.000009      -0.000024       0.000017
   5      -0.000003      -0.000032       0.000043
   6      -0.000011       0.000023      -0.000016
   7       0.000058       0.000005       0.000017
   8      -0.000004       0.000012       0.000002
   9      -0.000022       0.000009       0.000014
  10       0.000006      -0.000012      -0.000001
  11       0.000015       0.000004      -0.000013
  12       0.000004      -0.000005      -0.000008
  13       0.000016       0.000013      -0.000004
  14      -0.000008       0.000021       0.000008
  15       0.000006       0.000022      -0.000008
  16      -0.000128      -0.000522      -0.000103
  17       0.000010      -0.000007      -0.000016
  18       0.000005      -0.000028      -0.000012
---------------------------------------------------
 Number of fixed atoms: 0
 Gradient time:  CPU 826.20 s  wall 110.10 s
 ----------------------------------------------------------------
             Standard Nuclear Orientation (Angstroms)
    I     Atom           X                Y                Z
 ----------------------------------------------------------------
    1      C      -0.9680515023     0.6364150962     0.2381687418
    2      O      -1.0072180789     0.8985671626     1.4831833636
    3      C      -1.2558579135     1.7755336112    -0.7369651314
    4      H      -2.3148161009     2.0365255954    -0.6461020192
    5      H      -0.6587679890     2.6516732662    -0.4734373278
    6      H      -1.0515134313     1.4895612002    -1.7714523184
    7      C       0.6268303988    -0.0545993738    -0.2988625752
    8      H       0.6522020555    -0.3315743241    -1.3511450137
    9      H       1.1063782224     0.9183230915    -0.1681607080
   10      C       1.2105432440    -1.0798011896     0.6350525946
   11      H       0.8846774738    -2.0893318397     0.3768778523
   12      H       0.8529434956    -0.8728195184     1.6519655149
   13      C       2.7509519688    -1.0575927258     0.7055281753
   14      O       3.3365407893     0.0340241719     0.4887658620
   15      O       3.3113823688    -2.1423938689     1.0119436533
   16      O      -1.3057119186    -0.5863466608    -0.2245932127
   17      O      -3.1639433779    -0.8047104171    -0.0961548324
   18      H      -3.1748697049    -0.9593432768     0.8555173813
 ----------------------------------------------------------------
 Nuclear Repulsion Energy =   535.3304032992 hartrees
 There are       40 alpha and       40 beta electrons
 Discretize the solute cavity surface with Lebedev spheres
	Using 110 Lebedev grid points for each H atom
	Using 110 Lebedev grid points for other atoms
	Atomic van der Waals radii will be scaled by 1.20
 Remove points where switching function is < 1.0e-08
 Keep 1081 surface tesserae and discard 899 interior tesserae
 Molecular Surface Area = 192.746 Angst**2
 Requested basis set is def2-TZVPD
 There are 175 shells and 457 basis functions
 A cutoff of  1.0D-14 yielded  13982 shell pairs
 There are     95456 function pairs (    121408 Cartesian)
 Smallest overlap matrix eigenvalue = 3.60E-06
 Guess MOs from SCF MO coefficient file
 Reading MOs from coefficient file
 Reading MOs from coefficient file
 Long-range K will be added via erf
 Coulomb attenuation parameter = 0.3 bohr**(-1)
 A restricted hybrid HF-DFT SCF calculation will be
 performed using Pulay DIIS extrapolation
 Polarizable Continuum solvation model will be applied
 Exchange:     0.1670 Hartree-Fock + 1.0000 wB97X-V + LR-HF
 Correlation:  1.0000 wB97X-V
 Using SG-2 standard quadrature grid
 Nonlocal Correlation:  VV10 with C = 0.0100 and b = 6.00
 Grid used for NLC:  SG-1 standard quadrature
 SCF converges when DIIS error is below 1.0E-08
Using Q-Chem read-in guess as SCF_GUESS READ specified.

 using 8 threads for integral computing
 -------------------------------------------------------
 OpenMP Integral computing Module                
 Release: version 1.0, May 2013, Q-Chem Inc. Pittsburgh 
 -------------------------------------------------------
 using 8 threads for integral computing
 -------------------------------------------------------
 OpenMP Integral computing Module                
 Release: version 1.0, May 2013, Q-Chem Inc. Pittsburgh 
 -------------------------------------------------------
 -------------------------------------------------------
 OpenMP BLAS3 based DFT computing Module                
 Release: version 1.0, May 2013, Q-Chem Inc. Pittsburgh 
 -------------------------------------------------------
 -------------------------------------------------------
 OpenMP BLAS3 based DFT computing Module                
 Release: version 1.0, May 2013, Q-Chem Inc. Pittsburgh 
 -------------------------------------------------------
 -------------------------------------------------------
 OpenMP BLAS3 based DFT computing Module                
 Release: version 1.0, May 2013, Q-Chem Inc. Pittsburgh 
 -------------------------------------------------------
 ---------------------------------------
  Cycle       Energy         DIIS Error
 ---------------------------------------
    1    -571.3646134238      3.32E-04
    2    -571.6613606513      3.83E-04
    3    -571.6664326699      1.76E-04
    4    -571.6672530334      1.24E-04
    5    -571.6677226905      9.51E-05
    6    -571.6680304241      7.17E-05
    7    -571.6683012638      4.25E-05
    8    -571.6684272307      1.56E-05
    9    -571.6684457406      4.57E-06
   10    -571.6684473396      1.37E-06
   11    -571.6684474884      3.22E-07
   12    -571.6684474989      1.32E-07
   13    -571.6684475008      5.73E-08
   14    -571.6684475011      2.48E-08
   15    -571.6684475011      7.27E-09 Convergence criterion met
 ---------------------------------------

************** Final PCM Free Energy Summary **************
 G_electrostatic  =      -0.30480269 hartree =    -191.26657211 kcal/mol
 G_cavitation     =       0.00000000 hartree =       0.00000000 kcal/mol
 G_dispersion     =       0.00000000 hartree =       0.00000000 kcal/mol
 G_repulsion      =       0.00000000 hartree =       0.00000000 kcal/mol
 --------------------------------------------------
 Non-electrostatic Free Energy =       0.00000000 hartree =       0.00000000 kcal/mol
 Total                         =      -0.30480269 hartree =    -191.26657211 kcal/mol
 --------------------------------------------------
 SCF Energy (H0 + V/2)                       =    -571.66844750 
 Solute Internal Energy (H0)                 =    -571.36364482 
 Total Free Energy (H0 + V/2 + non-elec)     =    -571.66844750 hartree
                                             = -358727.36507884 kcal/mol
***********************************************************

 SCF time:  CPU 3454.25 s  wall 469.47 s
 SCF   energy in the final basis set = -571.66844750
 Total energy in the final basis set = -571.66844750
 
 --------------------------------------------------------------
 
                    Orbital Energies (a.u.)
 --------------------------------------------------------------
 
 Alpha MOs
 -- Occupied --
-19.243 -19.148 -19.141 -19.140 -19.130 -10.358 -10.343 -10.284
-10.249 -10.244  -1.169  -1.145  -1.066  -1.051  -1.009  -0.886
 -0.841  -0.748  -0.640  -0.608  -0.572  -0.563  -0.552  -0.541
 -0.528  -0.510  -0.501  -0.488  -0.480  -0.474  -0.453  -0.434
 -0.384  -0.378  -0.351  -0.349  -0.342  -0.333  -0.330  -0.283
 -- Virtual --
  0.025   0.060   0.076   0.083   0.086   0.101   0.105   0.112
  0.122   0.123   0.133   0.134   0.142   0.146   0.154   0.161
  0.165   0.177   0.184   0.190   0.194   0.206   0.208   0.214
  0.224   0.225   0.237   0.248   0.251   0.255   0.263   0.269
  0.273   0.280   0.292   0.298   0.305   0.311   0.320   0.323
  0.329   0.335   0.338   0.347   0.359   0.361   0.363   0.366
  0.370   0.378   0.381   0.394   0.395   0.399   0.406   0.412
  0.416   0.417   0.421   0.428   0.429   0.437   0.446   0.452
  0.455   0.466   0.474   0.474   0.485   0.488   0.493   0.497
  0.503   0.506   0.513   0.518   0.524   0.528   0.530   0.543
  0.549   0.555   0.564   0.573   0.578   0.583   0.584   0.589
  0.599   0.604   0.609   0.615   0.624   0.631   0.636   0.638
  0.648   0.660   0.672   0.674   0.683   0.688   0.689   0.701
  0.705   0.712   0.730   0.736   0.740   0.752   0.762   0.769
  0.776   0.779   0.785   0.796   0.800   0.803   0.803   0.814
  0.825   0.829   0.837   0.846   0.848   0.851   0.859   0.868
  0.869   0.879   0.887   0.898   0.905   0.915   0.923   0.929
  0.942   0.946   0.955   0.958   0.965   0.983   1.001   1.006
  1.013   1.032   1.053   1.059   1.073   1.085   1.096   1.109
  1.119   1.141   1.144   1.162   1.174   1.183   1.188   1.196
  1.220   1.232   1.237   1.255   1.275   1.285   1.305   1.325
  1.331   1.351   1.356   1.380   1.384   1.412   1.432   1.434
  1.451   1.460   1.471   1.496   1.521   1.528   1.545   1.572
  1.605   1.618   1.655   1.673   1.697   1.741   1.775   1.801
  1.830   1.866   1.889   1.905   1.921   1.927   1.934   1.942
  1.954   1.962   1.980   1.990   1.997   2.008   2.015   2.024
  2.034   2.045   2.055   2.063   2.091   2.106   2.136   2.145
  2.152   2.188   2.202   2.205   2.227   2.254   2.272   2.277
  2.288   2.311   2.322   2.357   2.364   2.379   2.392   2.444
  2.450   2.458   2.463   2.487   2.495   2.507   2.530   2.555
  2.568   2.574   2.602   2.641   2.663   2.686   2.698   2.706
  2.718   2.736   2.764   2.783   2.812   2.834   2.870   2.883
  2.897   2.922   2.939   2.954   2.976   2.996   3.007   3.025
  3.044   3.056   3.073   3.081   3.108   3.128   3.164   3.190
  3.216   3.235   3.264   3.274   3.284   3.299   3.314   3.329
  3.336   3.352   3.372   3.395   3.400   3.425   3.454   3.466
  3.481   3.491   3.516   3.524   3.541   3.552   3.565   3.581
  3.599   3.614   3.629   3.645   3.654   3.670   3.691   3.712
  3.730   3.731   3.755   3.770   3.774   3.792   3.821   3.829
  3.854   3.862   3.911   3.917   3.957   3.981   3.998   4.043
  4.096   4.120   4.124   4.139   4.167   4.179   4.244   4.298
  4.315   4.386   4.397   4.535   4.578   4.633   4.638   4.704
  4.719   4.769   4.789   4.805   4.893   4.908   4.940   5.064
  5.099   5.112   5.218   5.311   5.320   5.325   5.354   5.360
  5.364   5.371   5.379   5.400   5.426   5.441   5.499   5.521
  5.572   5.606   5.631   5.675   5.687   5.714   5.727   5.778
  5.786   5.869   6.005   6.149   6.252   6.285   6.300   6.333
  6.360   6.405   6.505   6.622   6.629   6.640   6.656   6.689
  6.700   6.724   6.737   6.755   6.775   6.783   6.818   6.882
  6.958   6.973   6.977   7.055   7.133   7.187   7.206   7.234
  7.299   7.368   7.388   7.399   7.411   7.419   7.581  22.722
 22.871  22.888  23.484  23.728  44.052  44.298  44.421  44.464
 44.604
 --------------------------------------------------------------
 
          Ground-State Mulliken Net Atomic Charges

     Atom                 Charge (a.u.)
  ----------------------------------------
      1 C                     0.917632
      2 O                    -0.778433
      3 C                    -1.027030
      4 H                     0.214401
      5 H                     0.267540
      6 H                     0.257531
      7 C                    -0.346409
      8 H                     0.332999
      9 H                     0.202286
     10 C                    -0.220758
     11 H                     0.204494
     12 H                     0.204267
     13 C                     0.079312
     14 O                    -0.699214
     15 O                    -0.703827
     16 O                    -0.389985
     17 O                    -0.774659
     18 H                     0.259854
  ----------------------------------------
  Sum of atomic charges =    -2.000000

 -----------------------------------------------------------------
                    Cartesian Multipole Moments
 -----------------------------------------------------------------
    Charge (ESU x 10^10)
                -9.6064
    Dipole Moment (Debye)
         X      -5.4470      Y       5.8743      Z      -7.1207
       Tot      10.7183
    Quadrupole Moments (Debye-Ang)
        XX    -159.4208     XY      13.4517     YY     -83.8295
        XZ     -14.4932     YZ      -0.6665     ZZ     -74.5038
    Octopole Moments (Debye-Ang^2)
       XXX    -186.8510    XXY     102.2809    XYY     -58.1164
       YYY      77.1206    XXZ     -55.2339    XYZ      34.1631
       YYZ     -39.5594    XZZ     -23.4371    YZZ       9.8391
       ZZZ     -74.7911
    Hexadecapole Moments (Debye-Ang^3)
      XXXX   -3092.2973   XXXY     387.7690   XXYY    -624.5863
      XYYY     335.9306   YYYY    -695.1423   XXXZ    -370.9955
      XXYZ      75.6391   XYYZ    -102.7940   YYYZ     103.9263
      XXZZ    -413.5038   XYZZ     109.6130   YYZZ    -180.4199
      XZZZ    -136.4369   YZZZ      64.8384   ZZZZ    -320.7677
 -----------------------------------------------------------------
 Calculating analytic gradient of the SCF energy
 Gradient of SCF Energy
            1           2           3           4           5           6
    1   0.0500279   0.0012848  -0.0158970   0.0780284  -0.0450315  -0.0202410
    2  -0.0643456   0.0051194   0.0737264  -0.0229024  -0.0625668   0.0300105
    3   0.0772574  -0.0489914  -0.0547446  -0.0058470  -0.0185849   0.0611954
            7           8           9          10          11          12
    1   0.0566287  -0.0060193  -0.0212439  -0.1067079   0.0187970   0.0297268
    2   0.0855717   0.0107110  -0.0753237  -0.0430283   0.0622399  -0.0221809
    3  -0.0461856   0.0374680  -0.0045947   0.0478895   0.0141066  -0.0616430
           13          14          15          16          17          18
    1   0.0520074  -0.0331078  -0.0323514   0.0269829  -0.0323530  -0.0005310
    2   0.0058660  -0.0481150   0.0478622   0.0204102  -0.0130309   0.0099764
    3   0.0009126   0.0130146  -0.0105828   0.0027153   0.0596802  -0.0630656
 Max gradient component =       1.067E-01
 RMS gradient           =       4.451E-02
 Computing fast CPCM-ISWIG gradient
 Updating gradient with PCM contributions...
 -- total gradient after adding PCM contribution --
---------------------------------------------------
  Atom         X              Y              Z     
---------------------------------------------------
   1      -0.000053      -0.001009      -0.000001
   2      -0.000016       0.000168       0.000038
   3      -0.000053       0.000252      -0.000091
[...]
 O         -0.008 -0.001  0.016    0.063  0.246 -0.041   -0.003  0.033  0.018
 O          0.009 -0.002  0.018   -0.000 -0.188  0.061    0.014 -0.033  0.034
 O         -0.060  0.248  0.177    0.034  0.012  0.003   -0.035 -0.056  0.001
 O          0.045 -0.010 -0.020   -0.011  0.000  0.000    0.009  0.003 -0.004
 H          0.217  0.023 -0.016   -0.006 -0.003  0.000    0.040  0.009 -0.003
 TransDip   0.216  0.084 -0.026    0.148 -0.104 -0.028    0.052  0.053 -0.037

 Mode:                25                     26                     27
 Frequency:      1016.43                1044.27                1103.34
 Force Cnst:      0.9488                 1.0803                 1.7732
 Red. Mass:       1.5587                 1.6814                 2.4722
 IR Active:          YES                    YES                    YES
 IR Intens:       53.073                 15.134                  4.678
 Raman Active:       YES                    YES                    YES
               X      Y      Z        X      Y      Z        X      Y      Z
 C         -0.039 -0.072  0.020    0.125  0.025 -0.009   -0.056 -0.007 -0.004
 O          0.007  0.008  0.082   -0.024 -0.005  0.029    0.008  0.002  0.005
 C          0.041 -0.053 -0.152   -0.124 -0.072 -0.029    0.054  0.008  0.006
 H          0.063 -0.117  0.380    0.002  0.458 -0.209    0.012 -0.174  0.089
 H         -0.085 -0.108  0.334    0.255 -0.433  0.350   -0.080  0.119 -0.076
 H         -0.225  0.643 -0.394    0.238  0.176 -0.026   -0.089 -0.029 -0.011
 C          0.028 -0.005  0.013   -0.046 -0.015 -0.076   -0.030  0.163 -0.182
 H         -0.145 -0.009  0.015    0.308  0.111 -0.108   -0.294  0.365 -0.249
 H         -0.101  0.055 -0.020    0.007 -0.053  0.103   -0.006  0.150 -0.138
 C         -0.009 -0.001 -0.005    0.019  0.027  0.066    0.034 -0.149  0.194
 H         -0.056  0.019 -0.022    0.253 -0.028 -0.024    0.385 -0.286  0.263
 H         -0.023  0.027 -0.017   -0.051 -0.138  0.066    0.128 -0.302  0.252
 C          0.004 -0.000  0.002   -0.004 -0.012 -0.051   -0.012 -0.007 -0.058
 O          0.002  0.002 -0.001   -0.011 -0.013  0.013    0.005  0.001  0.013
 O         -0.001  0.002 -0.001    0.002  0.002  0.010   -0.019  0.013  0.007
 O         -0.006  0.056 -0.008    0.011  0.051  0.014    0.007 -0.014  0.002
 O          0.016 -0.001  0.001   -0.021 -0.005 -0.001    0.001  0.002 -0.001
 H         -0.020  0.002  0.001    0.015 -0.003 -0.000    0.010  0.003 -0.001
 TransDip   0.177 -0.116 -0.099    0.014 -0.060 -0.108   -0.047 -0.011 -0.050

 Mode:                28                     29                     30
 Frequency:      1132.16                1163.92                1258.27
 Force Cnst:      1.0272                 1.1400                 1.6774
 Red. Mass:       1.3601                 1.4283                 1.7982
 IR Active:          YES                    YES                    YES
 IR Intens:        3.661                157.402                144.649
 Raman Active:       YES                    YES                    YES
               X      Y      Z        X      Y      Z        X      Y      Z
 C          0.031  0.007  0.005   -0.080  0.105 -0.006   -0.002  0.187 -0.028
 O         -0.006 -0.002  0.009    0.012 -0.010  0.020    0.001 -0.014  0.026
 C         -0.007 -0.006 -0.007    0.045 -0.032 -0.016    0.009 -0.036 -0.014
 H          0.004  0.026  0.007    0.028 -0.154  0.196    0.024 -0.059  0.184
 H          0.017 -0.032  0.030   -0.053 -0.011  0.115    0.017 -0.102  0.182
 H          0.025  0.025 -0.009   -0.071  0.045 -0.050    0.045 -0.037  0.006
 C         -0.031  0.057 -0.034   -0.081  0.032 -0.015   -0.007  0.044  0.050
 H          0.485 -0.205  0.032    0.430 -0.125  0.026    0.207 -0.111  0.087
 H         -0.287  0.204 -0.212    0.681 -0.333  0.053   -0.269  0.223 -0.299
 C         -0.013 -0.097 -0.043   -0.018  0.051 -0.033    0.084 -0.098  0.014
 H         -0.406 -0.002  0.078    0.222 -0.055  0.074   -0.047 -0.085  0.115
 H          0.551 -0.124  0.164    0.169 -0.078  0.060   -0.588  0.332 -0.303
 C         -0.009  0.023  0.104   -0.011  0.007  0.013   -0.001 -0.012 -0.043
 O          0.020  0.016 -0.021   -0.005 -0.001 -0.003    0.003  0.003  0.006
 O         -0.010  0.003 -0.020    0.014 -0.021  0.003   -0.013  0.014  0.003
 O         -0.005  0.001  0.011    0.012 -0.047 -0.009   -0.010 -0.080 -0.019
 O         -0.003 -0.000 -0.002   -0.011  0.001  0.001   -0.005  0.003  0.001
 H          0.020  0.003 -0.002   -0.002  0.002  0.002   -0.004 -0.002  0.000
 TransDip  -0.027 -0.050  0.022   -0.334  0.221  0.028   -0.288  0.256  0.009

 Mode:                31                     32                     33
 Frequency:      1279.60                1327.54                1380.72
 Force Cnst:      1.6191                 1.7582                 1.5641
 Red. Mass:       1.6783                 1.6933                 1.3925
 IR Active:          YES                    YES                    YES
 IR Intens:       47.590                 74.624                130.562
 Raman Active:       YES                    YES                    YES
               X      Y      Z        X      Y      Z        X      Y      Z
 C          0.005  0.179 -0.018    0.025  0.092 -0.013    0.005  0.059  0.067
 O          0.003 -0.015  0.018   -0.001 -0.007  0.011    0.002 -0.013 -0.049
 C          0.002 -0.034 -0.009   -0.008 -0.011 -0.008    0.036 -0.128  0.069
 H          0.019 -0.029  0.139    0.007  0.001  0.090    0.147  0.499 -0.268
 H          0.016 -0.093  0.154    0.021 -0.057  0.084   -0.381  0.294 -0.328
 H          0.041 -0.028  0.008    0.063 -0.040  0.019   -0.154  0.485 -0.143
 C          0.046 -0.081 -0.040    0.092 -0.014  0.035    0.003  0.000  0.008
 H         -0.414  0.320 -0.150   -0.222 -0.099  0.065    0.003  0.037 -0.002
 H         -0.041 -0.072  0.190   -0.382  0.206  0.010   -0.008  0.014 -0.051
 C          0.016  0.035  0.045   -0.152  0.045 -0.070    0.001  0.000 -0.003
 H         -0.471  0.275 -0.281    0.648 -0.274  0.200    0.003 -0.009  0.030
 H          0.254 -0.266  0.188    0.343  0.022  0.106   -0.016 -0.014 -0.004
 C          0.009 -0.006  0.027   -0.047  0.026 -0.003   -0.016  0.000 -0.003
 O          0.002  0.001 -0.004    0.009  0.017 -0.005    0.005  0.008 -0.001
 O         -0.012  0.018 -0.009    0.038 -0.054  0.014    0.005 -0.008  0.002
 O         -0.017 -0.085 -0.027   -0.010 -0.045 -0.013   -0.007 -0.019 -0.007
 O          0.003  0.003  0.002    0.002  0.002  0.001   -0.001  0.001 -0.000
 H         -0.012 -0.003 -0.000   -0.007 -0.002 -0.001    0.003  0.002 -0.000
 TransDip  -0.037  0.200  0.087   -0.071  0.266 -0.026   -0.152  0.281  0.178

 Mode:                34                     35                     36
 Frequency:      1422.38                1439.69                1455.63
 Force Cnst:      9.0520                 3.4789                 1.4435
 Red. Mass:       7.5939                 2.8488                 1.1563
 IR Active:          YES                    YES                    YES
 IR Intens:      500.896                529.295                 43.086
 Raman Active:       YES                    YES                    YES
               X      Y      Z        X      Y      Z        X      Y      Z
 C         -0.015  0.032 -0.229    0.023 -0.002  0.274   -0.003  0.005 -0.051
 O         -0.003  0.017  0.136    0.005 -0.026 -0.162    0.000  0.003  0.030
 C          0.030 -0.053  0.081   -0.030  0.031 -0.104    0.005 -0.000  0.026
 H          0.020  0.040 -0.283    0.059  0.182  0.505   -0.039 -0.114 -0.175
 H         -0.045  0.069 -0.179   -0.167  0.047  0.216    0.110 -0.057 -0.043
 H         -0.181  0.156 -0.026    0.335 -0.230  0.056   -0.126  0.079 -0.027
 C          0.009  0.006  0.004    0.010 -0.002  0.027    0.020 -0.013  0.013
 H          0.053 -0.071  0.021    0.054  0.215 -0.035   -0.007  0.022  0.004
 H         -0.083  0.060 -0.036    0.055  0.022 -0.246   -0.049  0.023 -0.029
 C         -0.163 -0.012 -0.010   -0.044  0.031 -0.032    0.018  0.064 -0.059
 H          0.314 -0.128 -0.170   -0.011 -0.083  0.329   -0.188 -0.068  0.653
 H          0.211  0.270  0.052   -0.098 -0.265  0.018   -0.251 -0.606 -0.009
 C          0.523  0.017  0.043    0.147 -0.001  0.005    0.010 -0.010 -0.004
 O         -0.166 -0.229  0.040   -0.045 -0.058  0.012   -0.001  0.000  0.001
 O         -0.148  0.209 -0.063   -0.042  0.058 -0.017   -0.003  0.006 -0.002
 O          0.013 -0.016  0.009   -0.022 -0.011 -0.012    0.003  0.001  0.002
 O         -0.002  0.001  0.000    0.009  0.002 -0.001   -0.001 -0.000  0.000
 H         -0.005 -0.006 -0.000    0.011  0.007 -0.002   -0.002 -0.002  0.000
 TransDip   0.653 -0.066 -0.289    0.288  0.182  0.653   -0.071 -0.152 -0.127

 Mode:                37                     38                     39
 Frequency:      1461.23                1467.54                1481.60
 Force Cnst:      1.3972                 1.3545                 1.8129
 Red. Mass:       1.1107                 1.0675                 1.4018
 IR Active:          YES                    YES                    YES
 IR Intens:        8.802                 20.599                164.410
 Raman Active:       YES                    YES                    YES
               X      Y      Z        X      Y      Z        X      Y      Z
 C          0.000  0.005 -0.004    0.019 -0.014 -0.027    0.025  0.048  0.139
 O         -0.000  0.001  0.003   -0.003  0.003  0.013   -0.000 -0.016 -0.072
 C         -0.026 -0.018 -0.004    0.042  0.003 -0.030    0.014  0.029  0.012
 H          0.025  0.063  0.291    0.103  0.328 -0.097   -0.124 -0.352 -0.462
 H         -0.007  0.051 -0.241   -0.405  0.142  0.504    0.321 -0.228  0.140
 H          0.380  0.111  0.043   -0.352 -0.439  0.026   -0.463  0.149 -0.125
 C         -0.003  0.058 -0.060   -0.001  0.019 -0.024    0.000  0.038 -0.031
 H         -0.168 -0.554  0.115   -0.063 -0.217  0.044   -0.087 -0.293  0.064
 H         -0.057 -0.013  0.555   -0.039 -0.002  0.222   -0.035  0.008  0.278
 C          0.025 -0.006  0.000    0.012  0.001 -0.003   -0.002 -0.016  0.009
 H         -0.059 -0.005  0.086   -0.032 -0.002  0.056    0.024 -0.008 -0.060
 H         -0.080 -0.070 -0.021   -0.037 -0.052 -0.008    0.002  0.080 -0.007
 C          0.014 -0.010  0.001   -0.000 -0.004  0.000    0.028 -0.004  0.001
 O         -0.002 -0.003  0.001    0.001  0.001 -0.000   -0.008 -0.009  0.002
 O         -0.008  0.012 -0.003   -0.001  0.002 -0.001   -0.010  0.013 -0.003
 O          0.001 -0.006 -0.004    0.004  0.005  0.002   -0.012 -0.019 -0.013
 O          0.001  0.000  0.000   -0.002 -0.000  0.000    0.004  0.001  0.000
 H         -0.002  0.000  0.000   -0.002 -0.002  0.000    0.001  0.002 -0.001
 TransDip   0.051 -0.047  0.065   -0.109 -0.091 -0.034    0.004  0.125  0.391

 Mode:                40                     41                     42
 Frequency:      1590.19                3056.48                3058.58
 Force Cnst:     15.2158                 5.8646                 5.7054
 Red. Mass:      10.2129                 1.0655                 1.0351
 IR Active:          YES                    YES                    YES
 IR Intens:     1251.059                 23.804                 24.793
 Raman Active:       YES                    YES                    YES
               X      Y      Z        X      Y      Z        X      Y      Z
 C         -0.001 -0.001  0.006    0.000 -0.000 -0.001    0.001 -0.002  0.002
 O         -0.000 -0.000 -0.002    0.000  0.000  0.001   -0.000  0.000 -0.000
 C          0.001  0.001 -0.001    0.001 -0.003  0.003   -0.018  0.036 -0.029
 H         -0.001 -0.006  0.002   -0.045  0.011  0.004    0.615 -0.143 -0.059
 H          0.003 -0.001  0.000    0.023  0.033  0.011   -0.297 -0.422 -0.135
 H          0.000  0.001 -0.001    0.009 -0.013 -0.046   -0.108  0.154  0.519
 C          0.007  0.008 -0.018   -0.000 -0.001  0.002    0.000 -0.000  0.001
 H         -0.023 -0.048 -0.006    0.002 -0.008 -0.031   -0.000 -0.004 -0.012
 H          0.014  0.001  0.072    0.006  0.018  0.003    0.003  0.006  0.001
 C          0.035 -0.062  0.020    0.033  0.014 -0.063    0.002  0.001 -0.005
 H         -0.436  0.106  0.040   -0.100 -0.332 -0.098   -0.008 -0.025 -0.007
 H         -0.080 -0.085 -0.012   -0.297  0.176  0.859   -0.023  0.013  0.066
 C          0.015  0.751 -0.177   -0.000  0.000 -0.001    0.000  0.000 -0.000
 O         -0.127 -0.264  0.053   -0.000 -0.000  0.000   -0.000 -0.000 -0.000
 O          0.117 -0.256  0.071    0.000 -0.000  0.000   -0.000  0.000 -0.000
 O          0.001  0.000 -0.000    0.001  0.000  0.000   -0.001  0.000 -0.000
 O         -0.001 -0.000  0.000   -0.000 -0.000 -0.000    0.000 -0.000  0.000
 H         -0.000  0.000  0.000   -0.000 -0.000  0.001    0.000 -0.000 -0.000
 TransDip  -0.037  1.103 -0.254   -0.112  0.069 -0.084   -0.008  0.136 -0.083

 Mode:                43                     44                     45
 Frequency:      3100.80                3126.33                3136.22
 Force Cnst:      6.0076                 6.3137                 6.3856
 Red. Mass:       1.0605                 1.0964                 1.1019
 IR Active:          YES                    YES                    YES
 IR Intens:       20.685                 29.443                 25.710
 Raman Active:       YES                    YES                    YES
               X      Y      Z        X      Y      Z        X      Y      Z
 C         -0.001 -0.001 -0.000    0.000 -0.000 -0.000   -0.002  0.001  0.000
 O          0.000  0.000 -0.000    0.000 -0.000  0.000    0.000 -0.000 -0.000
 C          0.003  0.000 -0.000    0.000 -0.001 -0.001   -0.085 -0.002  0.035
 H         -0.026  0.007  0.003   -0.004  0.001  0.000    0.738 -0.183 -0.061
 H         -0.006 -0.008 -0.004    0.004  0.006  0.002    0.213  0.332  0.108
 H         -0.001  0.001  0.003   -0.002  0.002  0.008    0.080 -0.135 -0.465
 C         -0.029 -0.055  0.031    0.001  0.007  0.013   -0.001 -0.001  0.001
 H         -0.007 -0.137 -0.463    0.003 -0.043 -0.156    0.000 -0.004 -0.012
 H          0.366  0.781  0.120   -0.017 -0.032 -0.003    0.013  0.022  0.004
 C         -0.001  0.004  0.003   -0.014 -0.076 -0.044   -0.000 -0.000  0.000
 H         -0.009 -0.027 -0.006    0.274  0.852  0.221    0.001  0.005  0.001
 H          0.016 -0.008 -0.042   -0.117  0.052  0.313    0.001 -0.001 -0.004
 C         -0.001 -0.001  0.000    0.001 -0.002 -0.000    0.000 -0.000 -0.000
 O         -0.000  0.001 -0.000   -0.000  0.000 -0.000   -0.000  0.000 -0.000
 O          0.000 -0.000  0.000   -0.000  0.001 -0.000   -0.000  0.000  0.000
 O          0.000  0.000 -0.000   -0.000  0.000  0.000   -0.000 -0.000 -0.000
 O         -0.000  0.000 -0.000    0.000  0.000 -0.000    0.000 -0.000  0.000
 H         -0.000 -0.000  0.000    0.000  0.000 -0.000    0.000 -0.000  0.000
 TransDip   0.041 -0.099  0.099   -0.054 -0.164 -0.023   -0.134 -0.001  0.091

 Mode:                46                     47                     48
 Frequency:      3147.91                3178.08                3845.93
 Force Cnst:      6.4502                 6.5773                 9.3017
 Red. Mass:       1.1048                 1.1053                 1.0674
 IR Active:          YES                    YES                    YES
 IR Intens:       33.132                 56.532                 43.627
 Raman Active:       YES                    YES                    YES
               X      Y      Z        X      Y      Z        X      Y      Z
 C         -0.000 -0.002 -0.002   -0.000 -0.001 -0.001   -0.001  0.000  0.000
 O          0.000  0.000  0.000    0.000  0.000  0.001    0.000 -0.000 -0.000
 C         -0.025 -0.062 -0.066   -0.001 -0.004 -0.005    0.000  0.000 -0.000
 H          0.031 -0.019 -0.014    0.005 -0.002 -0.000    0.000 -0.001  0.000
 H          0.407  0.588  0.174    0.024  0.035  0.010   -0.000 -0.000 -0.000
 H         -0.133  0.174  0.629   -0.010  0.012  0.046   -0.000  0.000  0.000
 C          0.001  0.003  0.005   -0.016 -0.053 -0.075    0.000 -0.000 -0.000
 H          0.000 -0.015 -0.056   -0.005  0.222  0.830   -0.000  0.000  0.001
 H         -0.010 -0.022 -0.003    0.205  0.423  0.047   -0.002  0.001  0.001
 C          0.000  0.002  0.001   -0.001 -0.013 -0.008   -0.000 -0.000  0.000
 H         -0.006 -0.019 -0.005    0.039  0.131  0.033    0.000  0.001  0.000
 H          0.002 -0.001 -0.005   -0.023  0.010  0.069    0.000 -0.000 -0.000
 C         -0.000  0.000  0.000    0.000 -0.000  0.000    0.000 -0.000 -0.000
 O          0.000 -0.000  0.000   -0.000  0.000 -0.000   -0.000  0.000 -0.000
 O          0.000 -0.000  0.000   -0.000  0.000 -0.000   -0.000  0.000 -0.000
 O          0.000  0.000  0.000   -0.002 -0.000  0.000    0.001  0.000  0.000
 O         -0.000 -0.000 -0.000    0.001  0.000  0.000    0.000  0.010 -0.062
 H         -0.000 -0.000  0.000    0.000  0.000 -0.001   -0.005 -0.161  0.985
 TransDip  -0.057 -0.112 -0.135    0.184 -0.030 -0.152   -0.187 -0.072  0.068

 STANDARD THERMODYNAMIC QUANTITIES AT   298.15 K  AND     1.00 ATM

   This Molecule has  1 Imaginary Frequencies
   Zero point vibrational energy:       81.205 kcal/mol

   Atom    1 Element C  Has Mass   12.00000
   Atom    2 Element O  Has Mass   15.99491
   Atom    3 Element C  Has Mass   12.00000
   Atom    4 Element H  Has Mass    1.00783
   Atom    5 Element H  Has Mass    1.00783
   Atom    6 Element H  Has Mass    1.00783
   Atom    7 Element C  Has Mass   12.00000
   Atom    8 Element H  Has Mass    1.00783
   Atom    9 Element H  Has Mass    1.00783
   Atom   10 Element C  Has Mass   12.00000
   Atom   11 Element H  Has Mass    1.00783
   Atom   12 Element H  Has Mass    1.00783
   Atom   13 Element C  Has Mass   12.00000
   Atom   14 Element O  Has Mass   15.99491
   Atom   15 Element O  Has Mass   15.99491
   Atom   16 Element O  Has Mass   15.99491
   Atom   17 Element O  Has Mass   15.99491
   Atom   18 Element H  Has Mass    1.00783
   Molecular Mass:   148.037190 amu
   Principal axes and moments of inertia in amu*Bohr^2:
                             1           2           3
    Eigenvalues --      705.15770  2921.51265  3240.51934
          X               0.95448     0.28121    -0.09945
          Y              -0.26338     0.95108     0.16150
          Z               0.14000    -0.12795     0.98185
   Rotational Symmetry Number is   1
   The Molecule is an Asymmetric Top
   Translational Enthalpy:        0.889 kcal/mol
   Rotational Enthalpy:           0.889 kcal/mol
   Vibrational Enthalpy:         86.677 kcal/mol
   gas constant (RT):             0.592 kcal/mol
   Translational Entropy:        40.887  cal/mol.K
   Rotational Entropy:           30.280  cal/mol.K
   Vibrational Entropy:          36.933  cal/mol.K

   Total Enthalpy:               89.047 kcal/mol
   Total Entropy:               108.100  cal/mol.K
Archival summary:
1\1\g6-22\FREQ\ProcedureUnspecified\BasisUnspecified\558(2-,1)\lmgong\ThuMay907:39:002019ThuMay907:39:002019\0\\#,FREQ,ProcedureUnspecified,BasisUnspecified,\\-2,1\O\C,1,1.35121\O,2,1.27271,1,120.876\C,2,1.52612,1,114.171,3,-149.742,0\H,4,1.09251,2,109.93,1,-159.992,0\H,4,1.09257,2,111.995,1,-37.8511,0\H,4,1.09442,2,107.895,1,81.8421,0\C,2,1.8196,1,76.9097,3,109.387,0\H,8,1.08842,2,113.738,1,58.5964,0\H,8,1.09253,2,90.6155,1,170.156,0\C,8,1.50465,2,114.58,1,-76.0612,0\H,11,1.09179,8,111.559,2,90.4733,0\H,11,1.09765,8,108.673,2,-27.5419,0\C,11,1.54218,8,113.957,2,-145.836,0\O,14,1.25759,11,118.017,8,28.5714,0\O,14,1.25887,11,116.32,8,-153.163,0\O,1,1.87542,2,109.245,3,72.5688,0\H,17,0.964215,1,95.5949,2,-76.3286,0\\\@

 Total job time:  71045.35s(wall), 495178.27s(cpu) 
 Thu May  9 07:39:00 2019

        *************************************************************
        *                                                           *
        *  Thank you very much for using Q-Chem.  Have a nice day.  *
        *                                                           *
        *************************************************************


