
Running Job 1 of 1 run.in
qchem run.in_34424.0 ./run.d/ 1
/home/leeping/opt/qchem/5.0.2-openmp/exe/qcprog.exe_s run.in_34424.0 ./run.d/
Check license passed

                  Welcome to Q-Chem
     A Quantum Leap Into The Future Of Chemistry


 Q-Chem 5.0, Q-Chem, Inc., Pleasanton, CA (2017)

 Yihan Shao,  Zhengting Gan,  E. Epifanovsky,  A. T. B. Gilbert,  M. Wormit,  
 J. Kussmann,  A. W. Lange,  A. Behn,  Jia Deng,  Xintian Feng,  D. Ghosh,  
 M. Goldey,  P. R. Horn,  L. D. Jacobson,  I. Kaliman,  T. Kus,  A. Landau,  
 Jie Liu,  E. I. Proynov,  R. M. Richard,  R. P. Steele,  E. J. Sundstrom,  
 H. L. Woodcock III,  P. M. Zimmerman,  D. Zuev,  B. Albrecht,  E. Alguire,  
 S. A. Baeppler,  D. Barton,  Z. Benda,  Y. A. Bernard,  E. J. Berquist,  
 K. B. Bravaya,  H. Burton,  D. Casanova,  Chun-Min Chang,  Yunqing Chen,  
 A. Chien,  K. D. Closser,  M. P. Coons,  S. Dasgupta,  A. L. Dempwolff,  
 M. Diedenhofen,  Hainam Do,  R. G. Edgar,  Po-Tung Fang,  S. Fatehi,  
 Qingguo Feng,  J. Fosso-Tande,  Qinghui Ge,  A. Ghysels,  G. Gidofalvi,  
 J. Gomes,  J. Gonthier,  A. Gunina,  M. W. D. Hanson-Heine,  
 P. H. P. Harbach,  A. W. Hauser,  J. E. Herr,  E. G. Hohenstein,  
 Z. C. Holden,  Kerwin Hui,  T.-C. Jagau,  Hyunjun Ji,  B. Kaduk,  
 K. Khistyaev,  Jaehoon Kim,  P. Klunzinger,  K. Koh,  D. Kosenkov,  
 L. Koulias,  T. Kowalczyk,  C. M. Krauter,  A. Kunitsa,  Ka Un Lao,  
 A. Laurent,  K. V. Lawler,  Joonho Lee,  D. Lefrancois,  S. Lehtola,  
 D. S. Levine,  Yi-Pei Li,  You-Sheng Lin,  Fenglai Liu,  E. Livshits,  
 A. Luenser,  P. Manohar,  E. Mansoor,  S. F. Manzer,  Shan-Ping Mao,  
 Yuezhi Mao,  N. Mardirossian,  A. V. Marenich,  T. Markovich,  
 L. A. Martinez-Martinez,  S. A. Maurer,  N. J. Mayhall,  S. C. McKenzie,  
 J.-M. Mewes,  A. F. Morrison,  J. W. Mullinax,  K. Nanda,  
 T. S. Nguyen-Beck,  R. Olivares-Amaya,  J. A. Parkhill,  T. M. Perrine,  
 F. Plasser,  S. Prager,  A. Prociuk,  E. Ramos,  D. R. Rehn,  F. Rob,  
 M. Schneider,  N. Sergueev,  S. M. Sharada,  S. Sharma,  D. W. Small,  
 T. Stauch,  T. Stein,  Yu-Chuan Su,  A. J. W. Thom,  A. Tkatchenko,  
 T. Tsuchimochi,  L. Vogt,  O. Vydrov,  M. A. Watson,  J. Wenzel,  
 M. de Wergifosse,  T. A. Wesolowski,  A. White,  J. Witte,  A. Yamada,  
 Jun Yang,  K. Yao,  S. Yeganeh,  S. R. Yost,  Zhi-Qiang You,  A. Zech,  
 Igor Ying Zhang,  Xing Zhang,  Yan Zhao,  Ying Zhu,  B. R. Brooks,  
 G. K. L. Chan,  C. J. Cramer,  M. S. Gordon,  W. J. Hehre,  A. Klamt,  
 M. W. Schmidt,  C. D. Sherrill,  D. G. Truhlar,  A. Aspuru-Guzik,  R. Baer,  
 A. T. Bell,  N. A. Besley,  Jeng-Da Chai,  R. A. DiStasio Jr.,  A. Dreuw,  
 B. D. Dunietz,  T. R. Furlani,  Chao-Ping Hsu,  Yousung Jung,  Jing Kong,  
 D. S. Lambrecht,  WanZhen Liang,  C. Ochsenfeld,  V. A. Rassolov,  
 L. V. Slipchenko,  J. E. Subotnik,  T. Van Voorhis,  J. M. Herbert,  
 A. I. Krylov,  P. M. W. Gill,  M. Head-Gordon

 Contributors to earlier versions of Q-Chem not listed above: 
 R. D. Adamson,  B. Austin,  J. Baker,  G. J. O. Beran,  K. Brandhorst,  
 S. T. Brown,  E. F. C. Byrd,  A. K. Chakraborty,  C.-L. Cheng,  
 Siu Hung Chien,  D. M. Chipman,  D. L. Crittenden,  H. Dachsel,  
 R. J. Doerksen,  A. D. Dutoi,  L. Fusti-Molnar,  W. A. Goddard III,  
 A. Golubeva-Zadorozhnaya,  S. R. Gwaltney,  G. Hawkins,  A. Heyden,  
 S. Hirata,  G. Kedziora,  F. J. Keil,  C. Kelley,  Jihan Kim,  R. A. King,  
 R. Z. Khaliullin,  P. P. Korambath,  W. Kurlancheek,  A. M. Lee,  M. S. Lee,  
 S. V. Levchenko,  Ching Yeh Lin,  D. Liotard,  R. C. Lochan,  I. Lotan,  
 P. E. Maslen,  N. Nair,  D. P. O'Neill,  D. Neuhauser,  E. Neuscamman,  
 C. M. Oana,  R. Olson,  B. Peters,  R. Peverati,  P. A. Pieniazek,  
 Y. M. Rhee,  J. Ritchie,  M. A. Rohrdanz,  E. Rosta,  N. J. Russ,  
 H. F. Schaefer III,  N. E. Schultz,  N. Shenvi,  A. C. Simmonett,  A. Sodt,  
 D. Stuck,  K. S. Thanthiriwatte,  V. Vanovschi,  Tao Wang,  A. Warshel,  
 C. F. Williams,  Q. Wu,  X. Xu,  W. Zhang

 Please cite Q-Chem as follows:
 Y. Shao et al., Mol. Phys. 113, 184-215 (2015)
 DOI: 10.1080/00268976.2014.952696

 Q-Chem 5.0.2 for Intel X86 EM64T Linux

 Parts of Q-Chem use Armadillo 5.200.1 (Boston Tea Smuggler).
 http://arma.sourceforge.net/

 Q-Chem begins on Fri Jul 20 09:00:49 2018  

Host: 
0

     Scratch files written to ./run.d//
 Dec517 15110_ 26548  26544 5633   
Processing $rem in /home/leeping/opt/qchem/5.0.2-openmp/config/preferences.
 MEM_STATIC 2000
 MEM_TOTAL  8000
 SYMMETRY   OFF
 SYM_IGNORE TRUE 
Symmetry turned off for PCM/SM12/SMD calculation

Checking the input file for inconsistencies... 	...done.

--------------------------------------------------------------
User input:
--------------------------------------------------------------
$molecule
0 1
C        0.3952724250    0.8060922863   -0.1761544526
C        0.1065510249   -0.4601351223   -0.9179997753
H        1.3757414801    0.7452764742    0.2957143743
H        0.3635210863    1.6517569870   -0.8679478803
H       -0.3795051891    0.9486375792    0.5852157668
C       -0.5340703715   -1.6581559922    2.3223545215
C       -1.7505768765   -1.7075323758    1.7905449291
H        0.0789119515   -2.5499395350    2.4234989902
H       -0.1169515206   -0.7161560159    2.6687840251
H       -1.2037056614   -1.2709957388   -2.0238053718
H       -2.1708881379   -2.6482304711    1.4408903120
O       -1.0593335225   -0.4159942983   -1.5833894102
O        0.8117880726   -1.4502710977   -0.9403596182
O        3.5500592651    2.0548916098   -1.6352214445
H        3.1229409570    2.3964164662   -0.8438434797
C       -2.6367265888   -0.4943330183    1.6221749908
O       -3.7673879674   -0.6899896553    1.0957380188
O       -2.2068752678    0.6311023769    2.0006393877
K       -4.4053756954    1.9216853659    1.1381557951
K        3.5410502680   -0.8617562615   -1.6994986366
O        2.0243918079    0.8062774705   -3.3632423672
H        1.1332690673    1.1783812761   -3.4581595854
H        2.5189131009    1.4017388422   -2.7252525917
O        5.6884114123    0.9334258668   -1.1866616714
H        6.0273002005    1.1304326062   -0.3083561110
H        4.7769418620    1.5031389190   -1.3359398876
O        5.2174785132   -2.2799525332   -3.3256470870
H        6.0129109038   -1.7055143668   -3.2862633384
H        5.5439745568   -3.1851800815   -3.3007881587
O        7.1762542250   -0.3969389362   -2.9504275519
H        7.4101362518    0.1797447550   -3.6857323682
H        6.6843668952    0.1714173008   -2.3027706901
O        3.0090826431   -1.7772624919    0.8565612824
H        3.2254170188   -2.4907097254    1.4667482200
H        2.0852099209   -1.9191293053    0.6029016765
O       -0.7154256556    1.7478323695   -3.6087693125
H       -0.9116499616    2.6538339593   -3.3427552517
H       -1.1487859809    1.1912369025   -2.9464254363
$end

$rem
jobtype               force
method                wb97x-v
basis                 gen
symmetry              off
sym_ignore            true
incdft                false
incfock               0
!scf_algorithm        diis_gdm
scf_convergence       8
thresh                14
!purecart             112
max_scf_cycles        1000
geom_opt_max_cycles   500
geom_opt_dmax         100
geom_opt_tol_gradient 10
solvent_method        pcm
ideriv                1
rpath_tol_displacement 1000
rpath_max_cycles      50
rpath_direction       1
!scf_guess            read
scf_guess             read
geom_opt_hessian      read
$end

$pcm
theory              cosmo
method              iswig
Radii               bondi
vdwScale            1.20
hpoints             110
heavypoints         110
$end

$solvent
dielectric 78.400000
$end

$basis
****
H 0
S 3 1.00
34.061341      .60251978E-02
5.1235746      .45021094E-01
1.1646626      .20189726
S 1 1.00
.32723041      1.0000000
S 1 1.00
.10307241      1.0000000
P 1 1.00
.80   1.00
****
C 0
S 6 1.00
13575.349682      .22245814352E-03
2035.2333680      .17232738252E-02
463.22562359      .89255715314E-02
131.20019598      .35727984502E-01
42.853015891      .11076259931
15.584185766      .24295627626
S 2 1.00
6.2067138508      .41440263448
2.5764896527      .23744968655
S 1 1.00
.57696339419      1.0000000000
S 1 1.00
.22972831358      1.0000000000
S 1 1.00
.95164440028E-01  1.0000000000
P 4 1.00
34.697232244      .53333657805E-02
7.9582622826      .35864109092E-01
2.3780826883      .14215873329
.81433208183      .34270471845
P 1 1.00
.28887547253      .46445822433
P 1 1.00
.10056823671      .24955789874
D 1 1.00
.80   1.00
****
O 0
S 6 1.00
27032.382631      .21726302465E-03
4052.3871392      .16838662199E-02
922.32722710      .87395616265E-02
261.24070989      .35239968808E-01
85.354641351      .11153519115
31.035035245      .25588953961
S 2 1.00
12.260860728      .39768730901
4.9987076005      .24627849430
S 1 1.00
1.1703108158      1.0000000000
S 1 1.00
.46474740994      1.0000000000
S 1 1.00
.18504536357      1.0000000000
P 4 1.00
63.274954801      .60685103418E-02
14.627049379      .41912575824E-01
4.4501223456      .16153841088
1.5275799647      .35706951311
P 1 1.00
.52935117943      .44794207502
P 1 1.00
.17478421270      .24446069663
D 1 1.00
1.20   1.00
****
K     0
S   8   1.00
153976.1832500              0.23662636107E-03
23082.4976720              0.18342929137E-02
5253.2344745              0.95310527769E-02
1486.9550133              0.38638406980E-01
484.06333726             0.12480768502
173.56653980             0.29278861009
67.116381464            0.40633425860
26.339502054            0.2007721586
S   4   1.00
172.87693567            -0.24200960936E-01
53.058649063           -0.11553095040
7.9212753964           0.57455545175
3.2108880472           0.57023185107
S   2   1.00
4.5662070895          -0.22615763466
0.70209907282          0.75528392045
S   1   1.00
0.28258942635          1.0000000
S   1   1.00
0.035805824617         1.0000000
S   1   1.00
0.015819213245         1.0000000
P   6   1.00
728.18449873             0.26150689792E-02
172.13265061             0.20673630835E-01
54.829847075            0.93205603870E-01
20.166266494            0.25436518210
7.8610728806           0.39131132810
3.1105213132           0.22481345943
P   3   1.00
11.757337492           -0.25777289217E-01
1.5139617411           0.57359428604
0.58328591795          1.0798320002
P   1   1.00
0.21570478076          1.0000000
P   1   1.00
0.0417370              1.0000000
****
$end

--------------------------------------------------------------
 ----------------------------------------------------------------
             Standard Nuclear Orientation (Angstroms)
    I     Atom           X                Y                Z
 ----------------------------------------------------------------
    1      C       0.3952724250     0.8060922863    -0.1761544526
    2      C       0.1065510249    -0.4601351223    -0.9179997753
    3      H       1.3757414801     0.7452764742     0.2957143743
    4      H       0.3635210863     1.6517569870    -0.8679478803
    5      H      -0.3795051891     0.9486375792     0.5852157668
    6      C      -0.5340703715    -1.6581559922     2.3223545215
    7      C      -1.7505768765    -1.7075323758     1.7905449291
    8      H       0.0789119515    -2.5499395350     2.4234989902
    9      H      -0.1169515206    -0.7161560159     2.6687840251
   10      H      -1.2037056614    -1.2709957388    -2.0238053718
   11      H      -2.1708881379    -2.6482304711     1.4408903120
   12      O      -1.0593335225    -0.4159942983    -1.5833894102
   13      O       0.8117880726    -1.4502710977    -0.9403596182
   14      O       3.5500592651     2.0548916098    -1.6352214445
   15      H       3.1229409570     2.3964164662    -0.8438434797
   16      C      -2.6367265888    -0.4943330183     1.6221749908
   17      O      -3.7673879674    -0.6899896553     1.0957380188
   18      O      -2.2068752678     0.6311023769     2.0006393877
   19      K      -4.4053756954     1.9216853659     1.1381557951
   20      K       3.5410502680    -0.8617562615    -1.6994986366
   21      O       2.0243918079     0.8062774705    -3.3632423672
   22      H       1.1332690673     1.1783812761    -3.4581595854
   23      H       2.5189131009     1.4017388422    -2.7252525917
   24      O       5.6884114123     0.9334258668    -1.1866616714
   25      H       6.0273002005     1.1304326062    -0.3083561110
   26      H       4.7769418620     1.5031389190    -1.3359398876
   27      O       5.2174785132    -2.2799525332    -3.3256470870
   28      H       6.0129109038    -1.7055143668    -3.2862633384
   29      H       5.5439745568    -3.1851800815    -3.3007881587
   30      O       7.1762542250    -0.3969389362    -2.9504275519
   31      H       7.4101362518     0.1797447550    -3.6857323682
   32      H       6.6843668952     0.1714173008    -2.3027706901
   33      O       3.0090826431    -1.7772624919     0.8565612824
   34      H       3.2254170188    -2.4907097254     1.4667482200
   35      H       2.0852099209    -1.9191293053     0.6029016765
   36      O      -0.7154256556     1.7478323695    -3.6087693125
   37      H      -0.9116499616     2.6538339593    -3.3427552517
   38      H      -1.1487859809     1.1912369025    -2.9464254363
 ----------------------------------------------------------------
 Nuclear Repulsion Energy =  1814.5742902462 hartrees
 There are       88 alpha and       88 beta electrons

 Q-Chem warning in module /scratch/svnadmin/15110_zgan/qchem/forms1/BasisType.C, line 1685:

 Setting pure/cartesian flag to 2111 for general basis


 Requested basis set is non-standard
 There are 244 shells and 460 basis functions

 Total QAlloc Memory Limit   8000 MB
 Mega-Array Size      1956 MB
 MEM_STATIC part      2000 MB
 Discretize the solute cavity surface with Lebedev spheres
	Using 110 Lebedev grid points for each H atom
	Using 110 Lebedev grid points for other atoms
	Atomic van der Waals radii will be scaled by 1.20
 Remove points where switching function is < 1.0e-08
 Keep 2181 surface tesserae and discard 1999 interior tesserae
 Molecular Surface Area = 452.323 Angst**2
 A cutoff of  1.0D-14 yielded  19846 shell pairs
 There are     68472 function pairs (     72703 Cartesian)
 
 -------------------------------------------------------
 OpenMP Integral Computing Module                       
 Release: version 1.0, May 2013, Q-Chem Inc. Pittsburgh 
 -------------------------------------------------------
 Integral Job Info:
 Integral job number is                      11
 Integral operator is                         1
 short-range coefficients              16700000
 long-range coefficients              100000000
 Omega coefficients                         300
 if combine SR and LR in K                    1
 Integral screening is                        0
 Integral computing path is                   2
 max size of driver memory is            800000
 size of driver memory is                593474
 size of scratch memory is             17833000
 max col of scratch BK array               1296
 max len of scratch array in speh3          155
 max len of scratch index in speh4           18
 max int batch size is                      520
 min int batch size is                       52
 fixed nKL is                                52
 max L of basis functions is                  2
 order of int derivative is                   0
 number of shells is                        244
 number of basis is                         476
 number of cartesian basis is               476
 number of contracted shell pairs         19846
 number of primitive shell pairs          44589
 maxK2 (contraction) of shell pair           64
 max number of K2 of shell pair               1
 max number of CS2 of shell pair           4606
 max number of PS2 of shell pair           6180
 mem total for path MDJ                  647614
 -------------------------------------------------------
 Smallest overlap matrix eigenvalue = 2.17E-04

 Scale SEOQF with 1.000000e-02/1.000000e-01/1.000000e-01

 Standard Electronic Orientation quadrupole field applied
 Nucleus-field energy     =    -0.0000000438 hartrees
 Guess MOs from SCF MO coefficient file
 Reading MOs from coefficient file
 Reading MOs from coefficient file
 Long-range K will be added via erf
 Coulomb attenuation parameter = 0.3 bohr**(-1)
 A restricted hybrid HF-DFT SCF calculation will be
 performed using Pulay DIIS extrapolation
 Polarizable Continuum solvation model will be applied
 Exchange:     0.1670 Hartree-Fock + 1.0000 wB97X-V + LR-HF
 Correlation:  1.0000 wB97X-V
 Using SG-2 standard quadrature grid
 Nonlocal Correlation:  VV10 with C = 0.0100 and b = 6.00
 Grid used for NLC:  SG-1 standard quadrature
 SCF converges when DIIS error is below 1.0E-08
Using Q-Chem read-in guess as SCF_GUESS READ specified.

 using 16 threads for integral computing
 -------------------------------------------------------
 OpenMP Integral computing Module                
 Release: version 1.0, May 2013, Q-Chem Inc. Pittsburgh 
 -------------------------------------------------------
 using 16 threads for integral computing
 -------------------------------------------------------
 OpenMP Integral computing Module                
 Release: version 1.0, May 2013, Q-Chem Inc. Pittsburgh 
 -------------------------------------------------------
 -------------------------------------------------------
 OpenMP BLAS3 based DFT computing Module                
 Release: version 1.0, May 2013, Q-Chem Inc. Pittsburgh 
 -------------------------------------------------------
 -------------------------------------------------------
 OpenMP BLAS3 based DFT computing Module                
 Release: version 1.0, May 2013, Q-Chem Inc. Pittsburgh 
 -------------------------------------------------------
 -------------------------------------------------------
 OpenMP BLAS3 based DFT computing Module                
 Release: version 1.0, May 2013, Q-Chem Inc. Pittsburgh 
 -------------------------------------------------------
 ---------------------------------------
  Cycle       Energy         DIIS Error
 ---------------------------------------
    1   -2229.9722265644      3.92E-04
    2   -2230.0480427650      4.13E-04
    3   -2230.0528187936      1.90E-04
    4   -2230.0535846213      1.43E-04
    5   -2230.0540854725      1.07E-04
    6   -2230.0543025206      8.72E-05
    7   -2230.0545084208      6.40E-05
    8   -2230.0546831720      3.41E-05
    9   -2230.0547441970      1.18E-05
   10   -2230.0547519171      3.08E-06
   11   -2230.0547524628      5.46E-07
   12   -2230.0547524792      1.38E-07
   13   -2230.0547524803      1.85E-08
   14   -2230.0547524803      4.99E-09 Convergence criterion met
 ---------------------------------------

************** Final PCM Free Energy Summary **************
 G_electrostatic  =      -0.08246604 hartree =     -51.74822288 kcal/mol
 G_cavitation     =       0.00000000 hartree =       0.00000000 kcal/mol
 G_dispersion     =       0.00000000 hartree =       0.00000000 kcal/mol
 G_repulsion      =       0.00000000 hartree =       0.00000000 kcal/mol
 --------------------------------------------------
 Non-electrostatic Free Energy =       0.00000000 hartree =       0.00000000 kcal/mol
 Total                         =      -0.08246604 hartree =     -51.74822288 kcal/mol
 --------------------------------------------------
 SCF Energy (H0 + V/2)                       =   -2230.05475248 
 Solute Internal Energy (H0)                 =   -2229.97228644 
 Total Free Energy (H0 + V/2 + non-elec)     =   -2230.05475248 hartree
                                             = -1399380.47802994 kcal/mol
***********************************************************

 SCF time:  CPU 3453.29 s  wall 297.54 s
 SCF   energy in the final basis set = -2230.05475248
 Total energy in the final basis set = -2230.05475248
 
 --------------------------------------------------------------
 
                    Orbital Energies (a.u.)
 --------------------------------------------------------------
 
 Alpha MOs
 -- Occupied --
*******-129.701 -19.274 -19.220 -19.216 -19.211 -19.198 -19.197
-19.172 -19.168 -19.155 -19.155 -19.126 -13.302 -13.239 -10.638
-10.638 -10.637 -10.575 -10.574 -10.574 -10.425 -10.361 -10.274
-10.269 -10.267  -1.510  -1.448  -1.260  -1.167  -1.166  -1.144
 -1.139  -1.133  -1.120  -1.096  -1.091  -1.069  -1.021  -0.904
 -0.895  -0.864  -0.862  -0.859  -0.804  -0.802  -0.801  -0.744
 -0.731  -0.654  -0.649  -0.641  -0.631  -0.624  -0.622  -0.614
 -0.613  -0.605  -0.601  -0.575  -0.554  -0.529  -0.524  -0.521
 -0.517  -0.514  -0.511  -0.505  -0.501  -0.497  -0.487  -0.473
 -0.472  -0.453  -0.449  -0.431  -0.429  -0.422  -0.420  -0.408
 -0.405  -0.397  -0.373  -0.363  -0.362  -0.354  -0.352  -0.351
 -- Virtual --
  0.018   0.035   0.055   0.078   0.083   0.084   0.090   0.111
  0.112   0.114   0.125   0.141   0.146   0.150   0.153   0.167
  0.172   0.179   0.188   0.195   0.203   0.206   0.214   0.228
  0.237   0.242   0.247   0.253   0.253   0.271   0.285   0.287
  0.291   0.296   0.303   0.307   0.324   0.327   0.338   0.347
  0.350   0.364   0.373   0.381   0.400   0.423   0.427   0.432
  0.438   0.444   0.455   0.460   0.465   0.471   0.474   0.482
  0.484   0.496   0.498   0.500   0.510   0.522   0.523   0.528
  0.532   0.540   0.545   0.549   0.557   0.559   0.562   0.570
  0.571   0.581   0.585   0.597   0.605   0.605   0.609   0.626
  0.630   0.636   0.641   0.649   0.652   0.653   0.656   0.662
  0.668   0.673   0.680   0.683   0.689   0.694   0.699   0.707
  0.724   0.726   0.734   0.739   0.747   0.751   0.758   0.771
  0.777   0.779   0.790   0.798   0.814   0.829   0.830   0.838
  0.843   0.851   0.858   0.862   0.871   0.888   0.895   0.903
  0.920   0.948   0.966   0.973   1.017   1.034   1.049   1.057
  1.070   1.106   1.203   1.247   1.307   1.318   1.362   1.377
  1.389   1.408   1.418   1.434   1.438   1.443   1.450   1.462
  1.471   1.478   1.484   1.491   1.496   1.499   1.514   1.519
  1.521   1.525   1.544   1.561   1.567   1.578   1.602   1.608
  1.621   1.628   1.646   1.662   1.669   1.676   1.686   1.689
  1.695   1.700   1.706   1.711   1.716   1.723   1.727   1.739
  1.765   1.770   1.787   1.803   1.826   1.830   1.848   1.872
  1.875   1.882   1.890   1.899   1.902   1.907   1.944   1.958
  1.972   1.984   1.998   2.053   2.061   2.072   2.098   2.100
  2.122   2.129   2.134   2.141   2.168   2.171   2.185   2.196
  2.204   2.215   2.237   2.245   2.259   2.284   2.294   2.303
  2.318   2.324   2.343   2.354   2.366   2.386   2.392   2.406
  2.410   2.420   2.432   2.463   2.473   2.481   2.489   2.493
  2.524   2.532   2.535   2.555   2.575   2.582   2.589   2.609
  2.617   2.646   2.652   2.706   2.720   2.733   2.741   2.750
  2.761   2.768   2.769   2.777   2.779   2.781   2.790   2.796
  2.805   2.811   2.815   2.817   2.827   2.827   2.836   2.846
  2.860   2.863   2.867   2.876   2.886   2.889   2.903   2.912
  2.921   2.923   2.927   2.940   2.949   2.957   2.964   2.980
  3.000   3.006   3.019   3.021   3.024   3.045   3.056   3.059
  3.065   3.071   3.082   3.085   3.089   3.090   3.101   3.105
  3.114   3.122   3.130   3.135   3.139   3.149   3.160   3.166
  3.167   3.178   3.186   3.186   3.197   3.209   3.217   3.234
  3.237   3.248   3.275   3.289   3.302   3.306   3.322   3.325
  3.331   3.334   3.342   3.344   3.355   3.365   3.380   3.392
  3.410   3.447   3.471   3.492   3.508   3.531   3.544   3.636
  3.692   3.751   4.079   4.198   4.204   4.211   4.256   4.257
  4.288   4.341   4.349   4.377   4.430   4.471   4.554   4.558
  4.575   4.613   4.649   4.791  21.884  22.166  22.239  22.247
 22.307  43.366  43.384  43.391  43.444  43.490  43.517  43.541
 43.699  43.712  43.734  43.768
 --------------------------------------------------------------
 
          Ground-State Mulliken Net Atomic Charges

     Atom                 Charge (a.u.)
  ----------------------------------------
      1 C                    -0.385056
      2 C                     0.272915
      3 H                     0.143760
      4 H                     0.146932
      5 H                     0.165704
      6 C                    -0.296653
      7 C                    -0.175174
      8 H                     0.143673
      9 H                     0.151223
     10 H                     0.344755
     11 H                     0.154063
     12 O                    -0.304202
     13 O                    -0.421369
     14 O                    -0.908512
     15 H                     0.272103
     16 C                     0.232347
     17 O                    -0.567914
     18 O                    -0.564537
     19 K                     0.945063
     20 K                     0.848608
     21 O                    -0.648808
     22 H                     0.279161
     23 H                     0.284229
     24 O                    -0.720493
     25 H                     0.305478
     26 H                     0.287570
     27 O                    -0.634993
     28 H                     0.298545
     29 H                     0.311740
     30 O                    -0.630968
     31 H                     0.314458
     32 H                     0.305367
     33 O                    -0.604395
     34 H                     0.316290
     35 H                     0.302693
     36 O                    -0.592154
     37 H                     0.320043
     38 H                     0.308509
  ----------------------------------------
  Sum of atomic charges =    -0.000000

 -----------------------------------------------------------------
                    Cartesian Multipole Moments
 -----------------------------------------------------------------
    Charge (ESU x 10^10)
                 0.0000
    Dipole Moment (Debye)
         X     -12.6579      Y       3.0019      Z       5.9047
       Tot      14.2863
    Quadrupole Moments (Debye-Ang)
        XX    -106.6097     XY     -60.7782     YY     -94.3423
        XZ      23.9719     YZ      13.3128     ZZ    -153.2928
    Octopole Moments (Debye-Ang^2)
       XXX    -679.5122    XXY     138.0994    XYY    -169.4168
       YYY      25.6150    XXZ     173.5844    XYZ     -10.9420
       YYZ      93.4247    XZZ    -141.3568    YZZ     -14.3216
       ZZZ     331.7721
    Hexadecapole Moments (Debye-Ang^3)
      XXXX   -8639.2157   XXXY    -597.2582   XXYY   -1241.5978
      XYYY    -136.0970   YYYY   -1226.2653   XXXZ    1607.6690
      XXYZ     342.0094   XYYZ     551.0202   YYYZ     193.8939
      XXZZ   -1820.5056   XYZZ       5.2249   YYZZ    -691.2956
      XZZZ    1801.2497   YZZZ     191.5835   ZZZZ   -3713.1162
 -----------------------------------------------------------------
 Calculating analytic gradient of the SCF energy
 Gradient of SCF Energy
            1           2           3           4           5           6
    1   0.0010488   0.0010245   0.0003326  -0.0009967  -0.0008454  -0.0063854
    2  -0.0044839  -0.0006206   0.0004134   0.0040944   0.0005962   0.0050495
    3   0.0016626   0.0004513   0.0005083  -0.0026978  -0.0001879  -0.0011559
            7           8           9          10          11          12
    1   0.0024171   0.0024322   0.0003981  -0.0034749   0.0021318   0.0013474
    2  -0.0019031  -0.0027632  -0.0025808  -0.0080492   0.0020696   0.0080282
    3   0.0007092   0.0001480  -0.0007731  -0.0060621   0.0010319   0.0057888
           13          14          15          16          17          18
    1   0.0013403   0.0012854   0.0009684  -0.0036027   0.0057068  -0.0000084
    2   0.0000367   0.0056521  -0.0024055   0.0030727  -0.0032847  -0.0061641
    3  -0.0015236  -0.0005266  -0.0026762  -0.0023864   0.0033687   0.0024961
           19          20          21          22          23          24
    1  -0.0032857  -0.0023714  -0.0019078   0.0071665  -0.0083366  -0.0031219
    2   0.0066048  -0.0056192   0.0102815  -0.0040307  -0.0057814   0.0051973
    3  -0.0023760   0.0059667   0.0007116   0.0041944  -0.0055063   0.0014073
           25          26          27          28          29          30
    1  -0.0013648   0.0048948   0.0028056  -0.0045610   0.0013021  -0.0046306
    2  -0.0012991  -0.0020015   0.0093704  -0.0067674  -0.0034160   0.0074356
    3  -0.0014230   0.0024853  -0.0026327  -0.0005544   0.0010850   0.0038799
           31          32          33          34          35          36
    1  -0.0000679   0.0069879   0.0037906   0.0011018  -0.0040782   0.0103682
    2  -0.0014538  -0.0057407   0.0120091  -0.0092264  -0.0025737  -0.0083954
    3   0.0015408  -0.0063028  -0.0062761   0.0066639   0.0005273  -0.0159095
           37          38
    1  -0.0046208  -0.0051897
    2   0.0110323  -0.0023836
    3   0.0065784   0.0077643
 Max gradient component =       1.591E-02
 RMS gradient           =       4.736E-03
 Computing fast CPCM-ISWIG gradient
 Updating gradient with PCM contributions...
 -- total gradient after adding PCM contribution --
---------------------------------------------------
  Atom         X              Y              Z     
---------------------------------------------------
   1      -0.000004       0.000002       0.000004
   2      -0.000016       0.000009      -0.000013
   3       0.000003       0.000000      -0.000001
   4       0.000004      -0.000002      -0.000001
   5       0.000002      -0.000001       0.000000
   6       0.000001       0.000001      -0.000004
   7       0.000004       0.000003      -0.000008
   8       0.000001       0.000001       0.000000
   9       0.000002       0.000002      -0.000004
  10      -0.000001      -0.000000      -0.000000
  11      -0.000003      -0.000001       0.000003
  12       0.000011       0.000001       0.000005
  13       0.000052      -0.000117       0.000100
  14      -0.000013      -0.000011       0.000002
  15       0.000006       0.000008      -0.000000
  16       0.000002       0.000007       0.000006
  17      -0.000011      -0.000002       0.000010
  18      -0.000003      -0.000005       0.000004
  19       0.000006      -0.000001      -0.000011
  20      -0.000084       0.000191      -0.000164
  21       0.000020      -0.000012       0.000005
  22       0.000002       0.000008       0.000005
  23      -0.000020       0.000000      -0.000009
  24       0.000057      -0.000042      -0.000013
  25      -0.000012       0.000001       0.000005
  26      -0.000037       0.000026      -0.000002
  27       0.000004       0.000020      -0.000029
  28      -0.000005      -0.000023       0.000025
  29      -0.000001      -0.000003      -0.000002
  30       0.000020      -0.000040       0.000080
  31       0.000006      -0.000008      -0.000006
  32       0.000008      -0.000015      -0.000000
  33       0.000001      -0.000000       0.000004
  34       0.000002       0.000000       0.000002
  35      -0.000000      -0.000000      -0.000000
  36       0.000006      -0.000000       0.000007
  37      -0.000004       0.000001       0.000001
  38      -0.000004       0.000002      -0.000002
---------------------------------------------------
 Number of fixed atoms: 0
 Gradient time:  CPU 650.45 s  wall 54.13 s
Archival summary:
1\1\c5-71\JobtypUnspecified\ProcedureUnspecified\BasisUnspecified\211520\leeping\FriJul2009:06:422018FriJul2009:06:422018\0\\#,JobtypUnspecified,ProcedureUnspecified,BasisUnspecified,\\0,1\K\H,1,2.68707\O,2,1.00307,1,86.0017\H,3,0.970345,2,106.698,1,139.793,0\O,2,1.63647,1,80.9238,3,-175.645,0\H,5,0.96195,2,114.199,1,-104.045,0\H,5,1.37813,2,123.08,1,35.6095,0\O,7,1.08519,5,171.041,2,-11.6122,0\H,8,0.96181,7,108.302,5,-144.111,0\H,8,1.67877,7,130.176,5,52.9097,0\O,10,0.99219,8,171.153,7,-85.0571,0\H,11,0.963295,10,106.004,8,136.574,0\H,11,1.78284,10,102.704,8,13.2848,0\O,13,0.981959,11,164.907,10,5.98363,0\H,14,0.962629,13,105.922,11,-142.693,0\O,4,1.94027,3,174.357,2,-128.749,0\H,16,0.96442,4,116.626,3,147.49,0\H,16,0.967625,4,101.816,3,33.7541,0\O,18,2.10928,16,149.502,4,-9.00106,0\H,19,0.972542,18,111.775,16,-83.0009,0\C,19,1.34312,18,112.457,16,39.8869,0\O,21,1.21582,19,121.41,18,-123.399,0\C,21,1.49567,19,112.672,18,57.0651,0\H,23,1.08981,21,109.949,19,-176.539,0\H,23,1.09304,21,109.601,19,-55.4082,0\H,23,1.09557,21,108.562,19,63.0405,0\H,22,2.05501,21,122.102,19,-152.361,0\O,27,0.968509,22,138.971,21,-92.9188,0\H,28,0.963398,27,105.76,22,-156.383,0\O,26,2.33314,23,163.291,21,7.20495,0\C,30,1.26278,26,101.893,23,-3.20142,0\O,31,1.26246,30,124.608,26,-115.958,0\C,31,1.51177,30,118.836,26,63.5574,0\H,33,1.08804,31,115.569,30,-179.615,0\C,33,1.32859,31,123.468,30,0.174617,0\H,35,1.08686,33,121.545,31,-179.657,0\H,35,1.08691,33,120.743,31,0.104905,0\K,32,2.68881,31,93.1753,30,2.36602,0\\\@

 Total job time:  352.73s(wall), 4115.82s(cpu) 
 Fri Jul 20 09:06:42 2018

        *************************************************************
        *                                                           *
        *  Thank you very much for using Q-Chem.  Have a nice day.  *
        *                                                           *
        *************************************************************


