
Running Job 1 of 1 qc-freq1.in
qchem qc-freq1.in_11609.0 /scratch/lmgong/1862651/qc-freq1.d/ 1
/home/leeping/opt/qchem/5.0.2-openmp/exe/qcprog.exe_s qc-freq1.in_11609.0 /scratch/lmgong/1862651/qc-freq1.d/
Check license passed

                  Welcome to Q-Chem
     A Quantum Leap Into The Future Of Chemistry


 Q-Chem 5.0, Q-Chem, Inc., Pleasanton, CA (2017)

 Yihan Shao,  Zhengting Gan,  E. Epifanovsky,  A. T. B. Gilbert,  M. Wormit,  
 J. Kussmann,  A. W. Lange,  A. Behn,  Jia Deng,  Xintian Feng,  D. Ghosh,  
 M. Goldey,  P. R. Horn,  L. D. Jacobson,  I. Kaliman,  T. Kus,  A. Landau,  
 Jie Liu,  E. I. Proynov,  R. M. Richard,  R. P. Steele,  E. J. Sundstrom,  
 H. L. Woodcock III,  P. M. Zimmerman,  D. Zuev,  B. Albrecht,  E. Alguire,  
 S. A. Baeppler,  D. Barton,  Z. Benda,  Y. A. Bernard,  E. J. Berquist,  
 K. B. Bravaya,  H. Burton,  D. Casanova,  Chun-Min Chang,  Yunqing Chen,  
 A. Chien,  K. D. Closser,  M. P. Coons,  S. Dasgupta,  A. L. Dempwolff,  
 M. Diedenhofen,  Hainam Do,  R. G. Edgar,  Po-Tung Fang,  S. Fatehi,  
 Qingguo Feng,  J. Fosso-Tande,  Qinghui Ge,  A. Ghysels,  G. Gidofalvi,  
 J. Gomes,  J. Gonthier,  A. Gunina,  M. W. D. Hanson-Heine,  
 P. H. P. Harbach,  A. W. Hauser,  J. E. Herr,  E. G. Hohenstein,  
 Z. C. Holden,  Kerwin Hui,  T.-C. Jagau,  Hyunjun Ji,  B. Kaduk,  
 K. Khistyaev,  Jaehoon Kim,  P. Klunzinger,  K. Koh,  D. Kosenkov,  
 L. Koulias,  T. Kowalczyk,  C. M. Krauter,  A. Kunitsa,  Ka Un Lao,  
 A. Laurent,  K. V. Lawler,  Joonho Lee,  D. Lefrancois,  S. Lehtola,  
 D. S. Levine,  Yi-Pei Li,  You-Sheng Lin,  Fenglai Liu,  E. Livshits,  
 A. Luenser,  P. Manohar,  E. Mansoor,  S. F. Manzer,  Shan-Ping Mao,  
 Yuezhi Mao,  N. Mardirossian,  A. V. Marenich,  T. Markovich,  
 L. A. Martinez-Martinez,  S. A. Maurer,  N. J. Mayhall,  S. C. McKenzie,  
 J.-M. Mewes,  A. F. Morrison,  J. W. Mullinax,  K. Nanda,  
 T. S. Nguyen-Beck,  R. Olivares-Amaya,  J. A. Parkhill,  T. M. Perrine,  
 F. Plasser,  S. Prager,  A. Prociuk,  E. Ramos,  D. R. Rehn,  F. Rob,  
 M. Schneider,  N. Sergueev,  S. M. Sharada,  S. Sharma,  D. W. Small,  
 T. Stauch,  T. Stein,  Yu-Chuan Su,  A. J. W. Thom,  A. Tkatchenko,  
 T. Tsuchimochi,  L. Vogt,  O. Vydrov,  M. A. Watson,  J. Wenzel,  
 M. de Wergifosse,  T. A. Wesolowski,  A. White,  J. Witte,  A. Yamada,  
 Jun Yang,  K. Yao,  S. Yeganeh,  S. R. Yost,  Zhi-Qiang You,  A. Zech,  
 Igor Ying Zhang,  Xing Zhang,  Yan Zhao,  Ying Zhu,  B. R. Brooks,  
 G. K. L. Chan,  C. J. Cramer,  M. S. Gordon,  W. J. Hehre,  A. Klamt,  
 M. W. Schmidt,  C. D. Sherrill,  D. G. Truhlar,  A. Aspuru-Guzik,  R. Baer,  
 A. T. Bell,  N. A. Besley,  Jeng-Da Chai,  R. A. DiStasio Jr.,  A. Dreuw,  
 B. D. Dunietz,  T. R. Furlani,  Chao-Ping Hsu,  Yousung Jung,  Jing Kong,  
 D. S. Lambrecht,  WanZhen Liang,  C. Ochsenfeld,  V. A. Rassolov,  
 L. V. Slipchenko,  J. E. Subotnik,  T. Van Voorhis,  J. M. Herbert,  
 A. I. Krylov,  P. M. W. Gill,  M. Head-Gordon

 Contributors to earlier versions of Q-Chem not listed above: 
 R. D. Adamson,  B. Austin,  J. Baker,  G. J. O. Beran,  K. Brandhorst,  
 S. T. Brown,  E. F. C. Byrd,  A. K. Chakraborty,  C.-L. Cheng,  
 Siu Hung Chien,  D. M. Chipman,  D. L. Crittenden,  H. Dachsel,  
 R. J. Doerksen,  A. D. Dutoi,  L. Fusti-Molnar,  W. A. Goddard III,  
 A. Golubeva-Zadorozhnaya,  S. R. Gwaltney,  G. Hawkins,  A. Heyden,  
 S. Hirata,  G. Kedziora,  F. J. Keil,  C. Kelley,  Jihan Kim,  R. A. King,  
 R. Z. Khaliullin,  P. P. Korambath,  W. Kurlancheek,  A. M. Lee,  M. S. Lee,  
 S. V. Levchenko,  Ching Yeh Lin,  D. Liotard,  R. C. Lochan,  I. Lotan,  
 P. E. Maslen,  N. Nair,  D. P. O'Neill,  D. Neuhauser,  E. Neuscamman,  
 C. M. Oana,  R. Olson,  B. Peters,  R. Peverati,  P. A. Pieniazek,  
 Y. M. Rhee,  J. Ritchie,  M. A. Rohrdanz,  E. Rosta,  N. J. Russ,  
 H. F. Schaefer III,  N. E. Schultz,  N. Shenvi,  A. C. Simmonett,  A. Sodt,  
 D. Stuck,  K. S. Thanthiriwatte,  V. Vanovschi,  Tao Wang,  A. Warshel,  
 C. F. Williams,  Q. Wu,  X. Xu,  W. Zhang

 Please cite Q-Chem as follows:
 Y. Shao et al., Mol. Phys. 113, 184-215 (2015)
 DOI: 10.1080/00268976.2014.952696

 Q-Chem 5.0.2 for Intel X86 EM64T Linux

 Parts of Q-Chem use Armadillo 5.200.1 (Boston Tea Smuggler).
 http://arma.sourceforge.net/

 Q-Chem begins on Fri Mar 20 12:17:55 2020  

Host: 
0

     Scratch files written to /scratch/lmgong/1862651/qc-freq1.d//
 Dec517 15110_ 26548  26544 5633   
Processing $rem in /home/leeping/opt/qchem/5.0.2-openmp/config/preferences.
 MEM_STATIC 2000
 MEM_TOTAL  8000
 SYMMETRY   OFF
 SYM_IGNORE TRUE 
Symmetry turned off for PCM/SM12/SMD calculation

Checking the input file for inconsistencies... 	...done.

--------------------------------------------------------------
User input:
--------------------------------------------------------------
$molecule
-2 1
O        0.6088437149   -0.1947404138   -0.1019133657
C       -0.7065010765    0.2578526194   -0.3514919377
H       -0.7106455064    1.3386087770   -0.5457893286
H       -1.3469148186    0.0723839657    0.5220472365
H       -1.2864784848   -1.5609027409   -1.3371234145
C       -2.6713515936    0.0076368093   -1.8911176952
O       -3.6209952097   -0.4800156753   -1.2216274665
O       -2.7817981895    0.8888064013   -2.7841205472
O        1.0785315428    1.6079554700    1.2979954979
H        2.6406793999   -1.3239105769    1.0075431788
C        2.6306889361   -0.2336709004    1.0987702068
H        3.1467754554    0.0509943506    2.0193823343
H        3.1615432188    0.1984124678    0.2461139159
C        1.2008914958    0.3151717214    1.1417063734
H       -0.5970919522   -0.3233500826   -2.4169467908
O        0.5242276179   -0.4154124087    2.2202296954
H       -0.0190202583    0.2627750589    2.6395643498
C       -1.2571893956   -0.4895415349   -1.5604203885
$end

$rem
jobtype               freq
method                wb97x-v
basis                 def2-tzvpd
symmetry              off
sym_ignore            true
incdft                false
incfock               0
!scf_algorithm        diis_gdm
scf_convergence       8
thresh                14
!purecart             112
max_scf_cycles        1000
geom_opt_max_cycles   500
geom_opt_dmax         100
geom_opt_tol_gradient 10
solvent_method        pcm
ideriv                1
rpath_tol_displacement 1000
rpath_max_cycles      100
rpath_direction       1
!scf_guess            read
scf_guess             read
$end

$pcm
theory              cosmo
method              iswig
Radii               bondi
vdwScale            1.20
hpoints             110
heavypoints         110
$end

$solvent
dielectric 78.400000
$end

--------------------------------------------------------------
 ----------------------------------------------------------------
             Standard Nuclear Orientation (Angstroms)
    I     Atom           X                Y                Z
 ----------------------------------------------------------------
    1      O       0.6088437149    -0.1947404138    -0.1019133657
    2      C      -0.7065010765     0.2578526194    -0.3514919377
    3      H      -0.7106455064     1.3386087770    -0.5457893286
    4      H      -1.3469148186     0.0723839657     0.5220472365
    5      H      -1.2864784848    -1.5609027409    -1.3371234145
    6      C      -2.6713515936     0.0076368093    -1.8911176952
    7      O      -3.6209952097    -0.4800156753    -1.2216274665
    8      O      -2.7817981895     0.8888064013    -2.7841205472
    9      O       1.0785315428     1.6079554700     1.2979954979
   10      H       2.6406793999    -1.3239105769     1.0075431788
   11      C       2.6306889361    -0.2336709004     1.0987702068
   12      H       3.1467754554     0.0509943506     2.0193823343
   13      H       3.1615432188     0.1984124678     0.2461139159
   14      C       1.2008914958     0.3151717214     1.1417063734
   15      H      -0.5970919522    -0.3233500826    -2.4169467908
   16      O       0.5242276179    -0.4154124087     2.2202296954
   17      H      -0.0190202583     0.2627750589     2.6395643498
   18      C      -1.2571893956    -0.4895415349    -1.5604203885
 ----------------------------------------------------------------
 Nuclear Repulsion Energy =   539.6904018698 hartrees
 There are       40 alpha and       40 beta electrons
 Requested basis set is def2-TZVPD
 There are 175 shells and 457 basis functions

 Total QAlloc Memory Limit   8000 MB
 Mega-Array Size      1956 MB
 MEM_STATIC part      2000 MB
 Discretize the solute cavity surface with Lebedev spheres
	Using 110 Lebedev grid points for each H atom
	Using 110 Lebedev grid points for other atoms
	Atomic van der Waals radii will be scaled by 1.20
 Remove points where switching function is < 1.0e-08
 Keep 1085 surface tesserae and discard 895 interior tesserae
 Molecular Surface Area = 191.348 Angst**2
 A cutoff of  1.0D-14 yielded  13833 shell pairs
 There are     94259 function pairs (    119809 Cartesian)
 
 -------------------------------------------------------
 OpenMP Integral Computing Module                       
 Release: version 1.0, May 2013, Q-Chem Inc. Pittsburgh 
 -------------------------------------------------------
 Integral Job Info:
 Integral job number is                      11
 Integral operator is                         1
 short-range coefficients              16700000
 long-range coefficients              100000000
 Omega coefficients                         300
 if combine SR and LR in K                    1
 Integral screening is                        0
 Integral computing path is                   2
 max size of driver memory is            800000
 size of driver memory is                776718
 size of scratch memory is              4473992
 max col of scratch BK array              10000
 max len of scratch array in speh3          662
 max len of scratch index in speh4           32
 max int batch size is                      520
 min int batch size is                       52
 fixed nKL is                                52
 max L of basis functions is                  3
 order of int derivative is                   0
 number of shells is                        175
 number of basis is                         517
 number of cartesian basis is               517
 number of contracted shell pairs         13833
 number of primitive shell pairs          28018
 maxK2 (contraction) of shell pair           36
 max number of K2 of shell pair               1
 max number of CS2 of shell pair           2294
 max number of PS2 of shell pair           3222
 mem total for path MDJ                  771976
 -------------------------------------------------------
 Smallest overlap matrix eigenvalue = 4.84E-06
 Guess MOs from SCF MO coefficient file
 Reading MOs from coefficient file
 Reading MOs from coefficient file
 Long-range K will be added via erf
 Coulomb attenuation parameter = 0.3 bohr**(-1)
 A restricted hybrid HF-DFT SCF calculation will be
 performed using Pulay DIIS extrapolation
 Polarizable Continuum solvation model will be applied
 Exchange:     0.1670 Hartree-Fock + 1.0000 wB97X-V + LR-HF
 Correlation:  1.0000 wB97X-V
 Using SG-2 standard quadrature grid
 Nonlocal Correlation:  VV10 with C = 0.0100 and b = 6.00
 Grid used for NLC:  SG-1 standard quadrature
 SCF converges when DIIS error is below 1.0E-08
Using Q-Chem read-in guess as SCF_GUESS READ specified.

 using 16 threads for integral computing
 -------------------------------------------------------
 OpenMP Integral computing Module                
 Release: version 1.0, May 2013, Q-Chem Inc. Pittsburgh 
 -------------------------------------------------------
 using 16 threads for integral computing
 -------------------------------------------------------
 OpenMP Integral computing Module                
 Release: version 1.0, May 2013, Q-Chem Inc. Pittsburgh 
 -------------------------------------------------------
 -------------------------------------------------------
 OpenMP BLAS3 based DFT computing Module                
 Release: version 1.0, May 2013, Q-Chem Inc. Pittsburgh 
 -------------------------------------------------------
 -------------------------------------------------------
 OpenMP BLAS3 based DFT computing Module                
 Release: version 1.0, May 2013, Q-Chem Inc. Pittsburgh 
 -------------------------------------------------------
 -------------------------------------------------------
 OpenMP BLAS3 based DFT computing Module                
 Release: version 1.0, May 2013, Q-Chem Inc. Pittsburgh 
 -------------------------------------------------------
 ---------------------------------------
  Cycle       Energy         DIIS Error
 ---------------------------------------
    1    -571.5137600590      3.18E-04
    2    -571.8132347653      3.40E-04
    3    -571.8176047588      1.56E-04
    4    -571.8183051106      1.15E-04
    5    -571.8187256406      8.89E-05
    6    -571.8189610269      7.05E-05
    7    -571.8191282903      5.37E-05
    8    -571.8192211574      4.16E-05
    9    -571.8192876773      3.00E-05
   10    -571.8193186755      2.27E-05
   11    -571.8193367478      1.70E-05
   12    -571.8193456505      1.33E-05
   13    -571.8193508365      1.06E-05
   14    -571.8193544710      8.19E-06
   15    -571.8193563895      6.56E-06
   16    -571.8193579027      4.91E-06
   17    -571.8193598221      2.89E-09 Convergence criterion met
 ---------------------------------------

************** Final PCM Free Energy Summary **************
 G_electrostatic  =      -0.30560155 hartree =    -191.76787003 kcal/mol
 G_cavitation     =       0.00000000 hartree =       0.00000000 kcal/mol
 G_dispersion     =       0.00000000 hartree =       0.00000000 kcal/mol
 G_repulsion      =       0.00000000 hartree =       0.00000000 kcal/mol
 --------------------------------------------------
 Non-electrostatic Free Energy =       0.00000000 hartree =       0.00000000 kcal/mol
 Total                         =      -0.30560155 hartree =    -191.76787003 kcal/mol
 --------------------------------------------------
 SCF Energy (H0 + V/2)                       =    -571.81935982 
 Solute Internal Energy (H0)                 =    -571.51375827 
 Total Free Energy (H0 + V/2 + non-elec)     =    -571.81935982 hartree
                                             = -358822.06398953 kcal/mol
***********************************************************

 SCF time:  CPU 4097.45 s  wall 292.97 s
 SCF   energy in the final basis set = -571.81935982
 Total energy in the final basis set = -571.81935982
 
 --------------------------------------------------------------
 
                    Orbital Energies (a.u.)
 --------------------------------------------------------------
 
 Alpha MOs
 -- Occupied --
-19.181 -19.181 -19.140 -19.140 -19.104 -10.367 -10.341 -10.290
-10.244 -10.232  -1.169  -1.143  -1.094  -1.049  -1.030  -0.877
 -0.831  -0.732  -0.667  -0.617  -0.584  -0.572  -0.545  -0.544
 -0.524  -0.513  -0.505  -0.483  -0.475  -0.463  -0.450  -0.439
 -0.409  -0.384  -0.355  -0.344  -0.337  -0.330  -0.315  -0.309
 -- Virtual --
  0.060   0.073   0.083   0.086   0.102   0.103   0.108   0.124
  0.126   0.130   0.136   0.139   0.146   0.151   0.157   0.165
  0.179   0.183   0.184   0.191   0.204   0.206   0.219   0.229
  0.232   0.238   0.248   0.256   0.262   0.269   0.271   0.277
  0.287   0.291   0.300   0.304   0.313   0.318   0.326   0.330
  0.337   0.341   0.345   0.350   0.355   0.364   0.367   0.370
  0.373   0.379   0.380   0.387   0.395   0.397   0.404   0.407
  0.412   0.418   0.422   0.425   0.431   0.433   0.435   0.444
  0.449   0.451   0.461   0.465   0.470   0.485   0.488   0.490
  0.501   0.506   0.513   0.518   0.520   0.522   0.534   0.537
  0.539   0.544   0.548   0.564   0.570   0.574   0.577   0.583
  0.589   0.603   0.610   0.617   0.623   0.628   0.642   0.647
  0.653   0.664   0.669   0.679   0.685   0.690   0.694   0.703
  0.715   0.720   0.725   0.732   0.741   0.745   0.754   0.765
  0.767   0.776   0.780   0.788   0.797   0.800   0.809   0.810
  0.812   0.818   0.827   0.834   0.851   0.853   0.860   0.863
  0.874   0.877   0.884   0.896   0.903   0.919   0.922   0.928
  0.936   0.943   0.955   0.973   0.979   0.990   1.003   1.027
  1.035   1.043   1.064   1.072   1.076   1.085   1.100   1.112
  1.121   1.135   1.151   1.177   1.184   1.195   1.211   1.217
  1.230   1.254   1.269   1.272   1.290   1.303   1.312   1.323
  1.334   1.347   1.352   1.376   1.380   1.399   1.405   1.421
  1.440   1.456   1.482   1.487   1.500   1.515   1.550   1.573
  1.594   1.628   1.639   1.653   1.670   1.688   1.768   1.848
  1.850   1.881   1.894   1.903   1.908   1.915   1.937   1.957
  1.969   1.981   1.995   1.996   2.004   2.016   2.021   2.028
  2.051   2.070   2.085   2.090   2.122   2.143   2.161   2.172
  2.192   2.209   2.227   2.241   2.246   2.255   2.269   2.297
  2.331   2.341   2.356   2.368   2.386   2.410   2.419   2.426
  2.456   2.481   2.484   2.506   2.534   2.544   2.573   2.586
  2.612   2.625   2.648   2.656   2.684   2.695   2.708   2.721
  2.739   2.747   2.762   2.785   2.818   2.836   2.871   2.893
  2.916   2.930   2.935   2.955   2.973   2.985   3.007   3.023
  3.048   3.062   3.095   3.118   3.134   3.150   3.163   3.199
  3.219   3.236   3.266   3.287   3.306   3.309   3.352   3.358
  3.372   3.397   3.403   3.418   3.435   3.446   3.454   3.467
  3.492   3.513   3.530   3.546   3.551   3.583   3.584   3.598
  3.620   3.637   3.668   3.671   3.679   3.695   3.701   3.707
  3.723   3.738   3.755   3.772   3.788   3.810   3.825   3.859
  3.882   3.899   3.900   3.921   3.940   3.993   4.037   4.067
  4.082   4.146   4.179   4.199   4.220   4.220   4.255   4.281
  4.333   4.373   4.513   4.594   4.610   4.644   4.659   4.684
  4.734   4.755   4.826   4.838   4.875   4.934   4.965   5.026
  5.101   5.151   5.171   5.319   5.353   5.357   5.374   5.394
  5.400   5.415   5.445   5.502   5.567   5.598   5.605   5.676
  5.711   5.715   5.724   5.762   5.775   5.811   5.891   5.983
  5.992   6.079   6.236   6.271   6.296   6.302   6.323   6.380
  6.434   6.456   6.515   6.562   6.622   6.633   6.691   6.693
  6.756   6.768   6.800   6.827   6.873   6.934   6.945   6.970
  6.982   7.040   7.060   7.137   7.231   7.262   7.291   7.337
  7.353   7.375   7.414   7.438   7.512   7.664   7.697  22.685
 22.847  22.915  23.192  23.713  44.321  44.406  44.434  44.493
 44.669
 --------------------------------------------------------------
 
          Ground-State Mulliken Net Atomic Charges

     Atom                 Charge (a.u.)
  ----------------------------------------
      1 O                    -0.281328
      2 C                    -0.504008
      3 H                     0.175268
      4 H                     0.176486
      5 H                     0.185022
      6 C                     0.184161
      7 O                    -0.707116
      8 O                    -0.701164
      9 O                    -0.875424
     10 H                     0.214572
     11 C                    -1.044375
     12 H                     0.235288
     13 H                     0.222134
     14 C                     0.632691
     15 H                     0.165725
     16 O                    -0.557703
     17 H                     0.351096
     18 C                     0.128676
  ----------------------------------------
  Sum of atomic charges =    -2.000000

 -----------------------------------------------------------------
                    Cartesian Multipole Moments
 -----------------------------------------------------------------
    Charge (ESU x 10^10)
                -9.6064
    Dipole Moment (Debye)
         X      11.3527      Y      -5.3016      Z       4.5641
       Tot      13.3350
    Quadrupole Moments (Debye-Ang)
        XX    -129.8172     XY      -2.9566     YY     -81.6135
        XZ     -39.2030     YZ       3.5690     ZZ     -98.9251
    Octopole Moments (Debye-Ang^2)
       XXX     297.2709    XXY     -18.8256    XYY      25.6748
       YYY     -49.5048    XXZ     114.2040    XYZ     -27.9952
       YYZ       2.7390    XZZ      90.8777    YZZ     -34.1040
       ZZZ      91.6093
    Hexadecapole Moments (Debye-Ang^3)
      XXXX   -2505.0368   XXXY     -26.9082   XXYY    -383.1930
      XYYY     -32.5968   YYYY    -314.7364   XXXZ    -880.5123
      XXYZ      39.0824   XYYZ    -214.6749   YYYZ     -22.4534
      XXZZ    -704.5722   XYZZ      56.5408   YYZZ    -275.9001
      XZZZ    -743.7909   YZZZ      84.4934   ZZZZ   -1274.9970
 -----------------------------------------------------------------
 Calculating analytic gradient of the SCF energy
 Gradient of SCF Energy
            1           2           3           4           5           6
    1   0.0021761  -0.1074308   0.0044269   0.0406993  -0.0040842  -0.0589157
    2   0.0005579   0.0720627  -0.0673466   0.0094401   0.0684150   0.0392431
    3   0.0070237   0.0298739   0.0033660  -0.0589129  -0.0173512   0.0184842
            7           8           9          10          11          12
    1   0.0547903   0.0160222   0.0214069   0.0018357   0.1321688  -0.0386661
    2   0.0185070  -0.0419467  -0.0159406   0.0758449  -0.0043562  -0.0231732
    3  -0.0261551   0.0420357  -0.0040086   0.0061294   0.0208017  -0.0687495
           13          14          15          16          17          18
    1  -0.0372807  -0.1123416  -0.0513882  -0.0161950   0.0435854   0.1091906
    2  -0.0339666   0.0055664  -0.0116344   0.0351006  -0.0421327  -0.0842406
    3   0.0654185  -0.0278605   0.0510623   0.0327791  -0.0284807  -0.0454559
 Max gradient component =       1.322E-01
 RMS gradient           =       4.918E-02
 Computing fast CPCM-ISWIG gradient
 Updating gradient with PCM contributions...
 -- total gradient after adding PCM contribution --
---------------------------------------------------
  Atom         X              Y              Z     
---------------------------------------------------
   1       0.000012       0.000009       0.000015
   2      -0.000015       0.000001      -0.000015
   3      -0.000001      -0.000001       0.000001
   4       0.000002       0.000002       0.000003
   5       0.000002       0.000001      -0.000005
   6       0.000001       0.000006      -0.000008
   7      -0.000003       0.000005       0.000002
   8      -0.000002      -0.000003       0.000005
   9       0.000000       0.000024       0.000008
  10       0.000002      -0.000001       0.000001
  11       0.000001       0.000008      -0.000004
  12      -0.000001      -0.000001       0.000002
  13      -0.000001      -0.000000       0.000001
  14      -0.000014      -0.000051       0.000000
  15       0.000001       0.000005       0.000000
  16       0.000011       0.000012      -0.000012
  17      -0.000001       0.000001      -0.000001
  18       0.000005      -0.000017       0.000006
---------------------------------------------------
 Number of fixed atoms: 0
 Gradient time:  CPU 827.48 s  wall 60.39 s
 ######################################################
 ######################################################
 # Starting finite difference calculation for IDERIV  #
 Finite diff step size:  1.88973e-03 a.u.
 ----------------------------------------------------------------
             Standard Nuclear Orientation (Angstroms)
    I     Atom           X                Y                Z
 ----------------------------------------------------------------
    1      O       0.6098437149    -0.1947404138    -0.1019133657
    2      C      -0.7065010765     0.2578526194    -0.3514919377
    3      H      -0.7106455064     1.3386087770    -0.5457893286
    4      H      -1.3469148186     0.0723839657     0.5220472365
    5      H      -1.2864784848    -1.5609027409    -1.3371234145
    6      C      -2.6713515936     0.0076368093    -1.8911176952
    7      O      -3.6209952097    -0.4800156753    -1.2216274665
    8      O      -2.7817981895     0.8888064013    -2.7841205472
    9      O       1.0785315428     1.6079554700     1.2979954979
   10      H       2.6406793999    -1.3239105769     1.0075431788
   11      C       2.6306889361    -0.2336709004     1.0987702068
   12      H       3.1467754554     0.0509943506     2.0193823343
   13      H       3.1615432188     0.1984124678     0.2461139159
   14      C       1.2008914958     0.3151717214     1.1417063734
   15      H      -0.5970919522    -0.3233500826    -2.4169467908
   16      O       0.5242276179    -0.4154124087     2.2202296954
   17      H      -0.0190202583     0.2627750589     2.6395643498
   18      C      -1.2571893956    -0.4895415349    -1.5604203885
 ----------------------------------------------------------------
 Nuclear Repulsion Energy =   539.6792357310 hartrees
 There are       40 alpha and       40 beta electrons
 Discretize the solute cavity surface with Lebedev spheres
	Using 110 Lebedev grid points for each H atom
	Using 110 Lebedev grid points for other atoms
	Atomic van der Waals radii will be scaled by 1.20
 Remove points where switching function is < 1.0e-08
 Keep 1085 surface tesserae and discard 895 interior tesserae
 Molecular Surface Area = 191.346 Angst**2
 Requested basis set is def2-TZVPD
 There are 175 shells and 457 basis functions
 A cutoff of  1.0D-14 yielded  13833 shell pairs
 There are     94259 function pairs (    119809 Cartesian)
 Smallest overlap matrix eigenvalue = 4.84E-06
 Guess MOs from SCF MO coefficient file
 Reading MOs from coefficient file
 Reading MOs from coefficient file
 Long-range K will be added via erf
 Coulomb attenuation parameter = 0.3 bohr**(-1)
 A restricted hybrid HF-DFT SCF calculation will be
 performed using Pulay DIIS extrapolation
 Polarizable Continuum solvation model will be applied
 Exchange:     0.1670 Hartree-Fock + 1.0000 wB97X-V + LR-HF
 Correlation:  1.0000 wB97X-V
 Using SG-2 standard quadrature grid
 Nonlocal Correlation:  VV10 with C = 0.0100 and b = 6.00
 Grid used for NLC:  SG-1 standard quadrature
 SCF converges when DIIS error is below 1.0E-08
Using Q-Chem read-in guess as SCF_GUESS READ specified.

 using 16 threads for integral computing
 -------------------------------------------------------
 OpenMP Integral computing Module                
 Release: version 1.0, May 2013, Q-Chem Inc. Pittsburgh 
 -------------------------------------------------------
 using 16 threads for integral computing
 -------------------------------------------------------
 OpenMP Integral computing Module                
 Release: version 1.0, May 2013, Q-Chem Inc. Pittsburgh 
 -------------------------------------------------------
 -------------------------------------------------------
 OpenMP BLAS3 based DFT computing Module                
 Release: version 1.0, May 2013, Q-Chem Inc. Pittsburgh 
 -------------------------------------------------------
 -------------------------------------------------------
 OpenMP BLAS3 based DFT computing Module                
 Release: version 1.0, May 2013, Q-Chem Inc. Pittsburgh 
 -------------------------------------------------------
 -------------------------------------------------------
 OpenMP BLAS3 based DFT computing Module                
 Release: version 1.0, May 2013, Q-Chem Inc. Pittsburgh 
 -------------------------------------------------------
 ---------------------------------------
  Cycle       Energy         DIIS Error
 ---------------------------------------
    1    -571.5133679303      3.18E-04
    2    -571.8132390583      3.39E-04
    3    -571.8176066532      1.56E-04
    4    -571.8183067688      1.15E-04
    5    -571.8187305063      8.85E-05
    6    -571.8189775850      6.89E-05
    7    -571.8191718472      4.83E-05
    8    -571.8192801493      3.14E-05
    9    -571.8193427443      1.43E-05
   10    -571.8193574719      4.55E-06
   11    -571.8193590386      9.40E-07
   12    -571.8193591039      2.13E-07
   13    -571.8193591074      4.05E-08
   14    -571.8193591075      5.54E-09 Convergence criterion met
 ---------------------------------------

************** Final PCM Free Energy Summary **************
 G_electrostatic  =      -0.30558931 hartree =    -191.76018495 kcal/mol
 G_cavitation     =       0.00000000 hartree =       0.00000000 kcal/mol
 G_dispersion     =       0.00000000 hartree =       0.00000000 kcal/mol
 G_repulsion      =       0.00000000 hartree =       0.00000000 kcal/mol
 --------------------------------------------------
 Non-electrostatic Free Energy =       0.00000000 hartree =       0.00000000 kcal/mol
 Total                         =      -0.30558931 hartree =    -191.76018495 kcal/mol
 --------------------------------------------------
 SCF Energy (H0 + V/2)                       =    -571.81935911 
 Solute Internal Energy (H0)                 =    -571.51376980 
 Total Free Energy (H0 + V/2 + non-elec)     =    -571.81935911 hartree
                                             = -358822.06354112 kcal/mol
***********************************************************

 SCF time:  CPU 3366.66 s  wall 240.34 s
 SCF   energy in the final basis set = -571.81935911
 Total energy in the final basis set = -571.81935911
 
 --------------------------------------------------------------
 
                    Orbital Energies (a.u.)
 --------------------------------------------------------------
 
 Alpha MOs
 -- Occupied --
-19.181 -19.181 -19.140 -19.140 -19.104 -10.367 -10.341 -10.290
-10.244 -10.232  -1.169  -1.143  -1.094  -1.049  -1.030  -0.877
 -0.831  -0.732  -0.667  -0.617  -0.584  -0.572  -0.545  -0.543
 -0.524  -0.513  -0.505  -0.483  -0.475  -0.463  -0.450  -0.439
 -0.409  -0.384  -0.355  -0.344  -0.337  -0.330  -0.315  -0.309
 -- Virtual --
  0.060   0.073   0.083   0.086   0.102   0.103   0.108   0.124
  0.126   0.130   0.136   0.139   0.146   0.151   0.157   0.165
  0.179   0.183   0.184   0.191   0.204   0.206   0.219   0.229
  0.232   0.238   0.248   0.256   0.262   0.269   0.271   0.277
  0.287   0.291   0.300   0.304   0.313   0.318   0.326   0.330
  0.337   0.341   0.345   0.350   0.355   0.364   0.367   0.370
  0.373   0.379   0.380   0.387   0.395   0.397   0.404   0.407
  0.412   0.418   0.422   0.425   0.431   0.433   0.435   0.444
  0.449   0.451   0.461   0.465   0.470   0.485   0.488   0.490
  0.501   0.506   0.513   0.518   0.520   0.522   0.534   0.537
  0.539   0.544   0.548   0.564   0.570   0.574   0.577   0.583
  0.589   0.603   0.610   0.617   0.623   0.628   0.642   0.647
  0.653   0.664   0.669   0.679   0.685   0.690   0.694   0.703
  0.715   0.720   0.725   0.732   0.740   0.745   0.754   0.765
  0.767   0.776   0.780   0.788   0.797   0.800   0.809   0.810
  0.812   0.818   0.827   0.834   0.851   0.853   0.860   0.863
  0.874   0.877   0.884   0.896   0.903   0.919   0.922   0.928
  0.936   0.943   0.955   0.973   0.979   0.990   1.003   1.027
  1.035   1.043   1.064   1.072   1.076   1.085   1.100   1.112
  1.121   1.135   1.151   1.177   1.184   1.195   1.211   1.217
  1.230   1.254   1.269   1.272   1.290   1.303   1.312   1.323
  1.334   1.347   1.352   1.376   1.380   1.399   1.405   1.421
  1.440   1.456   1.482   1.487   1.499   1.515   1.550   1.573
  1.594   1.628   1.639   1.653   1.670   1.688   1.768   1.848
  1.850   1.881   1.894   1.903   1.908   1.915   1.937   1.957
  1.969   1.981   1.995   1.996   2.004   2.016   2.021   2.028
  2.051   2.070   2.085   2.090   2.122   2.143   2.161   2.172
  2.192   2.209   2.227   2.241   2.246   2.255   2.268   2.297
  2.331   2.342   2.356   2.368   2.386   2.410   2.419   2.426
  2.456   2.481   2.484   2.506   2.534   2.544   2.573   2.586
  2.612   2.625   2.648   2.656   2.684   2.695   2.708   2.720
  2.739   2.747   2.762   2.785   2.818   2.836   2.871   2.892
  2.915   2.930   2.935   2.955   2.973   2.985   3.007   3.023
  3.048   3.062   3.095   3.117   3.134   3.150   3.163   3.199
  3.219   3.236   3.266   3.287   3.306   3.309   3.352   3.358
  3.372   3.397   3.403   3.418   3.435   3.446   3.454   3.467
  3.492   3.513   3.530   3.546   3.550   3.583   3.584   3.598
  3.620   3.636   3.667   3.671   3.679   3.695   3.701   3.707
  3.723   3.737   3.755   3.772   3.788   3.810   3.824   3.859
  3.882   3.900   3.900   3.921   3.940   3.993   4.037   4.067
  4.082   4.146   4.178   4.200   4.220   4.221   4.255   4.281
  4.333   4.373   4.513   4.594   4.610   4.644   4.659   4.684
  4.734   4.755   4.826   4.838   4.875   4.934   4.965   5.026
  5.101   5.151   5.171   5.319   5.353   5.357   5.374   5.394
  5.400   5.415   5.445   5.502   5.567   5.598   5.605   5.676
  5.711   5.715   5.724   5.762   5.775   5.811   5.891   5.982
  5.991   6.079   6.236   6.271   6.296   6.301   6.323   6.380
  6.434   6.455   6.515   6.562   6.622   6.633   6.691   6.693
  6.756   6.768   6.800   6.827   6.873   6.934   6.945   6.970
  6.982   7.040   7.060   7.137   7.231   7.262   7.291   7.337
  7.353   7.375   7.414   7.438   7.512   7.663   7.697  22.685
 22.847  22.914  23.192  23.713  44.321  44.406  44.434  44.493
 44.669
 --------------------------------------------------------------
 
          Ground-State Mulliken Net Atomic Charges

     Atom                 Charge (a.u.)
  ----------------------------------------
      1 O                    -0.281337
      2 C                    -0.504473
      3 H                     0.175508
      4 H                     0.176687
      5 H                     0.184978
      6 C                     0.184188
      7 O                    -0.707099
      8 O                    -0.701146
      9 O                    -0.875524
     10 H                     0.214541
     11 C                    -1.044492
     12 H                     0.235301
     13 H                     0.222083
     14 C                     0.632952
     15 H                     0.165735
     16 O                    -0.557697
     17 H                     0.351107
     18 C                     0.128688
  ----------------------------------------
  Sum of atomic charges =    -2.000000

 -----------------------------------------------------------------
                    Cartesian Multipole Moments
 -----------------------------------------------------------------
    Charge (ESU x 10^10)
                -9.6064
    Dipole Moment (Debye)
         X      11.3450      Y      -5.3018      Z       4.5609
       Tot      13.3274
    Quadrupole Moments (Debye-Ang)
        XX    -129.8221     XY      -2.9581     YY     -81.6143
        XZ     -39.2055     YZ       3.5674     ZZ     -98.9271
    Octopole Moments (Debye-Ang^2)
       XXX     297.1973    XXY     -18.8238    XYY      25.6598
       YYY     -49.5061    XXZ     114.1836    XYZ     -27.9952
       YYZ       2.7314    XZZ      90.8538    YZZ     -34.1059
       ZZZ      91.5885
    Hexadecapole Moments (Debye-Ang^3)
      XXXX   -2505.1204   XXXY     -26.9067   XXYY    -383.2029
      XYYY     -32.6013   YYYY    -314.7415   XXXZ    -880.5347
      XXYZ      39.0786   XYYZ    -214.6762   YYYZ     -22.4635
      XXZZ    -704.5901   XYZZ      56.5353   YYZZ    -275.9048
      XZZZ    -743.7952   YZZZ      84.4840   ZZZZ   -1275.0018
 -----------------------------------------------------------------
 Calculating analytic gradient of the SCF energy
 Gradient of SCF Energy
            1           2           3           4           5           6
    1   0.0025959  -0.1076905   0.0043978   0.0406589  -0.0040839  -0.0589076
    2   0.0004673   0.0721980  -0.0673108   0.0094186   0.0684173   0.0392534
    3   0.0071152   0.0299060   0.0033390  -0.0589137  -0.0173468   0.0184954
            7           8           9          10          11          12
    1   0.0547767   0.0160156   0.0214143   0.0018355   0.1321837  -0.0386898
    2   0.0185053  -0.0419399  -0.0159782   0.0758555  -0.0043597  -0.0231743
    3  -0.0261544   0.0420273  -0.0040101   0.0061313   0.0208134  -0.0687736
           13          14          15          16          17          18
    1  -0.0372825  -0.1124367  -0.0513833  -0.0161772   0.0435797   0.1091932
    2  -0.0339719   0.0055605  -0.0116380   0.0351105  -0.0421362  -0.0842774
    3   0.0654312  -0.0279423   0.0510503   0.0327842  -0.0284814  -0.0454711
 Max gradient component =       1.322E-01
 RMS gradient           =       4.920E-02
 Computing fast CPCM-ISWIG gradient
 Updating gradient with PCM contributions...
 -- total gradient after adding PCM contribution --
---------------------------------------------------
  Atom         X              Y              Z     
---------------------------------------------------
   1       0.000743      -0.000154       0.000159
   2      -0.000389       0.000114      -0.000024
   3      -0.000029       0.000031      -0.000010
   4      -0.000073       0.000023       0.000002
   5       0.000004       0.000002      -0.000001
   6       0.000015      -0.000007      -0.000012
   7      -0.000010       0.000006       0.000004
   8      -0.000007       0.000004       0.000002
   9       0.000021      -0.000025      -0.000014
  10       0.000003      -0.000001      -0.000000
  11      -0.000056      -0.000010      -0.000082
  12      -0.000017       0.000003      -0.000002
  13       0.000001      -0.000002      -0.000000
  14      -0.000184      -0.000005      -0.000000
  15       0.000004       0.000006       0.000002
  16       0.000031       0.000015      -0.000004
  17      -0.000002       0.000001      -0.000001
  18      -0.000057      -0.000002      -0.000017
---------------------------------------------------
 Number of fixed atoms: 0
 Gradient time:  CPU 830.85 s  wall 60.54 s
 ----------------------------------------------------------------
             Standard Nuclear Orientation (Angstroms)
    I     Atom           X                Y                Z
 ----------------------------------------------------------------
    1      O       0.6078437149    -0.1947404138    -0.1019133657
    2      C      -0.7065010765     0.2578526194    -0.3514919377
    3      H      -0.7106455064     1.3386087770    -0.5457893286
    4      H      -1.3469148186     0.0723839657     0.5220472365
    5      H      -1.2864784848    -1.5609027409    -1.3371234145
    6      C      -2.6713515936     0.0076368093    -1.8911176952
    7      O      -3.6209952097    -0.4800156753    -1.2216274665
    8      O      -2.7817981895     0.8888064013    -2.7841205472
    9      O       1.0785315428     1.6079554700     1.2979954979
   10      H       2.6406793999    -1.3239105769     1.0075431788
   11      C       2.6306889361    -0.2336709004     1.0987702068
   12      H       3.1467754554     0.0509943506     2.0193823343
   13      H       3.1615432188     0.1984124678     0.2461139159
   14      C       1.2008914958     0.3151717214     1.1417063734
   15      H      -0.5970919522    -0.3233500826    -2.4169467908
   16      O       0.5242276179    -0.4154124087     2.2202296954
   17      H      -0.0190202583     0.2627750589     2.6395643498
   18      C      -1.2571893956    -0.4895415349    -1.5604203885
 ----------------------------------------------------------------
 Nuclear Repulsion Energy =   539.7015803912 hartrees
 There are       40 alpha and       40 beta electrons
 Discretize the solute cavity surface with Lebedev spheres
	Using 110 Lebedev grid points for each H atom
	Using 110 Lebedev grid points for other atoms
	Atomic van der Waals radii will be scaled by 1.20
 Remove points where switching function is < 1.0e-08
 Keep 1085 surface tesserae and discard 895 interior tesserae
 Molecular Surface Area = 191.349 Angst**2
 Requested basis set is def2-TZVPD
 There are 175 shells and 457 basis functions
 A cutoff of  1.0D-14 yielded  13833 shell pairs
 There are     94259 function pairs (    119809 Cartesian)
 Smallest overlap matrix eigenvalue = 4.84E-06
 Guess MOs from SCF MO coefficient file
 Reading MOs from coefficient file
 Reading MOs from coefficient file
 Long-range K will be added via erf
 Coulomb attenuation parameter = 0.3 bohr**(-1)
 A restricted hybrid HF-DFT SCF calculation will be
 performed using Pulay DIIS extrapolation
 Polarizable Continuum solvation model will be applied
 Exchange:     0.1670 Hartree-Fock + 1.0000 wB97X-V + LR-HF
 Correlation:  1.0000 wB97X-V
 Using SG-2 standard quadrature grid
 Nonlocal Correlation:  VV10 with C = 0.0100 and b = 6.00
 Grid used for NLC:  SG-1 standard quadrature
 SCF converges when DIIS error is below 1.0E-08
Using Q-Chem read-in guess as SCF_GUESS READ specified.

 using 16 threads for integral computing
 -------------------------------------------------------
 OpenMP Integral computing Module                
 Release: version 1.0, May 2013, Q-Chem Inc. Pittsburgh 
 -------------------------------------------------------
 using 16 threads for integral computing
 -------------------------------------------------------
 OpenMP Integral computing Module                
 Release: version 1.0, May 2013, Q-Chem Inc. Pittsburgh 
 -------------------------------------------------------
 -------------------------------------------------------
 OpenMP BLAS3 based DFT computing Module                
 Release: version 1.0, May 2013, Q-Chem Inc. Pittsburgh 
 -------------------------------------------------------
 -------------------------------------------------------
 OpenMP BLAS3 based DFT computing Module                
 Release: version 1.0, May 2013, Q-Chem Inc. Pittsburgh 
 -------------------------------------------------------
 -------------------------------------------------------
 OpenMP BLAS3 based DFT computing Module                
 Release: version 1.0, May 2013, Q-Chem Inc. Pittsburgh 
 -------------------------------------------------------
 ---------------------------------------
  Cycle       Energy         DIIS Error
 ---------------------------------------
    1    -571.5145543609      3.18E-04
    2    -571.8132249853      3.40E-04
    3    -571.8176043513      1.56E-04
    4    -571.8183076322      1.15E-04
    5    -571.8187400168      8.78E-05
    6    -571.8190125383      6.57E-05
    7    -571.8192453051      3.77E-05
    8    -571.8193344270      1.76E-05
    9    -571.8193574482      4.64E-06
   10    -571.8193590923      8.98E-07
   11    -571.8193591505      1.71E-07
   12    -571.8193591525      4.77E-08
   13    -571.8193591526      9.33E-09 Convergence criterion met
 ---------------------------------------

************** Final PCM Free Energy Summary **************
 G_electrostatic  =      -0.30561400 hartree =    -191.77568156 kcal/mol
 G_cavitation     =       0.00000000 hartree =       0.00000000 kcal/mol
 G_dispersion     =       0.00000000 hartree =       0.00000000 kcal/mol
 G_repulsion      =       0.00000000 hartree =       0.00000000 kcal/mol
 --------------------------------------------------
 Non-electrostatic Free Energy =       0.00000000 hartree =       0.00000000 kcal/mol
 Total                         =      -0.30561400 hartree =    -191.77568156 kcal/mol
 --------------------------------------------------
 SCF Energy (H0 + V/2)                       =    -571.81935915 
 Solute Internal Energy (H0)                 =    -571.51374515 
 Total Free Energy (H0 + V/2 + non-elec)     =    -571.81935915 hartree
                                             = -358822.06356942 kcal/mol
***********************************************************

 SCF time:  CPU 3113.53 s  wall 222.55 s
 SCF   energy in the final basis set = -571.81935915
 Total energy in the final basis set = -571.81935915
 
 --------------------------------------------------------------
 
                    Orbital Energies (a.u.)
 --------------------------------------------------------------
 
 Alpha MOs
 -- Occupied --
-19.181 -19.181 -19.140 -19.140 -19.104 -10.367 -10.341 -10.290
-10.244 -10.232  -1.169  -1.143  -1.094  -1.049  -1.030  -0.877
 -0.831  -0.732  -0.667  -0.617  -0.584  -0.572  -0.545  -0.544
 -0.524  -0.513  -0.505  -0.483  -0.475  -0.463  -0.450  -0.439
 -0.409  -0.384  -0.355  -0.344  -0.337  -0.330  -0.315  -0.309
 -- Virtual --
  0.060   0.073   0.083   0.086   0.102   0.103   0.108   0.124
  0.126   0.130   0.136   0.139   0.146   0.151   0.157   0.165
  0.179   0.183   0.184   0.191   0.204   0.206   0.219   0.229
  0.232   0.238   0.248   0.256   0.262   0.269   0.271   0.277
  0.287   0.291   0.300   0.304   0.313   0.318   0.326   0.329
  0.337   0.341   0.345   0.350   0.355   0.364   0.367   0.370
  0.373   0.379   0.380   0.387   0.395   0.397   0.404   0.407
  0.412   0.418   0.422   0.425   0.431   0.433   0.435   0.444
  0.449   0.451   0.461   0.465   0.470   0.485   0.488   0.490
  0.501   0.506   0.513   0.518   0.520   0.522   0.534   0.537
  0.539   0.544   0.548   0.564   0.570   0.574   0.577   0.583
  0.589   0.603   0.611   0.617   0.623   0.628   0.642   0.647
  0.653   0.664   0.669   0.679   0.685   0.690   0.694   0.703
  0.715   0.720   0.725   0.732   0.741   0.745   0.754   0.765
  0.767   0.776   0.780   0.788   0.797   0.800   0.809   0.810
  0.812   0.818   0.827   0.834   0.851   0.853   0.860   0.863
  0.874   0.877   0.884   0.896   0.903   0.919   0.922   0.928
  0.936   0.943   0.955   0.973   0.979   0.990   1.003   1.027
  1.035   1.043   1.064   1.072   1.076   1.085   1.100   1.112
  1.121   1.135   1.151   1.177   1.184   1.195   1.211   1.217
  1.230   1.254   1.269   1.272   1.290   1.303   1.312   1.323
  1.334   1.347   1.352   1.376   1.380   1.399   1.405   1.421
  1.440   1.456   1.482   1.487   1.500   1.515   1.550   1.573
  1.593   1.628   1.639   1.653   1.670   1.688   1.767   1.848
  1.850   1.881   1.894   1.903   1.908   1.915   1.937   1.957
  1.969   1.981   1.995   1.996   2.004   2.016   2.021   2.028
  2.051   2.070   2.085   2.090   2.122   2.143   2.161   2.172
  2.192   2.209   2.227   2.241   2.246   2.255   2.269   2.297
  2.331   2.341   2.356   2.368   2.386   2.410   2.419   2.426
  2.456   2.481   2.484   2.506   2.534   2.544   2.573   2.586
  2.612   2.625   2.648   2.656   2.684   2.695   2.708   2.721
  2.739   2.747   2.763   2.785   2.818   2.836   2.871   2.893
  2.916   2.930   2.935   2.955   2.973   2.985   3.007   3.023
  3.048   3.062   3.095   3.118   3.134   3.150   3.163   3.199
  3.219   3.236   3.266   3.287   3.306   3.309   3.352   3.358
  3.372   3.397   3.403   3.418   3.435   3.447   3.454   3.466
  3.492   3.513   3.530   3.546   3.551   3.583   3.584   3.598
  3.620   3.637   3.668   3.671   3.680   3.695   3.701   3.707
  3.723   3.738   3.755   3.772   3.788   3.810   3.825   3.859
  3.883   3.899   3.900   3.921   3.940   3.993   4.036   4.067
  4.082   4.146   4.179   4.199   4.220   4.220   4.255   4.281
  4.334   4.373   4.513   4.594   4.610   4.644   4.659   4.684
  4.734   4.756   4.826   4.838   4.875   4.934   4.965   5.026
  5.101   5.151   5.172   5.319   5.353   5.357   5.374   5.394
  5.400   5.415   5.445   5.502   5.567   5.598   5.605   5.676
  5.711   5.715   5.724   5.762   5.775   5.811   5.891   5.983
  5.993   6.079   6.236   6.271   6.297   6.303   6.323   6.380
  6.434   6.456   6.515   6.562   6.622   6.633   6.691   6.693
  6.756   6.768   6.800   6.827   6.873   6.934   6.945   6.970
  6.982   7.040   7.060   7.137   7.231   7.262   7.291   7.337
  7.353   7.375   7.414   7.438   7.512   7.664   7.696  22.685
 22.847  22.917  23.191  23.713  44.321  44.406  44.434  44.493
 44.669
 --------------------------------------------------------------
 
          Ground-State Mulliken Net Atomic Charges

     Atom                 Charge (a.u.)
  ----------------------------------------
      1 O                    -0.281322
      2 C                    -0.503540
      3 H                     0.175027
      4 H                     0.176286
      5 H                     0.185067
      6 C                     0.184133
      7 O                    -0.707134
      8 O                    -0.701184
      9 O                    -0.875324
     10 H                     0.214605
     11 C                    -1.044259
     12 H                     0.235276
     13 H                     0.222186
     14 C                     0.632429
     15 H                     0.165716
     16 O                    -0.557709
     17 H                     0.351085
     18 C                     0.128664
  ----------------------------------------
  Sum of atomic charges =    -2.000000

 -----------------------------------------------------------------
                    Cartesian Multipole Moments
 -----------------------------------------------------------------
    Charge (ESU x 10^10)
                -9.6064
    Dipole Moment (Debye)
         X      11.3603      Y      -5.3015      Z       4.5674
       Tot      13.3425
    Quadrupole Moments (Debye-Ang)
        XX    -129.8121     XY      -2.9550     YY     -81.6127
        XZ     -39.2004     YZ       3.5707     ZZ     -98.9230
    Octopole Moments (Debye-Ang^2)
       XXX     297.3446    XXY     -18.8274    XYY      25.6898
       YYY     -49.5035    XXZ     114.2245    XYZ     -27.9952
       YYZ       2.7466    XZZ      90.9017    YZZ     -34.1021
       ZZZ      91.6302
    Hexadecapole Moments (Debye-Ang^3)
      XXXX   -2504.9510   XXXY     -26.9098   XXYY    -383.1829
      XYYY     -32.5922   YYYY    -314.7313   XXXZ    -880.4890
      XXYZ      39.0861   XYYZ    -214.6735   YYYZ     -22.4433
      XXZZ    -704.5538   XYZZ      56.5462   YYZZ    -275.8953
      XZZZ    -743.7862   YZZZ      84.5028   ZZZZ   -1274.9913
 -----------------------------------------------------------------
 Calculating analytic gradient of the SCF energy
 Gradient of SCF Energy
            1           2           3           4           5           6
    1   0.0017544  -0.1071709   0.0044561   0.0407407  -0.0040844  -0.0589244
    2   0.0006493   0.0719276  -0.0673833   0.0094620   0.0684137   0.0392333
    3   0.0069321   0.0298426   0.0033932  -0.0589131  -0.0173560   0.0184732
            7           8           9          10          11          12
    1   0.0548046   0.0160289   0.0213995   0.0018359   0.1321555  -0.0386428
    2   0.0185090  -0.0419542  -0.0159032   0.0758352  -0.0043529  -0.0231724
    3  -0.0261561   0.0420446  -0.0040071   0.0061276   0.0207900  -0.0687264
           13          14          15          16          17          18
    1  -0.0372793  -0.1122477  -0.0513939  -0.0162132   0.0435916   0.1091895
    2  -0.0339617   0.0055723  -0.0116309   0.0350913  -0.0421299  -0.0842051
    3   0.0654067  -0.0277792   0.0510750   0.0327745  -0.0284805  -0.0454413
 Max gradient component =       1.322E-01
 RMS gradient           =       4.916E-02
 Computing fast CPCM-ISWIG gradient
 Updating gradient with PCM contributions...
 -- total gradient after adding PCM contribution --
---------------------------------------------------
  Atom         X              Y              Z     
---------------------------------------------------
   1      -0.000721       0.000174      -0.000128
   2       0.000361      -0.000111      -0.000005
   3       0.000028      -0.000034       0.000013
   4       0.000078      -0.000019       0.000003
   5      -0.000001       0.000000      -0.000010
   6      -0.000013       0.000020      -0.000003
   7       0.000005       0.000004       0.000001
   8       0.000004      -0.000010       0.000009
   9      -0.000020       0.000073       0.000029
  10       0.000000       0.000000       0.000003
  11       0.000059       0.000025       0.000074
  12       0.000016      -0.000005       0.000005
  13      -0.000004       0.000001       0.000003
  14       0.000153      -0.000097      -0.000001
  15      -0.000003       0.000003      -0.000001
  16      -0.000009       0.000009      -0.000020
  17      -0.000000      -0.000001      -0.000001
  18       0.000068      -0.000033       0.000028
---------------------------------------------------
 Number of fixed atoms: 0
 Gradient time:  CPU 825.56 s  wall 60.16 s
 ----------------------------------------------------------------
             Standard Nuclear Orientation (Angstroms)
    I     Atom           X                Y                Z
 ----------------------------------------------------------------
    1      O       0.6088437149    -0.1937404138    -0.1019133657
    2      C      -0.7065010765     0.2578526194    -0.3514919377
    3      H      -0.7106455064     1.3386087770    -0.5457893286
    4      H      -1.3469148186     0.0723839657     0.5220472365
    5      H      -1.2864784848    -1.5609027409    -1.3371234145
    6      C      -2.6713515936     0.0076368093    -1.8911176952
    7      O      -3.6209952097    -0.4800156753    -1.2216274665
    8      O      -2.7817981895     0.8888064013    -2.7841205472
    9      O       1.0785315428     1.6079554700     1.2979954979
   10      H       2.6406793999    -1.3239105769     1.0075431788
   11      C       2.6306889361    -0.2336709004     1.0987702068
   12      H       3.1467754554     0.0509943506     2.0193823343
   13      H       3.1615432188     0.1984124678     0.2461139159
   14      C       1.2008914958     0.3151717214     1.1417063734
   15      H      -0.5970919522    -0.3233500826    -2.4169467908
   16      O       0.5242276179    -0.4154124087     2.2202296954
   17      H      -0.0190202583     0.2627750589     2.6395643498
   18      C      -1.2571893956    -0.4895415349    -1.5604203885
 ----------------------------------------------------------------
 Nuclear Repulsion Energy =   539.7030033194 hartrees
 There are       40 alpha and       40 beta electrons
 Discretize the solute cavity surface with Lebedev spheres
	Using 110 Lebedev grid points for each H atom
	Using 110 Lebedev grid points for other atoms
	Atomic van der Waals radii will be scaled by 1.20
 Remove points where switching function is < 1.0e-08
 Keep 1085 surface tesserae and discard 895 interior tesserae
 Molecular Surface Area = 191.346 Angst**2
 Requested basis set is def2-TZVPD
 There are 175 shells and 457 basis functions
 A cutoff of  1.0D-14 yielded  13833 shell pairs
 There are     94259 function pairs (    119809 Cartesian)
 Smallest overlap matrix eigenvalue = 4.84E-06
 Guess MOs from SCF MO coefficient file
 Reading MOs from coefficient file
 Reading MOs from coefficient file
 Long-range K will be added via erf
 Coulomb attenuation parameter = 0.3 bohr**(-1)
 A restricted hybrid HF-DFT SCF calculation will be
 performed using Pulay DIIS extrapolation
 Polarizable Continuum solvation model will be applied
 Exchange:     0.1670 Hartree-Fock + 1.0000 wB97X-V + LR-HF
 Correlation:  1.0000 wB97X-V
 Using SG-2 standard quadrature grid
 Nonlocal Correlation:  VV10 with C = 0.0100 and b = 6.00
 Grid used for NLC:  SG-1 standard quadrature
 SCF converges when DIIS error is below 1.0E-08
Using Q-Chem read-in guess as SCF_GUESS READ specified.

 using 16 threads for integral computing
 -------------------------------------------------------
 OpenMP Integral computing Module                
 Release: version 1.0, May 2013, Q-Chem Inc. Pittsburgh 
 -------------------------------------------------------
 using 16 threads for integral computing
 -------------------------------------------------------
 OpenMP Integral computing Module                
 Release: version 1.0, May 2013, Q-Chem Inc. Pittsburgh 
 -------------------------------------------------------
 -------------------------------------------------------
 OpenMP BLAS3 based DFT computing Module                
 Release: version 1.0, May 2013, Q-Chem Inc. Pittsburgh 
 -------------------------------------------------------
 -------------------------------------------------------
 OpenMP BLAS3 based DFT computing Module                
 Release: version 1.0, May 2013, Q-Chem Inc. Pittsburgh 
 -------------------------------------------------------
 -------------------------------------------------------
 OpenMP BLAS3 based DFT computing Module                
 Release: version 1.0, May 2013, Q-Chem Inc. Pittsburgh 
 -------------------------------------------------------
 ---------------------------------------
  Cycle       Energy         DIIS Error
 ---------------------------------------
    1    -571.5137385883      3.18E-04
    2    -571.8132367744      3.39E-04
    3    -571.8176062865      1.56E-04
    4    -571.8183068114      1.15E-04
    5    -571.8187314687      8.84E-05
    6    -571.8189801447      6.87E-05
    7    -571.8191812977      4.71E-05
    8    -571.8192896477      2.95E-05
    9    -571.8193470735      1.25E-05
   10    -571.8193584570      3.59E-06
   11    -571.8193594329      6.92E-07
   12    -571.8193594684      1.50E-07
   13    -571.8193594700      2.58E-08
   14    -571.8193594700      5.48E-09 Convergence criterion met
 ---------------------------------------

************** Final PCM Free Energy Summary **************
 G_electrostatic  =      -0.30561085 hartree =    -191.77370359 kcal/mol
 G_cavitation     =       0.00000000 hartree =       0.00000000 kcal/mol
 G_dispersion     =       0.00000000 hartree =       0.00000000 kcal/mol
 G_repulsion      =       0.00000000 hartree =       0.00000000 kcal/mol
 --------------------------------------------------
 Non-electrostatic Free Energy =       0.00000000 hartree =       0.00000000 kcal/mol
 Total                         =      -0.30561085 hartree =    -191.77370359 kcal/mol
 --------------------------------------------------
 SCF Energy (H0 + V/2)                       =    -571.81935947 
 Solute Internal Energy (H0)                 =    -571.51374862 
 Total Free Energy (H0 + V/2 + non-elec)     =    -571.81935947 hartree
                                             = -358822.06376861 kcal/mol
***********************************************************

 SCF time:  CPU 3363.62 s  wall 240.26 s
 SCF   energy in the final basis set = -571.81935947
 Total energy in the final basis set = -571.81935947
 
 --------------------------------------------------------------
 
                    Orbital Energies (a.u.)
 --------------------------------------------------------------
 
 Alpha MOs
 -- Occupied --
-19.181 -19.181 -19.140 -19.140 -19.104 -10.367 -10.341 -10.290
-10.244 -10.232  -1.169  -1.143  -1.094  -1.049  -1.030  -0.877
 -0.831  -0.732  -0.667  -0.617  -0.584  -0.572  -0.545  -0.544
 -0.524  -0.513  -0.505  -0.483  -0.475  -0.463  -0.450  -0.439
 -0.409  -0.384  -0.355  -0.344  -0.337  -0.330  -0.315  -0.309
 -- Virtual --
  0.060   0.073   0.083   0.086   0.102   0.103   0.108   0.124
  0.126   0.130   0.136   0.139   0.146   0.151   0.157   0.165
  0.179   0.183   0.184   0.191   0.204   0.206   0.219   0.229
  0.232   0.238   0.248   0.256   0.262   0.269   0.271   0.277
  0.287   0.291   0.300   0.304   0.313   0.318   0.326   0.330
  0.337   0.341   0.345   0.350   0.355   0.364   0.367   0.370
  0.373   0.379   0.381   0.387   0.395   0.398   0.404   0.407
  0.412   0.418   0.422   0.425   0.431   0.433   0.435   0.444
  0.449   0.451   0.461   0.465   0.470   0.485   0.488   0.490
  0.501   0.506   0.513   0.518   0.520   0.522   0.534   0.537
  0.539   0.544   0.548   0.564   0.570   0.574   0.577   0.583
  0.589   0.603   0.610   0.617   0.623   0.628   0.642   0.647
  0.653   0.664   0.669   0.679   0.685   0.690   0.694   0.703
  0.715   0.720   0.725   0.732   0.741   0.745   0.754   0.765
  0.767   0.776   0.780   0.788   0.797   0.800   0.809   0.810
  0.812   0.818   0.827   0.834   0.851   0.853   0.860   0.863
  0.874   0.877   0.884   0.896   0.903   0.919   0.922   0.928
  0.936   0.943   0.955   0.973   0.979   0.990   1.003   1.027
  1.035   1.043   1.064   1.072   1.076   1.085   1.100   1.112
  1.121   1.135   1.151   1.177   1.184   1.195   1.211   1.217
  1.230   1.254   1.269   1.272   1.290   1.303   1.312   1.323
  1.334   1.347   1.352   1.376   1.380   1.399   1.405   1.421
  1.440   1.456   1.482   1.487   1.500   1.515   1.550   1.573
  1.594   1.628   1.639   1.653   1.670   1.687   1.768   1.848
  1.850   1.881   1.894   1.903   1.908   1.915   1.937   1.957
  1.969   1.981   1.995   1.996   2.004   2.016   2.021   2.028
  2.051   2.070   2.085   2.090   2.122   2.143   2.161   2.172
  2.192   2.209   2.227   2.241   2.246   2.255   2.268   2.297
  2.331   2.342   2.356   2.368   2.386   2.410   2.419   2.426
  2.456   2.481   2.484   2.506   2.534   2.544   2.573   2.586
  2.612   2.625   2.648   2.656   2.684   2.695   2.708   2.721
  2.739   2.747   2.763   2.785   2.819   2.836   2.871   2.893
  2.915   2.930   2.935   2.955   2.973   2.985   3.007   3.023
  3.048   3.062   3.095   3.118   3.134   3.150   3.163   3.199
  3.219   3.236   3.266   3.287   3.306   3.309   3.352   3.358
  3.372   3.397   3.403   3.418   3.435   3.447   3.454   3.467
  3.492   3.513   3.530   3.546   3.551   3.583   3.584   3.598
  3.620   3.637   3.668   3.671   3.680   3.695   3.701   3.707
  3.723   3.738   3.755   3.772   3.788   3.810   3.825   3.859
  3.883   3.900   3.900   3.921   3.940   3.993   4.037   4.067
  4.082   4.146   4.179   4.200   4.220   4.220   4.255   4.281
  4.333   4.373   4.513   4.594   4.610   4.644   4.659   4.684
  4.734   4.755   4.826   4.838   4.875   4.934   4.965   5.026
  5.101   5.151   5.171   5.319   5.353   5.357   5.374   5.394
  5.400   5.415   5.445   5.502   5.567   5.598   5.605   5.676
  5.711   5.715   5.724   5.762   5.775   5.811   5.891   5.983
  5.992   6.079   6.236   6.271   6.297   6.303   6.323   6.380
  6.434   6.456   6.515   6.562   6.622   6.633   6.691   6.693
  6.756   6.768   6.801   6.827   6.873   6.934   6.945   6.970
  6.982   7.040   7.060   7.137   7.231   7.262   7.291   7.338
  7.353   7.375   7.414   7.438   7.512   7.664   7.697  22.685
 22.847  22.916  23.192  23.713  44.321  44.406  44.434  44.493
 44.669
 --------------------------------------------------------------
 
          Ground-State Mulliken Net Atomic Charges

     Atom                 Charge (a.u.)
  ----------------------------------------
      1 O                    -0.281142
      2 C                    -0.504159
      3 H                     0.175074
      4 H                     0.176529
      5 H                     0.184965
      6 C                     0.184357
      7 O                    -0.707106
      8 O                    -0.701161
      9 O                    -0.875612
     10 H                     0.214609
     11 C                    -1.044492
     12 H                     0.235298
     13 H                     0.222133
     14 C                     0.632866
     15 H                     0.165719
     16 O                    -0.557741
     17 H                     0.351138
     18 C                     0.128728
  ----------------------------------------
  Sum of atomic charges =    -2.000000

 -----------------------------------------------------------------
                    Cartesian Multipole Moments
 -----------------------------------------------------------------
    Charge (ESU x 10^10)
                -9.6064
    Dipole Moment (Debye)
         X      11.3526      Y      -5.3057      Z       4.5631
       Tot      13.3362
    Quadrupole Moments (Debye-Ang)
        XX    -129.8156     XY      -2.9589     YY     -81.6160
        XZ     -39.2031     YZ       3.5669     ZZ     -98.9254
    Octopole Moments (Debye-Ang^2)
       XXX     297.2707    XXY     -18.8364    XYY      25.6726
       YYY     -49.5343    XXZ     114.2013    XYZ     -27.9985
       YYZ       2.7332    XZZ      90.8746    YZZ     -34.1159
       ZZZ      91.6029
    Hexadecapole Moments (Debye-Ang^3)
      XXXX   -2504.9932   XXXY     -26.9246   XXYY    -383.1983
      XYYY     -32.6164   YYYY    -314.7464   XXXZ    -880.4971
      XXYZ      39.0766   XYYZ    -214.6825   YYYZ     -22.4658
      XXZZ    -704.5645   XYZZ      56.5281   YYZZ    -275.9111
      XZZZ    -743.7882   YZZZ      84.4792   ZZZZ   -1274.9945
 -----------------------------------------------------------------
 Calculating analytic gradient of the SCF energy
 Gradient of SCF Energy
            1           2           3           4           5           6
    1   0.0020551  -0.1073231   0.0044488   0.0406824  -0.0040837  -0.0589309
    2   0.0007236   0.0720148  -0.0673515   0.0094331   0.0684271   0.0392391
    3   0.0071253   0.0298448   0.0033916  -0.0589231  -0.0173453   0.0184802
            7           8           9          10          11          12
    1   0.0547901   0.0160232   0.0213811   0.0018279   0.1321644  -0.0386587
    2   0.0185094  -0.0419456  -0.0159808   0.0758463  -0.0043632  -0.0231757
    3  -0.0261554   0.0420374  -0.0040515   0.0061240   0.0208758  -0.0687539
           13          14          15          16          17          18
    1  -0.0372805  -0.1122759  -0.0513789  -0.0161887   0.0435833   0.1091643
    2  -0.0339688   0.0055425  -0.0116405   0.0351019  -0.0421488  -0.0842629
    3   0.0654172  -0.0280024   0.0510570   0.0328080  -0.0284787  -0.0454510
 Max gradient component =       1.322E-01
 RMS gradient           =       4.917E-02
 Computing fast CPCM-ISWIG gradient
 Updating gradient with PCM contributions...
 -- total gradient after adding PCM contribution --
---------------------------------------------------
  Atom         X              Y              Z     
---------------------------------------------------
   1      -0.000152       0.000363       0.000109
   2       0.000089      -0.000182      -0.000038
   3       0.000075      -0.000020       0.000012
   4       0.000004       0.000011      -0.000002
   5       0.000001       0.000005      -0.000004
   6       0.000004      -0.000000      -0.000012
   7      -0.000005       0.000006       0.000003
   8      -0.000004       0.000001       0.000004
   9      -0.000034      -0.000063      -0.000089
  10       0.000000       0.000002       0.000002
  11       0.000011       0.000020       0.000006
  12       0.000004      -0.000001       0.000002
  13      -0.000000      -0.000000       0.000001
  14       0.000022      -0.000173      -0.000008
  15       0.000000       0.000006       0.000002
  16       0.000011       0.000029       0.000007
  17       0.000000      -0.000000       0.000003
  18      -0.000027      -0.000002      -0.000000
---------------------------------------------------
 Number of fixed atoms: 0
 Gradient time:  CPU 833.99 s  wall 61.09 s
 ----------------------------------------------------------------
             Standard Nuclear Orientation (Angstroms)
    I     Atom           X                Y                Z
 ----------------------------------------------------------------
    1      O       0.6088437149    -0.1957404138    -0.1019133657
    2      C      -0.7065010765     0.2578526194    -0.3514919377
    3      H      -0.7106455064     1.3386087770    -0.5457893286
    4      H      -1.3469148186     0.0723839657     0.5220472365
    5      H      -1.2864784848    -1.5609027409    -1.3371234145
    6      C      -2.6713515936     0.0076368093    -1.8911176952
    7      O      -3.6209952097    -0.4800156753    -1.2216274665
    8      O      -2.7817981895     0.8888064013    -2.7841205472
    9      O       1.0785315428     1.6079554700     1.2979954979
   10      H       2.6406793999    -1.3239105769     1.0075431788
   11      C       2.6306889361    -0.2336709004     1.0987702068
   12      H       3.1467754554     0.0509943506     2.0193823343
   13      H       3.1615432188     0.1984124678     0.2461139159
   14      C       1.2008914958     0.3151717214     1.1417063734
   15      H      -0.5970919522    -0.3233500826    -2.4169467908
   16      O       0.5242276179    -0.4154124087     2.2202296954
   17      H      -0.0190202583     0.2627750589     2.6395643498
   18      C      -1.2571893956    -0.4895415349    -1.5604203885
 ----------------------------------------------------------------
 Nuclear Repulsion Energy =   539.6777826454 hartrees
 There are       40 alpha and       40 beta electrons
 Discretize the solute cavity surface with Lebedev spheres
	Using 110 Lebedev grid points for each H atom
	Using 110 Lebedev grid points for other atoms
	Atomic van der Waals radii will be scaled by 1.20
 Remove points where switching function is < 1.0e-08
 Keep 1085 surface tesserae and discard 895 interior tesserae
 Molecular Surface Area = 191.349 Angst**2
 Requested basis set is def2-TZVPD
 There are 175 shells and 457 basis functions
 A cutoff of  1.0D-14 yielded  13833 shell pairs
 There are     94259 function pairs (    119809 Cartesian)
 Smallest overlap matrix eigenvalue = 4.84E-06
 Guess MOs from SCF MO coefficient file
 Reading MOs from coefficient file
 Reading MOs from coefficient file
 Long-range K will be added via erf
 Coulomb attenuation parameter = 0.3 bohr**(-1)
 A restricted hybrid HF-DFT SCF calculation will be
 performed using Pulay DIIS extrapolation
 Polarizable Continuum solvation model will be applied
 Exchange:     0.1670 Hartree-Fock + 1.0000 wB97X-V + LR-HF
 Correlation:  1.0000 wB97X-V
 Using SG-2 standard quadrature grid
 Nonlocal Correlation:  VV10 with C = 0.0100 and b = 6.00
 Grid used for NLC:  SG-1 standard quadrature
 SCF converges when DIIS error is below 1.0E-08
Using Q-Chem read-in guess as SCF_GUESS READ specified.

 using 16 threads for integral computing
 -------------------------------------------------------
 OpenMP Integral computing Module                
 Release: version 1.0, May 2013, Q-Chem Inc. Pittsburgh 
 -------------------------------------------------------
 using 16 threads for integral computing
 -------------------------------------------------------
 OpenMP Integral computing Module                
 Release: version 1.0, May 2013, Q-Chem Inc. Pittsburgh 
 -------------------------------------------------------
 -------------------------------------------------------
 OpenMP BLAS3 based DFT computing Module                
 Release: version 1.0, May 2013, Q-Chem Inc. Pittsburgh 
 -------------------------------------------------------
 -------------------------------------------------------
 OpenMP BLAS3 based DFT computing Module                
 Release: version 1.0, May 2013, Q-Chem Inc. Pittsburgh 
 -------------------------------------------------------
 -------------------------------------------------------
 OpenMP BLAS3 based DFT computing Module                
 Release: version 1.0, May 2013, Q-Chem Inc. Pittsburgh 
 -------------------------------------------------------
 ---------------------------------------
  Cycle       Energy         DIIS Error
 ---------------------------------------
    1    -571.5129822536      3.18E-04
    2    -571.8132336919      3.40E-04
    3    -571.8176059116      1.56E-04
    4    -571.8183071881      1.15E-04
    5    -571.8187335962      8.83E-05
    6    -571.8189905193      6.78E-05
    7    -571.8191982229      4.48E-05
    8    -571.8193063458      2.58E-05
    9    -571.8193526748      9.27E-06
   10    -571.8193590985      2.29E-06
   11    -571.8193594932      4.03E-07
   12    -571.8193595047      1.04E-07
   13    -571.8193595057      1.74E-08
   14    -571.8193595057      5.30E-09 Convergence criterion met
 ---------------------------------------

************** Final PCM Free Energy Summary **************
 G_electrostatic  =      -0.30559243 hartree =    -191.76214174 kcal/mol
 G_cavitation     =       0.00000000 hartree =       0.00000000 kcal/mol
 G_dispersion     =       0.00000000 hartree =       0.00000000 kcal/mol
 G_repulsion      =       0.00000000 hartree =       0.00000000 kcal/mol
 --------------------------------------------------
 Non-electrostatic Free Energy =       0.00000000 hartree =       0.00000000 kcal/mol
 Total                         =      -0.30559243 hartree =    -191.76214174 kcal/mol
 --------------------------------------------------
 SCF Energy (H0 + V/2)                       =    -571.81935951 
 Solute Internal Energy (H0)                 =    -571.51376708 
 Total Free Energy (H0 + V/2 + non-elec)     =    -571.81935951 hartree
                                             = -358822.06379097 kcal/mol
***********************************************************

 SCF time:  CPU 3356.30 s  wall 239.85 s
 SCF   energy in the final basis set = -571.81935951
 Total energy in the final basis set = -571.81935951
 
 --------------------------------------------------------------
 
                    Orbital Energies (a.u.)
 --------------------------------------------------------------
 
 Alpha MOs
 -- Occupied --
-19.181 -19.181 -19.140 -19.140 -19.104 -10.367 -10.341 -10.290
-10.244 -10.232  -1.169  -1.143  -1.094  -1.049  -1.030  -0.877
 -0.831  -0.732  -0.667  -0.617  -0.584  -0.572  -0.545  -0.543
 -0.524  -0.513  -0.505  -0.483  -0.475  -0.463  -0.450  -0.439
 -0.409  -0.384  -0.355  -0.344  -0.337  -0.330  -0.315  -0.309
 -- Virtual --
  0.060   0.073   0.083   0.086   0.102   0.103   0.108   0.124
  0.126   0.130   0.136   0.139   0.146   0.151   0.157   0.165
  0.179   0.183   0.184   0.191   0.204   0.206   0.219   0.229
  0.232   0.238   0.248   0.256   0.262   0.269   0.271   0.277
  0.287   0.291   0.300   0.304   0.313   0.318   0.326   0.330
  0.337   0.341   0.345   0.350   0.355   0.364   0.367   0.370
  0.373   0.379   0.380   0.387   0.395   0.397   0.404   0.407
  0.412   0.418   0.422   0.425   0.431   0.433   0.435   0.444
  0.449   0.451   0.461   0.465   0.470   0.485   0.488   0.490
  0.501   0.506   0.513   0.518   0.520   0.522   0.534   0.537
  0.539   0.544   0.548   0.564   0.570   0.574   0.577   0.583
  0.589   0.603   0.610   0.617   0.623   0.628   0.642   0.647
  0.653   0.664   0.669   0.679   0.685   0.690   0.694   0.703
  0.715   0.720   0.725   0.732   0.741   0.745   0.754   0.765
  0.767   0.776   0.780   0.788   0.797   0.800   0.809   0.810
  0.812   0.818   0.827   0.834   0.851   0.853   0.860   0.863
  0.874   0.877   0.884   0.896   0.903   0.919   0.922   0.928
  0.936   0.943   0.955   0.973   0.979   0.990   1.003   1.027
  1.035   1.043   1.064   1.072   1.076   1.085   1.100   1.112
  1.121   1.135   1.151   1.177   1.184   1.195   1.211   1.217
  1.230   1.254   1.269   1.272   1.290   1.303   1.312   1.323
  1.334   1.347   1.352   1.376   1.380   1.399   1.405   1.421
  1.440   1.456   1.482   1.487   1.500   1.515   1.550   1.573
  1.593   1.628   1.639   1.653   1.670   1.688   1.768   1.847
  1.850   1.881   1.894   1.903   1.908   1.915   1.937   1.957
  1.969   1.981   1.995   1.996   2.004   2.016   2.021   2.028
  2.051   2.070   2.085   2.090   2.122   2.143   2.161   2.172
  2.192   2.209   2.227   2.241   2.246   2.255   2.269   2.297
  2.331   2.341   2.356   2.368   2.386   2.410   2.419   2.426
  2.456   2.481   2.484   2.506   2.534   2.544   2.573   2.586
  2.612   2.625   2.648   2.656   2.684   2.695   2.708   2.720
  2.739   2.746   2.762   2.785   2.818   2.836   2.871   2.892
  2.916   2.930   2.935   2.955   2.973   2.985   3.007   3.023
  3.048   3.062   3.094   3.117   3.134   3.150   3.163   3.199
  3.219   3.236   3.266   3.287   3.306   3.309   3.352   3.358
  3.372   3.397   3.403   3.418   3.435   3.446   3.454   3.467
  3.492   3.513   3.530   3.546   3.550   3.583   3.584   3.598
  3.620   3.637   3.668   3.671   3.679   3.695   3.701   3.707
  3.723   3.738   3.755   3.772   3.788   3.810   3.824   3.859
  3.882   3.899   3.900   3.921   3.940   3.992   4.037   4.067
  4.082   4.146   4.178   4.199   4.220   4.220   4.255   4.281
  4.333   4.373   4.513   4.594   4.610   4.644   4.659   4.684
  4.734   4.755   4.826   4.838   4.875   4.934   4.965   5.026
  5.101   5.151   5.171   5.319   5.353   5.357   5.374   5.394
  5.400   5.415   5.445   5.502   5.567   5.598   5.605   5.676
  5.711   5.715   5.724   5.761   5.775   5.811   5.891   5.983
  5.991   6.078   6.235   6.271   6.296   6.301   6.323   6.380
  6.434   6.455   6.515   6.561   6.622   6.633   6.691   6.693
  6.756   6.768   6.800   6.827   6.873   6.934   6.945   6.970
  6.982   7.040   7.060   7.137   7.231   7.262   7.291   7.337
  7.353   7.375   7.414   7.438   7.512   7.664   7.696  22.685
 22.847  22.915  23.191  23.713  44.321  44.406  44.434  44.493
 44.669
 --------------------------------------------------------------
 
          Ground-State Mulliken Net Atomic Charges

     Atom                 Charge (a.u.)
  ----------------------------------------
      1 O                    -0.281515
      2 C                    -0.503856
      3 H                     0.175462
      4 H                     0.176445
      5 H                     0.185080
      6 C                     0.183964
      7 O                    -0.707127
      8 O                    -0.701168
      9 O                    -0.875236
     10 H                     0.214537
     11 C                    -1.044258
     12 H                     0.235279
     13 H                     0.222136
     14 C                     0.632513
     15 H                     0.165732
     16 O                    -0.557665
     17 H                     0.351054
     18 C                     0.128624
  ----------------------------------------
  Sum of atomic charges =    -2.000000

 -----------------------------------------------------------------
                    Cartesian Multipole Moments
 -----------------------------------------------------------------
    Charge (ESU x 10^10)
                -9.6064
    Dipole Moment (Debye)
         X      11.3527      Y      -5.2975      Z       4.5651
       Tot      13.3337
    Quadrupole Moments (Debye-Ang)
        XX    -129.8187     XY      -2.9542     YY     -81.6111
        XZ     -39.2028     YZ       3.5712     ZZ     -98.9247
    Octopole Moments (Debye-Ang^2)
       XXX     297.2713    XXY     -18.8148    XYY      25.6771
       YYY     -49.4753    XXZ     114.2068    XYZ     -27.9919
       YYZ       2.7449    XZZ      90.8808    YZZ     -34.0921
       ZZZ      91.6158
    Hexadecapole Moments (Debye-Ang^3)
      XXXX   -2505.0788   XXXY     -26.8919   XXYY    -383.1876
      XYYY     -32.5772   YYYY    -314.7264   XXXZ    -880.5269
      XXYZ      39.0881   XYYZ    -214.6673   YYYZ     -22.4411
      XXZZ    -704.5795   XYZZ      56.5534   YYZZ    -275.8891
      XZZZ    -743.7933   YZZZ      84.5076   ZZZZ   -1274.9986
 -----------------------------------------------------------------
 Calculating analytic gradient of the SCF energy
 Gradient of SCF Energy
            1           2           3           4           5           6
    1   0.0022972  -0.1075397   0.0044051   0.0407168  -0.0040846  -0.0589012
    2   0.0003920   0.0721117  -0.0673424   0.0094473   0.0684038   0.0392476
    3   0.0069225   0.0299036   0.0033405  -0.0589035  -0.0173574   0.0184885
            7           8           9          10          11          12
    1   0.0547911   0.0160214   0.0214327   0.0018435   0.1321750  -0.0386740
    2   0.0185049  -0.0419484  -0.0159008   0.0758444  -0.0043494  -0.0231710
    3  -0.0261551   0.0420343  -0.0039657   0.0061350   0.0207278  -0.0687459
           13          14          15          16          17          18
    1  -0.0372813  -0.1124084  -0.0513982  -0.0162016   0.0435880   0.1092182
    2  -0.0339649   0.0055906  -0.0116284   0.0350998  -0.0421172  -0.0842196
    3   0.0654206  -0.0277192   0.0510681   0.0327507  -0.0284832  -0.0454616
 Max gradient component =       1.322E-01
 RMS gradient           =       4.919E-02
 Computing fast CPCM-ISWIG gradient
 Updating gradient with PCM contributions...
 -- total gradient after adding PCM contribution --
---------------------------------------------------
  Atom         X              Y              Z     
---------------------------------------------------
   1       0.000176      -0.000344      -0.000078
   2      -0.000119       0.000185       0.000008
   3      -0.000076       0.000017      -0.000010
   4       0.000001      -0.000007       0.000007
   5       0.000002      -0.000002      -0.000007
   6      -0.000003       0.000012      -0.000003
   7       0.000001       0.000005       0.000001
[...]
 C         -0.149 -0.021 -0.017   -0.017  0.025  0.153   -0.001 -0.005 -0.024
 H         -0.049  0.035  0.009   -0.135  0.054 -0.040   -0.524  0.270 -0.200
 O          0.017  0.020 -0.004   -0.014  0.035 -0.017    0.002 -0.005  0.000
 H         -0.096 -0.227  0.241   -0.124 -0.197  0.207    0.021  0.033 -0.036
 C         -0.033  0.028  0.019   -0.017  0.004  0.045   -0.058 -0.119  0.084
 TransDip  -0.237 -0.281  0.034    0.201  0.001  0.485   -0.078 -0.075  0.022

 Mode:                25                     26                     27
 Frequency:      1093.30                1119.98                1123.15
 Force Cnst:      2.2448                 1.4879                 2.9433
 Red. Mass:       3.1875                 2.0133                 3.9601
 IR Active:          YES                    YES                    YES
 IR Intens:      122.228                179.960                157.087
 Raman Active:       YES                    YES                    YES
               X      Y      Z        X      Y      Z        X      Y      Z
 O         -0.056 -0.019 -0.061   -0.027  0.001 -0.007    0.258 -0.097  0.022
 C          0.071  0.162  0.235    0.007 -0.039 -0.041   -0.273  0.130 -0.019
 H          0.149  0.187  0.321   -0.081 -0.044 -0.100   -0.207  0.112  0.004
 H          0.192  0.221  0.349   -0.097 -0.045 -0.113   -0.224  0.074 -0.019
 H         -0.204 -0.198 -0.352    0.055  0.038  0.075    0.114 -0.017  0.087
 C          0.023  0.064  0.068   -0.002 -0.012 -0.011    0.004  0.052  0.046
 O         -0.021 -0.025 -0.002    0.002  0.002  0.003    0.001 -0.006 -0.011
 O          0.003 -0.010 -0.021   -0.001  0.006 -0.000   -0.002 -0.014 -0.003
 O         -0.017  0.021  0.000   -0.035  0.064 -0.019    0.004  0.053 -0.017
 H          0.161 -0.035  0.037    0.245 -0.064  0.083   -0.106 -0.004  0.246
 C         -0.035 -0.038 -0.021   -0.091 -0.072 -0.046   -0.010  0.034 -0.152
 H         -0.176  0.133  0.007   -0.403  0.280  0.020   -0.485  0.031  0.126
 H         -0.044  0.105  0.048   -0.135  0.237  0.092    0.488 -0.149  0.081
 C          0.075  0.024  0.029    0.205  0.022  0.094   -0.030 -0.099  0.150
 H         -0.090 -0.206 -0.300    0.004  0.036  0.047    0.124  0.036  0.071
 O         -0.011 -0.009  0.008   -0.018 -0.078  0.016   -0.006  0.013 -0.016
 H          0.000  0.010 -0.008    0.239  0.440 -0.460   -0.060 -0.086  0.073
 C          0.003 -0.175 -0.220    0.000  0.034  0.044   -0.002 -0.047 -0.047
 TransDip   0.296  0.080  0.177    0.411  0.122  0.020   -0.373 -0.124  0.081

 Mode:                28                     29                     30
 Frequency:      1163.05                1220.63                1283.86
 Force Cnst:      1.8965                 1.1079                 1.4255
 Red. Mass:       2.3796                 1.2621                 1.4678
 IR Active:          YES                    YES                    YES
 IR Intens:      162.588                 30.547                  7.567
 Raman Active:       YES                    YES                    YES
               X      Y      Z        X      Y      Z        X      Y      Z
 O          0.047 -0.022  0.031    0.015  0.036 -0.034   -0.016  0.027  0.018
 C         -0.056  0.012 -0.020   -0.046 -0.092  0.082    0.013 -0.025 -0.042
 H         -0.135  0.004 -0.066    0.508 -0.116 -0.021    0.315  0.026  0.247
 H         -0.081 -0.011 -0.046   -0.390  0.301 -0.079    0.176  0.005  0.088
 H          0.050  0.019  0.064    0.335  0.078  0.351    0.432  0.034  0.300
 C         -0.000  0.004  0.004   -0.004 -0.002  0.015   -0.029  0.055  0.027
 O          0.002  0.000 -0.002    0.017  0.004 -0.010    0.026  0.007 -0.024
 O         -0.001 -0.000 -0.001   -0.005  0.012 -0.014    0.006 -0.038  0.025
 O         -0.024 -0.159  0.007   -0.000 -0.003 -0.002   -0.001 -0.013 -0.004
 H          0.201 -0.046 -0.038   -0.002  0.000  0.001    0.006 -0.003 -0.001
 C         -0.061 -0.067  0.002    0.000  0.000 -0.001    0.000 -0.003  0.001
 H         -0.158  0.230 -0.037   -0.001 -0.001  0.000    0.002  0.009 -0.003
 H         -0.220  0.222  0.045    0.006  0.000  0.003   -0.006  0.011  0.004
 C          0.157  0.190 -0.053   -0.001 -0.000  0.003    0.003  0.015  0.004
 H          0.005  0.014  0.014   -0.336 -0.106 -0.302    0.527  0.112  0.436
 O         -0.016  0.075 -0.021   -0.000  0.002  0.003    0.000 -0.003 -0.002
 H         -0.268 -0.507  0.545   -0.005 -0.013  0.020    0.014  0.026 -0.030
 C         -0.002  0.008  0.006    0.007  0.014 -0.021   -0.132 -0.034 -0.096
 TransDip   0.032  0.401  0.071   -0.053 -0.100  0.136    0.016  0.085 -0.016

 Mode:                31                     32                     33
 Frequency:      1297.38                1361.05                1406.76
 Force Cnst:      1.1047                 1.6852                 1.7209
 Red. Mass:       1.1139                 1.5440                 1.4759
 IR Active:          YES                    YES                    YES
 IR Intens:        3.030                177.020                 35.822
 Raman Active:       YES                    YES                    YES
               X      Y      Z        X      Y      Z        X      Y      Z
 O         -0.009 -0.018  0.019    0.026 -0.013  0.003   -0.010  0.016  0.019
 C         -0.007 -0.028  0.027   -0.005  0.011  0.012   -0.121 -0.038 -0.117
 H         -0.450 -0.091 -0.379   -0.043  0.010 -0.008    0.420  0.054  0.412
 H          0.458  0.075  0.378   -0.053  0.015 -0.019    0.555  0.158  0.415
 H          0.241  0.130  0.366   -0.004 -0.003 -0.003   -0.168 -0.014 -0.083
 C         -0.009  0.004  0.012    0.008 -0.001  0.003    0.001 -0.010 -0.005
 O          0.010  0.003 -0.008   -0.004 -0.002  0.002   -0.006 -0.001  0.004
 O          0.001 -0.002 -0.000   -0.001  0.003 -0.003   -0.002  0.008 -0.005
 O          0.001  0.005  0.001    0.017 -0.068 -0.012    0.002 -0.022 -0.007
 H          0.002  0.001 -0.000    0.547  0.009  0.032   -0.032 -0.012  0.036
 C          0.001  0.002  0.001   -0.118  0.016 -0.004    0.005 -0.011 -0.007
 H          0.007 -0.008  0.000    0.428 -0.180 -0.228   -0.010  0.033 -0.007
 H          0.004 -0.009 -0.003    0.432 -0.191  0.212   -0.004  0.066  0.027
 C         -0.006 -0.005 -0.001   -0.073  0.135  0.031    0.000  0.034  0.026
 H         -0.109 -0.146 -0.187   -0.002  0.001 -0.003   -0.174 -0.006 -0.148
 O          0.001 -0.002 -0.001    0.014 -0.029 -0.003    0.003 -0.006 -0.005
 H          0.001  0.014 -0.026    0.122  0.212 -0.231    0.022  0.049 -0.064
 C          0.003  0.047 -0.064   -0.002 -0.004 -0.004    0.081  0.003  0.045
 TransDip  -0.016 -0.049  0.021    0.072  0.420  0.010   -0.142  0.112 -0.064

 Mode:                34                     35                     36
 Frequency:      1422.46                1431.39                1467.40
 Force Cnst:      3.2629                 5.1308                 1.3491
 Red. Mass:       2.7370                 4.2503                 1.0634
 IR Active:          YES                    YES                    YES
 IR Intens:      201.930                444.853                  5.874
 Raman Active:       YES                    YES                    YES
               X      Y      Z        X      Y      Z        X      Y      Z
 O          0.041 -0.020  0.004   -0.013  0.019  0.016   -0.003  0.003 -0.001
 C          0.007  0.017  0.028   -0.010 -0.015 -0.028    0.003  0.001  0.002
 H         -0.081  0.005 -0.053    0.168 -0.029 -0.039    0.004 -0.005 -0.024
 H         -0.097 -0.002 -0.050    0.135 -0.123  0.041    0.001 -0.024 -0.006
 H         -0.026  0.027  0.111   -0.190  0.118  0.437   -0.009  0.003  0.017
 C          0.117 -0.037  0.027    0.356 -0.125  0.075    0.001 -0.000 -0.000
 O         -0.055 -0.020  0.029   -0.167 -0.060  0.089   -0.000 -0.000  0.000
 O         -0.015  0.043 -0.044   -0.046  0.134 -0.133   -0.000  0.000 -0.000
 O          0.031 -0.088 -0.015   -0.015  0.045  0.008   -0.001  0.014  0.001
 H         -0.429 -0.081  0.004    0.198  0.043 -0.032   -0.359 -0.017 -0.191
 C          0.152 -0.084 -0.008   -0.066  0.042  0.008   -0.022 -0.047  0.010
 H         -0.274  0.301  0.116    0.104 -0.142 -0.035    0.288  0.540 -0.341
 H         -0.275  0.334 -0.065    0.101 -0.184 -0.000    0.362  0.240  0.380
 C         -0.195  0.198  0.039    0.094 -0.102 -0.027    0.005 -0.043 -0.001
 H          0.020  0.113  0.042    0.013  0.484  0.133    0.000  0.019  0.003
 O          0.023 -0.042 -0.003   -0.011  0.021  0.002   -0.002  0.006  0.000
 H          0.177  0.309 -0.335   -0.088 -0.151  0.162   -0.021 -0.036  0.039
 C         -0.033 -0.008 -0.029   -0.076 -0.014 -0.062   -0.001 -0.001 -0.002
 TransDip  -0.015  0.450  0.064    0.569 -0.343  0.121    0.038 -0.067 -0.010

 Mode:                37                     38                     39
 Frequency:      1470.43                1480.95                1517.12
 Force Cnst:      1.3386                 1.6125                 1.4805
 Red. Mass:       1.0508                 1.2479                 1.0918
 IR Active:          YES                    YES                    YES
 IR Intens:        4.274                 66.826                  4.171
 Raman Active:       YES                    YES                    YES
               X      Y      Z        X      Y      Z        X      Y      Z
 O         -0.003  0.001  0.000   -0.005 -0.000 -0.005    0.006 -0.005 -0.001
 C          0.004  0.002  0.005    0.004  0.017  0.022    0.050 -0.055 -0.037
 H          0.012 -0.007 -0.039    0.105 -0.017 -0.143   -0.481  0.060  0.483
 H         -0.006 -0.040 -0.013    0.016 -0.179 -0.016   -0.170  0.655 -0.018
 H         -0.017  0.005  0.029   -0.454  0.071  0.495   -0.101  0.025  0.146
 C         -0.000 -0.000 -0.000   -0.079  0.020 -0.021   -0.003 -0.003 -0.002
 O          0.000  0.000 -0.000    0.033  0.012 -0.017    0.001  0.001  0.000
 O          0.000 -0.000  0.000    0.009 -0.025  0.025   -0.000  0.001  0.000
 O         -0.001  0.005  0.004    0.001 -0.004 -0.001   -0.000  0.006  0.002
 H         -0.104 -0.066  0.691    0.012  0.002 -0.036   -0.009 -0.001  0.018
 C         -0.004 -0.007 -0.054    0.004 -0.000  0.002   -0.001  0.001  0.000
 H          0.230 -0.339 -0.065   -0.030  0.011  0.017    0.020 -0.008 -0.010
 H         -0.071  0.531  0.192   -0.009 -0.034 -0.024    0.003  0.018  0.012
 C          0.004 -0.014 -0.024   -0.005  0.010  0.006    0.001 -0.011 -0.010
 H         -0.000  0.035  0.005   -0.106  0.665 -0.009   -0.009  0.178  0.017
 O         -0.000  0.004  0.001    0.001 -0.002 -0.001   -0.001  0.001  0.002
 H         -0.012 -0.022  0.023    0.007  0.011 -0.012   -0.005 -0.010  0.014
 C         -0.001 -0.003 -0.003    0.065 -0.066 -0.034    0.010 -0.014 -0.011
 TransDip   0.008 -0.039  0.053   -0.230  0.124 -0.011    0.034  0.000  0.056

 Mode:                40                     41                     42
 Frequency:      1584.78                3019.79                3053.05
 Force Cnst:     14.7862                 5.6669                 5.6860
 Red. Mass:       9.9923                 1.0547                 1.0354
 IR Active:          YES                    YES                    YES
 IR Intens:     1307.939                 84.883                 28.601
 Raman Active:       YES                    YES                    YES
               X      Y      Z        X      Y      Z        X      Y      Z
 O          0.001 -0.000 -0.000    0.004 -0.001  0.001    0.000 -0.000  0.000
 C          0.002  0.010 -0.005    0.030 -0.043 -0.038    0.001  0.004 -0.002
 H          0.007  0.012  0.012    0.014  0.665 -0.133   -0.000 -0.039  0.007
 H         -0.008 -0.020 -0.014   -0.420 -0.143  0.581   -0.015 -0.004  0.023
 H         -0.285  0.008 -0.126   -0.001 -0.019  0.006   -0.000  0.004 -0.001
 C         -0.279 -0.471  0.535    0.001 -0.001 -0.000   -0.000  0.000  0.000
 O          0.205  0.119 -0.159   -0.000  0.000  0.000    0.000 -0.000 -0.000
 O         -0.012  0.205 -0.210   -0.000  0.000 -0.000   -0.000 -0.000 -0.000
 O          0.000  0.000 -0.000   -0.000  0.001  0.000    0.000 -0.000 -0.000
 H         -0.001 -0.000 -0.001    0.000  0.002  0.000    0.007  0.623  0.052
 C          0.000  0.000 -0.000    0.001  0.000  0.001    0.045 -0.022 -0.002
 H          0.000  0.001  0.000   -0.003 -0.003 -0.008   -0.248 -0.148 -0.462
 H          0.001  0.000 -0.000   -0.001 -0.001  0.002   -0.259 -0.226  0.435
 C         -0.001 -0.000  0.000   -0.000 -0.002 -0.002   -0.004  0.001  0.000
 H          0.317 -0.092  0.192    0.012  0.004 -0.014    0.008  0.002 -0.010
 O          0.000 -0.000  0.000   -0.000  0.000  0.000    0.000 -0.000 -0.000
 H          0.000  0.000 -0.000    0.001 -0.001  0.001    0.001  0.002 -0.001
 C          0.016  0.038 -0.044   -0.001  0.002  0.001   -0.001 -0.000  0.001
 TransDip  -0.423 -0.711  0.810    0.215 -0.185 -0.081    0.159 -0.062 -0.011

 Mode:                43                     44                     45
 Frequency:      3054.11                3065.88                3118.92
 Force Cnst:      6.0712                 5.8651                 6.3438
 Red. Mass:       1.1047                 1.0590                 1.1069
 IR Active:          YES                    YES                    YES
 IR Intens:       57.395                 52.465                 77.806
 Raman Active:       YES                    YES                    YES
               X      Y      Z        X      Y      Z        X      Y      Z
 O          0.000 -0.000  0.000   -0.000  0.000 -0.000    0.000  0.000 -0.000
 C         -0.032 -0.067  0.054   -0.001 -0.009  0.006   -0.006 -0.012  0.010
 H          0.009  0.704 -0.116    0.001  0.093 -0.017    0.004  0.118 -0.019
 H          0.379  0.108 -0.534    0.028  0.008 -0.041    0.063  0.020 -0.092
 H         -0.004 -0.187  0.042    0.030  0.721 -0.162    0.017  0.625 -0.128
 C          0.000 -0.000  0.000   -0.003  0.001 -0.001   -0.001 -0.002  0.002
 O         -0.000 -0.000 -0.000    0.000  0.000 -0.000    0.000  0.001 -0.000
 O         -0.000  0.000  0.000    0.000 -0.000  0.000    0.000  0.000 -0.001
 O         -0.000  0.000 -0.000   -0.000  0.000 -0.000   -0.000  0.000 -0.000
 H          0.000  0.030  0.003   -0.000  0.006  0.001    0.000 -0.007 -0.001
 C          0.002 -0.001 -0.000    0.001 -0.000  0.000   -0.000  0.001  0.000
 H         -0.013 -0.008 -0.025   -0.004 -0.002 -0.007    0.000  0.000  0.000
 H         -0.015 -0.012  0.024   -0.002 -0.002  0.004   -0.000  0.000 -0.000
 C         -0.000 -0.000 -0.000   -0.000  0.000  0.000    0.000 -0.000 -0.000
 H         -0.035 -0.006  0.040   -0.395 -0.115  0.518    0.447  0.113 -0.586
 O          0.001 -0.000 -0.000    0.000 -0.000 -0.000    0.000  0.000 -0.000
 H         -0.002  0.001  0.000    0.000  0.000 -0.000   -0.000  0.000  0.000
 C          0.003  0.016 -0.006    0.032 -0.051 -0.030   -0.039 -0.061  0.059
 TransDip  -0.072 -0.166  0.161    0.094 -0.193 -0.089   -0.119 -0.182  0.180

 Mode:                46                     47                     48
 Frequency:      3129.94                3137.39                3827.23
 Force Cnst:      6.3672                 6.3998                 9.1937
 Red. Mass:       1.1031                 1.1035                 1.0653
 IR Active:          YES                    YES                    YES
 IR Intens:       62.635                 53.881                 63.678
 Raman Active:       YES                    YES                    YES
               X      Y      Z        X      Y      Z        X      Y      Z
 O         -0.000  0.000  0.000   -0.000  0.000  0.000    0.000 -0.000  0.000
 C          0.000 -0.000  0.000    0.000 -0.000 -0.000    0.000  0.000 -0.000
 H         -0.000  0.005 -0.001   -0.000  0.003 -0.001   -0.000 -0.001  0.000
 H          0.000  0.000 -0.001   -0.003 -0.000  0.003   -0.002 -0.000  0.002
 H          0.000  0.004 -0.001    0.000  0.002 -0.000   -0.000  0.000 -0.000
 C          0.000 -0.000  0.000    0.000 -0.000 -0.000   -0.000  0.000 -0.000
 O         -0.000  0.000 -0.000   -0.000  0.000  0.000    0.000  0.000  0.000
 O          0.000  0.000  0.000   -0.000  0.000 -0.000    0.000 -0.000  0.000
 O          0.000  0.000 -0.000    0.000  0.000  0.000   -0.000 -0.000  0.000
 H         -0.005  0.767  0.066   -0.000  0.075 -0.010   -0.001 -0.000  0.000
 C         -0.034 -0.087  0.002   -0.003 -0.001 -0.093   -0.000  0.000  0.000
 H          0.169  0.084  0.318    0.355  0.201  0.628    0.000  0.000  0.001
 H          0.243  0.193 -0.408   -0.318 -0.265  0.503   -0.001  0.000  0.000
 C         -0.001 -0.002 -0.000   -0.000 -0.000 -0.002    0.001 -0.001 -0.001
 H          0.002  0.000 -0.002   -0.001 -0.000  0.001    0.000  0.000  0.000
 O          0.000  0.000 -0.000   -0.000 -0.000  0.000    0.035 -0.043 -0.028
 H         -0.001 -0.000  0.000    0.001 -0.001  0.000   -0.567  0.689  0.447
 C         -0.000 -0.000  0.000    0.000 -0.000 -0.000    0.000 -0.000  0.000
 TransDip  -0.070 -0.244  0.001   -0.005 -0.006 -0.235   -0.129  0.156  0.156

 STANDARD THERMODYNAMIC QUANTITIES AT   298.15 K  AND     1.00 ATM

   This Molecule has  0 Imaginary Frequencies
   Zero point vibrational energy:       84.469 kcal/mol

   Atom    1 Element O  Has Mass   15.99491
   Atom    2 Element C  Has Mass   12.00000
   Atom    3 Element H  Has Mass    1.00783
   Atom    4 Element H  Has Mass    1.00783
   Atom    5 Element H  Has Mass    1.00783
   Atom    6 Element C  Has Mass   12.00000
   Atom    7 Element O  Has Mass   15.99491
   Atom    8 Element O  Has Mass   15.99491
   Atom    9 Element O  Has Mass   15.99491
   Atom   10 Element H  Has Mass    1.00783
   Atom   11 Element C  Has Mass   12.00000
   Atom   12 Element H  Has Mass    1.00783
   Atom   13 Element H  Has Mass    1.00783
   Atom   14 Element C  Has Mass   12.00000
   Atom   15 Element H  Has Mass    1.00783
   Atom   16 Element O  Has Mass   15.99491
   Atom   17 Element H  Has Mass    1.00783
   Atom   18 Element C  Has Mass   12.00000
   Molecular Mass:   148.037190 amu
   Principal axes and moments of inertia in amu*Bohr^2:
                             1           2           3
    Eigenvalues --      556.59221  3295.75467  3388.65511
          X               0.79209    -0.54166    -0.28141
          Y               0.02305    -0.43416     0.90054
          Z               0.60996     0.71980     0.33141
   Rotational Symmetry Number is   1
   The Molecule is an Asymmetric Top
   Translational Enthalpy:        0.889 kcal/mol
   Rotational Enthalpy:           0.889 kcal/mol
   Vibrational Enthalpy:         89.513 kcal/mol
   gas constant (RT):             0.592 kcal/mol
   Translational Entropy:        40.887  cal/mol.K
   Rotational Entropy:           30.209  cal/mol.K
   Vibrational Entropy:          33.636  cal/mol.K

   Total Enthalpy:               91.883 kcal/mol
   Total Entropy:               104.732  cal/mol.K
Archival summary:
1\1\c5-80\FREQ\ProcedureUnspecified\BasisUnspecified\558(2-,1)\lmgong\FriMar2021:42:132020FriMar2021:42:132020\0\\#,FREQ,ProcedureUnspecified,BasisUnspecified,\\-2,1\O\C,1,1.41325\H,2,1.09809,1,110.485\H,2,1.09891,1,110.363,3,-119.042,0\C,1,1.46871,2,114.427,3,66.8676,0\O,5,1.30793,1,113.993,2,-48.5473,0\O,5,1.46794,1,105.278,2,73.5403,0\H,7,0.964831,5,103.24,1,-110.232,0\C,2,1.52426,1,108.62,3,120.655,0\H,9,1.09407,2,109.176,1,-57.6066,0\H,9,1.09478,2,109.132,1,61.3572,0\C,5,1.53212,1,103.184,2,-175.721,0\H,12,1.09312,5,108.887,1,-177.066,0\H,12,1.0934,5,109.474,1,63.928,0\H,12,1.0941,5,111.581,1,-56.7229,0\C,9,1.53506,2,110.175,1,-178.203,0\O,16,1.25941,9,117.397,2,96.3583,0\O,16,1.2601,9,117.031,2,-82.0183,0\\\@

 Total job time:  33858.64s(wall), 471630.12s(cpu) 
 Fri Mar 20 21:42:13 2020

        *************************************************************
        *                                                           *
        *  Thank you very much for using Q-Chem.  Have a nice day.  *
        *                                                           *
        *************************************************************


