18   
From 1-reactant-freq.out: Frame 1 / 109, Energy=    -571.8193598221
O        0.6088437149   -0.1947404138   -0.1019133657
C       -0.7065010765    0.2578526194   -0.3514919377
H       -0.7106455064    1.3386087770   -0.5457893286
H       -1.3469148186    0.0723839657    0.5220472365
H       -1.2864784848   -1.5609027409   -1.3371234145
C       -2.6713515936    0.0076368093   -1.8911176952
O       -3.6209952097   -0.4800156753   -1.2216274665
O       -2.7817981895    0.8888064013   -2.7841205472
O        1.0785315428    1.6079554700    1.2979954979
H        2.6406793999   -1.3239105769    1.0075431788
C        2.6306889361   -0.2336709004    1.0987702068
H        3.1467754554    0.0509943506    2.0193823343
H        3.1615432188    0.1984124678    0.2461139159
C        1.2008914958    0.3151717214    1.1417063734
H       -0.5970919522   -0.3233500826   -2.4169467908
O        0.5242276179   -0.4154124087    2.2202296954
H       -0.0190202583    0.2627750589    2.6395643498
C       -1.2571893956   -0.4895415349   -1.5604203885
