
Running Job 1 of 1 qc-3-tshess.in
qchem qc-3-tshess.in_104652.0 /scratch/lmgong/1219155/qc-3-tshess.d/ 1
/home/leeping/opt/qchem/5.0.2-openmp/exe/qcprog.exe_s qc-3-tshess.in_104652.0 /scratch/lmgong/1219155/qc-3-tshess.d/
Check license passed

                  Welcome to Q-Chem
     A Quantum Leap Into The Future Of Chemistry


 Q-Chem 5.0, Q-Chem, Inc., Pleasanton, CA (2017)

 Yihan Shao,  Zhengting Gan,  E. Epifanovsky,  A. T. B. Gilbert,  M. Wormit,  
 J. Kussmann,  A. W. Lange,  A. Behn,  Jia Deng,  Xintian Feng,  D. Ghosh,  
 M. Goldey,  P. R. Horn,  L. D. Jacobson,  I. Kaliman,  T. Kus,  A. Landau,  
 Jie Liu,  E. I. Proynov,  R. M. Richard,  R. P. Steele,  E. J. Sundstrom,  
 H. L. Woodcock III,  P. M. Zimmerman,  D. Zuev,  B. Albrecht,  E. Alguire,  
 S. A. Baeppler,  D. Barton,  Z. Benda,  Y. A. Bernard,  E. J. Berquist,  
 K. B. Bravaya,  H. Burton,  D. Casanova,  Chun-Min Chang,  Yunqing Chen,  
 A. Chien,  K. D. Closser,  M. P. Coons,  S. Dasgupta,  A. L. Dempwolff,  
 M. Diedenhofen,  Hainam Do,  R. G. Edgar,  Po-Tung Fang,  S. Fatehi,  
 Qingguo Feng,  J. Fosso-Tande,  Qinghui Ge,  A. Ghysels,  G. Gidofalvi,  
 J. Gomes,  J. Gonthier,  A. Gunina,  M. W. D. Hanson-Heine,  
 P. H. P. Harbach,  A. W. Hauser,  J. E. Herr,  E. G. Hohenstein,  
 Z. C. Holden,  Kerwin Hui,  T.-C. Jagau,  Hyunjun Ji,  B. Kaduk,  
 K. Khistyaev,  Jaehoon Kim,  P. Klunzinger,  K. Koh,  D. Kosenkov,  
 L. Koulias,  T. Kowalczyk,  C. M. Krauter,  A. Kunitsa,  Ka Un Lao,  
 A. Laurent,  K. V. Lawler,  Joonho Lee,  D. Lefrancois,  S. Lehtola,  
 D. S. Levine,  Yi-Pei Li,  You-Sheng Lin,  Fenglai Liu,  E. Livshits,  
 A. Luenser,  P. Manohar,  E. Mansoor,  S. F. Manzer,  Shan-Ping Mao,  
 Yuezhi Mao,  N. Mardirossian,  A. V. Marenich,  T. Markovich,  
 L. A. Martinez-Martinez,  S. A. Maurer,  N. J. Mayhall,  S. C. McKenzie,  
 J.-M. Mewes,  A. F. Morrison,  J. W. Mullinax,  K. Nanda,  
 T. S. Nguyen-Beck,  R. Olivares-Amaya,  J. A. Parkhill,  T. M. Perrine,  
 F. Plasser,  S. Prager,  A. Prociuk,  E. Ramos,  D. R. Rehn,  F. Rob,  
 M. Schneider,  N. Sergueev,  S. M. Sharada,  S. Sharma,  D. W. Small,  
 T. Stauch,  T. Stein,  Yu-Chuan Su,  A. J. W. Thom,  A. Tkatchenko,  
 T. Tsuchimochi,  L. Vogt,  O. Vydrov,  M. A. Watson,  J. Wenzel,  
 M. de Wergifosse,  T. A. Wesolowski,  A. White,  J. Witte,  A. Yamada,  
 Jun Yang,  K. Yao,  S. Yeganeh,  S. R. Yost,  Zhi-Qiang You,  A. Zech,  
 Igor Ying Zhang,  Xing Zhang,  Yan Zhao,  Ying Zhu,  B. R. Brooks,  
 G. K. L. Chan,  C. J. Cramer,  M. S. Gordon,  W. J. Hehre,  A. Klamt,  
 M. W. Schmidt,  C. D. Sherrill,  D. G. Truhlar,  A. Aspuru-Guzik,  R. Baer,  
 A. T. Bell,  N. A. Besley,  Jeng-Da Chai,  R. A. DiStasio Jr.,  A. Dreuw,  
 B. D. Dunietz,  T. R. Furlani,  Chao-Ping Hsu,  Yousung Jung,  Jing Kong,  
 D. S. Lambrecht,  WanZhen Liang,  C. Ochsenfeld,  V. A. Rassolov,  
 L. V. Slipchenko,  J. E. Subotnik,  T. Van Voorhis,  J. M. Herbert,  
 A. I. Krylov,  P. M. W. Gill,  M. Head-Gordon

 Contributors to earlier versions of Q-Chem not listed above: 
 R. D. Adamson,  B. Austin,  J. Baker,  G. J. O. Beran,  K. Brandhorst,  
 S. T. Brown,  E. F. C. Byrd,  A. K. Chakraborty,  C.-L. Cheng,  
 Siu Hung Chien,  D. M. Chipman,  D. L. Crittenden,  H. Dachsel,  
 R. J. Doerksen,  A. D. Dutoi,  L. Fusti-Molnar,  W. A. Goddard III,  
 A. Golubeva-Zadorozhnaya,  S. R. Gwaltney,  G. Hawkins,  A. Heyden,  
 S. Hirata,  G. Kedziora,  F. J. Keil,  C. Kelley,  Jihan Kim,  R. A. King,  
 R. Z. Khaliullin,  P. P. Korambath,  W. Kurlancheek,  A. M. Lee,  M. S. Lee,  
 S. V. Levchenko,  Ching Yeh Lin,  D. Liotard,  R. C. Lochan,  I. Lotan,  
 P. E. Maslen,  N. Nair,  D. P. O'Neill,  D. Neuhauser,  E. Neuscamman,  
 C. M. Oana,  R. Olson,  B. Peters,  R. Peverati,  P. A. Pieniazek,  
 Y. M. Rhee,  J. Ritchie,  M. A. Rohrdanz,  E. Rosta,  N. J. Russ,  
 H. F. Schaefer III,  N. E. Schultz,  N. Shenvi,  A. C. Simmonett,  A. Sodt,  
 D. Stuck,  K. S. Thanthiriwatte,  V. Vanovschi,  Tao Wang,  A. Warshel,  
 C. F. Williams,  Q. Wu,  X. Xu,  W. Zhang

 Please cite Q-Chem as follows:
 Y. Shao et al., Mol. Phys. 113, 184-215 (2015)
 DOI: 10.1080/00268976.2014.952696

 Q-Chem 5.0.2 for Intel X86 EM64T Linux

 Parts of Q-Chem use Armadillo 5.200.1 (Boston Tea Smuggler).
 http://arma.sourceforge.net/

 Q-Chem begins on Sat May 26 10:07:42 2018  

Host: 
0

     Scratch files written to /scratch/lmgong/1219155/qc-3-tshess.d//
 Dec517 15110_ 26548  26544 5633   
Processing $rem in /home/leeping/opt/qchem/5.0.2-openmp/config/preferences.
 MEM_STATIC 2000
 MEM_TOTAL  8000
 SYMMETRY   OFF
 SYM_IGNORE TRUE 
Symmetry turned off for PCM/SM12/SMD calculation

Checking the input file for inconsistencies... 	...done.

--------------------------------------------------------------
User input:
--------------------------------------------------------------
$molecule
-2 1
O        0.8353580276    0.3146786961   -0.6992694387
C       -0.5118414529    0.5197382275   -0.8709788997
H       -0.7304818016    1.2739841916   -1.6596454728
H       -0.9839208174    0.9299279003    0.0519898287
H       -1.1635113206   -1.4957097235   -0.4517571401
C       -2.7826918211   -0.4601423967   -1.4455386350
O       -3.5282603635   -0.5045837890   -0.4269663587
O       -3.1692120338   -0.1458519304   -2.6061762507
O        0.8104666924    1.5647822761    1.7229141487
H        2.8351359587   -0.7648052643    0.6259967831
C        2.7048372194    0.1713247350    1.1674221324
H        3.2091179812    0.0977139971    2.1380674999
H        3.1443491157    0.9915741616    0.6015998431
C        1.2506533697    0.4593413012    1.4167176042
H       -0.8747074528   -1.1605627346   -2.1781617356
O        0.5672999336   -0.6625497499    1.7965054926
H       -0.3155274507   -0.3703312104    2.0678093627
C       -1.2970637830   -0.7585286931   -1.2505287618
$end

$rem
jobtype               freq
method                wb97x-v
basis                 def2-tzvpd
symmetry              off
sym_ignore            true
incdft                false
incfock               0
!scf_algorithm        diis_gdm
scf_convergence       8
thresh                14
!purecart             112
max_scf_cycles        1000
geom_opt_max_cycles   500
geom_opt_dmax         100
geom_opt_tol_gradient 10
solvent_method        pcm
ideriv                1
rpath_tol_displacement 1000
rpath_max_cycles      100
rpath_direction       1
!scf_guess            read
scf_guess             read
$end

$pcm
theory              cosmo
method              iswig
Radii               bondi
vdwScale            1.20
hpoints             110
heavypoints         110
$end

$solvent
dielectric 78.400000
$end

--------------------------------------------------------------
 ----------------------------------------------------------------
             Standard Nuclear Orientation (Angstroms)
    I     Atom           X                Y                Z
 ----------------------------------------------------------------
    1      O       0.8353580276     0.3146786961    -0.6992694387
    2      C      -0.5118414529     0.5197382275    -0.8709788997
    3      H      -0.7304818016     1.2739841916    -1.6596454728
    4      H      -0.9839208174     0.9299279003     0.0519898287
    5      H      -1.1635113206    -1.4957097235    -0.4517571401
    6      C      -2.7826918211    -0.4601423967    -1.4455386350
    7      O      -3.5282603635    -0.5045837890    -0.4269663587
    8      O      -3.1692120338    -0.1458519304    -2.6061762507
    9      O       0.8104666924     1.5647822761     1.7229141487
   10      H       2.8351359587    -0.7648052643     0.6259967831
   11      C       2.7048372194     0.1713247350     1.1674221324
   12      H       3.2091179812     0.0977139971     2.1380674999
   13      H       3.1443491157     0.9915741616     0.6015998431
   14      C       1.2506533697     0.4593413012     1.4167176042
   15      H      -0.8747074528    -1.1605627346    -2.1781617356
   16      O       0.5672999336    -0.6625497499     1.7965054926
   17      H      -0.3155274507    -0.3703312104     2.0678093627
   18      C      -1.2970637830    -0.7585286931    -1.2505287618
 ----------------------------------------------------------------
 Nuclear Repulsion Energy =   530.8734842315 hartrees
 There are       40 alpha and       40 beta electrons
 Requested basis set is def2-TZVPD
 There are 175 shells and 457 basis functions

 Total QAlloc Memory Limit   8000 MB
 Mega-Array Size      1956 MB
 MEM_STATIC part      2000 MB
 Discretize the solute cavity surface with Lebedev spheres
	Using 110 Lebedev grid points for each H atom
	Using 110 Lebedev grid points for other atoms
	Atomic van der Waals radii will be scaled by 1.20
 Remove points where switching function is < 1.0e-08
 Keep 1112 surface tesserae and discard 868 interior tesserae
 Molecular Surface Area = 195.350 Angst**2
 A cutoff of  1.0D-14 yielded  13861 shell pairs
 There are     94653 function pairs (    120338 Cartesian)
 
 -------------------------------------------------------
 OpenMP Integral Computing Module                       
 Release: version 1.0, May 2013, Q-Chem Inc. Pittsburgh 
 -------------------------------------------------------
 Integral Job Info:
 Integral job number is                      11
 Integral operator is                         1
 short-range coefficients              16700000
 long-range coefficients              100000000
 Omega coefficients                         300
 if combine SR and LR in K                    1
 Integral screening is                        0
 Integral computing path is                   2
 max size of driver memory is            800000
 size of driver memory is                776718
 size of scratch memory is              4473992
 max col of scratch BK array              10000
 max len of scratch array in speh3          662
 max len of scratch index in speh4           32
 max int batch size is                      520
 min int batch size is                       52
 fixed nKL is                                52
 max L of basis functions is                  3
 order of int derivative is                   0
 number of shells is                        175
 number of basis is                         517
 number of cartesian basis is               517
 number of contracted shell pairs         13861
 number of primitive shell pairs          27901
 maxK2 (contraction) of shell pair           36
 max number of K2 of shell pair               1
 max number of CS2 of shell pair           2309
 max number of PS2 of shell pair           3192
 mem total for path MDJ                  774048
 -------------------------------------------------------
 Smallest overlap matrix eigenvalue = 5.76E-06
 Guess MOs from SCF MO coefficient file
 Reading MOs from coefficient file
 Reading MOs from coefficient file
 Long-range K will be added via erf
 Coulomb attenuation parameter = 0.3 bohr**(-1)
 A restricted hybrid HF-DFT SCF calculation will be
 performed using Pulay DIIS extrapolation
 Polarizable Continuum solvation model will be applied
 Exchange:     0.1670 Hartree-Fock + 1.0000 wB97X-V + LR-HF
 Correlation:  1.0000 wB97X-V
 Using SG-2 standard quadrature grid
 Nonlocal Correlation:  VV10 with C = 0.0100 and b = 6.00
 Grid used for NLC:  SG-1 standard quadrature
 SCF converges when DIIS error is below 1.0E-08
Using Q-Chem read-in guess as SCF_GUESS READ specified.

 using 8 threads for integral computing
 -------------------------------------------------------
 OpenMP Integral computing Module                
 Release: version 1.0, May 2013, Q-Chem Inc. Pittsburgh 
 -------------------------------------------------------
 using 8 threads for integral computing
 -------------------------------------------------------
 OpenMP Integral computing Module                
 Release: version 1.0, May 2013, Q-Chem Inc. Pittsburgh 
 -------------------------------------------------------
 -------------------------------------------------------
 OpenMP BLAS3 based DFT computing Module                
 Release: version 1.0, May 2013, Q-Chem Inc. Pittsburgh 
 -------------------------------------------------------
 -------------------------------------------------------
 OpenMP BLAS3 based DFT computing Module                
 Release: version 1.0, May 2013, Q-Chem Inc. Pittsburgh 
 -------------------------------------------------------
 -------------------------------------------------------
 OpenMP BLAS3 based DFT computing Module                
 Release: version 1.0, May 2013, Q-Chem Inc. Pittsburgh 
 -------------------------------------------------------
 ---------------------------------------
  Cycle       Energy         DIIS Error
 ---------------------------------------
    1    -571.4821301639      3.65E-04
    2    -571.7924981725      3.96E-04
    3    -571.7982398708      1.82E-04
    4    -571.7991630989      1.33E-04
    5    -571.7997224337      1.02E-04
    6    -571.8000480801      8.00E-05
    7    -571.8002545864      6.21E-05
    8    -571.8003679653      4.97E-05
    9    -571.8004630758      3.61E-05
   10    -571.8005137697      2.61E-05
   11    -571.8005392868      1.92E-05
   12    -571.8005511424      1.49E-05
   13    -571.8005574401      1.20E-05
   14    -571.8005618526      9.49E-06
   15    -571.8005645859      7.50E-06
   16    -571.8005662046      6.02E-06
   17    -571.8005691337      4.59E-09 Convergence criterion met
 ---------------------------------------

************** Final PCM Free Energy Summary **************
 G_electrostatic  =      -0.31843896 hartree =    -199.82346161 kcal/mol
 G_cavitation     =       0.00000000 hartree =       0.00000000 kcal/mol
 G_dispersion     =       0.00000000 hartree =       0.00000000 kcal/mol
 G_repulsion      =       0.00000000 hartree =       0.00000000 kcal/mol
 --------------------------------------------------
 Non-electrostatic Free Energy =       0.00000000 hartree =       0.00000000 kcal/mol
 Total                         =      -0.31843896 hartree =    -199.82346161 kcal/mol
 --------------------------------------------------
 SCF Energy (H0 + V/2)                       =    -571.80056913 
 Solute Internal Energy (H0)                 =    -571.48213018 
 Total Free Energy (H0 + V/2 + non-elec)     =    -571.80056913 hartree
                                             = -358810.27265461 kcal/mol
***********************************************************

 SCF time:  CPU 3860.11 s  wall 521.78 s
 SCF   energy in the final basis set = -571.80056913
 Total energy in the final basis set = -571.80056913
 
 --------------------------------------------------------------
 
                    Orbital Energies (a.u.)
 --------------------------------------------------------------
 
 Alpha MOs
 -- Occupied --
-19.226 -19.163 -19.135 -19.135 -19.096 -10.387 -10.334 -10.266
-10.250 -10.228  -1.204  -1.137  -1.106  -1.042  -1.024  -0.861
 -0.836  -0.700  -0.686  -0.599  -0.585  -0.572  -0.565  -0.539
 -0.527  -0.505  -0.498  -0.491  -0.480  -0.470  -0.444  -0.433
 -0.427  -0.397  -0.360  -0.343  -0.336  -0.324  -0.286  -0.283
 -- Virtual --
  0.058   0.074   0.081   0.084   0.101   0.104   0.107   0.117
  0.124   0.127   0.136   0.141   0.146   0.150   0.155   0.158
  0.168   0.179   0.181   0.184   0.189   0.194   0.210   0.217
  0.228   0.236   0.241   0.247   0.253   0.259   0.261   0.271
  0.276   0.286   0.293   0.304   0.309   0.320   0.325   0.328
  0.335   0.340   0.344   0.347   0.350   0.357   0.364   0.366
  0.374   0.378   0.380   0.387   0.398   0.401   0.404   0.406
  0.414   0.416   0.420   0.424   0.431   0.432   0.437   0.439
  0.452   0.457   0.462   0.469   0.478   0.482   0.486   0.492
  0.501   0.507   0.510   0.513   0.516   0.523   0.529   0.534
  0.538   0.544   0.551   0.555   0.562   0.567   0.580   0.586
  0.595   0.600   0.605   0.611   0.617   0.630   0.641   0.647
  0.659   0.661   0.666   0.673   0.680   0.691   0.693   0.698
  0.704   0.715   0.718   0.728   0.736   0.748   0.752   0.755
  0.762   0.772   0.778   0.786   0.788   0.801   0.802   0.810
  0.818   0.825   0.830   0.834   0.844   0.848   0.855   0.859
  0.862   0.869   0.882   0.882   0.890   0.904   0.910   0.913
  0.919   0.937   0.946   0.956   0.969   0.991   0.997   1.010
  1.023   1.034   1.039   1.046   1.069   1.079   1.089   1.096
  1.116   1.129   1.140   1.156   1.170   1.186   1.201   1.212
  1.228   1.237   1.248   1.267   1.286   1.298   1.302   1.308
  1.325   1.343   1.355   1.366   1.371   1.402   1.410   1.423
  1.436   1.457   1.475   1.485   1.498   1.513   1.552   1.557
  1.582   1.588   1.634   1.645   1.649   1.670   1.760   1.830
  1.860   1.865   1.893   1.902   1.904   1.924   1.933   1.944
  1.951   1.962   1.981   1.988   2.011   2.018   2.021   2.042
  2.042   2.051   2.064   2.084   2.092   2.113   2.145   2.158
  2.168   2.196   2.200   2.214   2.229   2.234   2.253   2.260
  2.278   2.334   2.344   2.363   2.379   2.403   2.414   2.426
  2.448   2.468   2.481   2.487   2.505   2.515   2.543   2.562
  2.565   2.595   2.617   2.638   2.646   2.660   2.665   2.675
  2.718   2.735   2.758   2.788   2.801   2.843   2.854   2.864
  2.898   2.910   2.930   2.939   2.958   2.967   2.981   2.999
  3.025   3.080   3.087   3.096   3.106   3.121   3.141   3.186
  3.222   3.245   3.267   3.279   3.292   3.305   3.319   3.353
  3.358   3.371   3.377   3.400   3.408   3.426   3.433   3.440
  3.472   3.474   3.481   3.512   3.523   3.531   3.557   3.583
  3.586   3.597   3.606   3.633   3.641   3.654   3.679   3.701
  3.707   3.709   3.730   3.750   3.760   3.766   3.776   3.815
  3.835   3.853   3.868   3.906   3.943   3.958   4.003   4.062
  4.068   4.082   4.098   4.115   4.167   4.186   4.240   4.251
  4.283   4.337   4.364   4.488   4.574   4.616   4.647   4.693
  4.729   4.753   4.809   4.814   4.821   4.861   4.915   4.944
  5.057   5.119   5.182   5.323   5.327   5.355   5.359   5.363
  5.378   5.384   5.468   5.499   5.515   5.532   5.584   5.635
  5.670   5.686   5.711   5.723   5.730   5.780   5.889   5.984
  6.047   6.116   6.138   6.155   6.250   6.299   6.311   6.329
  6.438   6.470   6.564   6.608   6.632   6.657   6.703   6.734
  6.756   6.759   6.766   6.784   6.802   6.887   6.942   6.946
  6.976   7.003   7.048   7.110   7.130   7.164   7.236   7.256
  7.310   7.358   7.363   7.372   7.414   7.489   7.548  22.702
 22.842  22.933  23.460  23.691  44.343  44.376  44.400  44.415
 44.503
 --------------------------------------------------------------
 
          Ground-State Mulliken Net Atomic Charges

     Atom                 Charge (a.u.)
  ----------------------------------------
      1 O                    -0.779437
      2 C                    -0.376281
      3 H                     0.205519
      4 H                     0.090683
      5 H                     0.067070
      6 C                     0.168291
      7 O                    -0.704561
      8 O                    -0.705364
      9 O                    -0.628217
     10 H                     0.173604
     11 C                    -0.786677
     12 H                     0.256287
     13 H                     0.205244
     14 C                     0.628693
     15 H                     0.146588
     16 O                    -0.432257
     17 H                     0.371745
     18 C                     0.099069
  ----------------------------------------
  Sum of atomic charges =    -2.000000

 -----------------------------------------------------------------
                    Cartesian Multipole Moments
 -----------------------------------------------------------------
    Charge (ESU x 10^10)
                -9.6064
    Dipole Moment (Debye)
         X      14.2175      Y      -2.5509      Z       8.1977
       Tot      16.6086
    Quadrupole Moments (Debye-Ang)
        XX    -132.0845     XY      -7.2343     YY     -75.0770
        XZ     -27.0911     YZ      -4.9374     ZZ     -94.1325
    Octopole Moments (Debye-Ang^2)
       XXX     345.3294    XXY      13.6895    XYY      25.7041
       YYY     -22.7731    XXZ     111.3777    XYZ       0.0694
       YYZ      -6.0396    XZZ      93.4619    YZZ     -12.8142
       ZZZ      87.7973
    Hexadecapole Moments (Debye-Ang^3)
      XXXX   -2653.7170   XXXY    -189.4668   XXYY    -355.1251
      XYYY    -129.4325   YYYY    -302.2131   XXXZ    -741.2282
      XXYZ     -33.1294   XYYZ    -156.8952   YYYZ     -90.5980
      XXZZ    -684.8432   XYZZ     -49.6412   YYZZ    -229.4858
      XZZZ    -647.2846   YZZZ     -92.9888   ZZZZ   -1112.5623
 -----------------------------------------------------------------
 Calculating analytic gradient of the SCF energy
 Gradient of SCF Energy
            1           2           3           4           5           6
    1   0.0030517  -0.0766902   0.0041640   0.0284931  -0.0208120  -0.0583893
    2   0.0075155   0.0941630  -0.0346004  -0.0334427   0.0537040   0.0650318
    3  -0.0245381  -0.0021865   0.0354125  -0.0650891  -0.0552536   0.0193377
            7           8           9          10          11          12
    1   0.0446778   0.0291031   0.0371252  -0.0071879   0.0926582  -0.0331346
    2   0.0009109  -0.0168474  -0.0480380   0.0658043  -0.0056372   0.0049491
    3  -0.0436694   0.0527769  -0.0165864   0.0392614  -0.0337696  -0.0563884
           13          14          15          16          17          18
    1  -0.0293682  -0.0955229  -0.0376781  -0.0240290   0.0632495   0.0802898
    2  -0.0587936   0.0213848   0.0181823   0.0276604  -0.0095135  -0.1524331
    3   0.0417049   0.0409871   0.0491396   0.0214703  -0.0115825   0.0089733
 Max gradient component =       1.524E-01
 RMS gradient           =       4.859E-02
 Computing fast CPCM-ISWIG gradient
 Updating gradient with PCM contributions...
 -- total gradient after adding PCM contribution --
---------------------------------------------------
  Atom         X              Y              Z     
---------------------------------------------------
   1      -0.000023       0.000051       0.000000
   2      -0.000030       0.000028       0.000034
   3      -0.000062       0.000058       0.000072
   4      -0.000019      -0.000025       0.000061
   5       0.000025      -0.000007      -0.000044
   6      -0.000017       0.000003       0.000036
   7       0.000001      -0.000061       0.000049
   8      -0.000050       0.000044       0.000060
   9      -0.000001      -0.000059       0.000054
  10       0.000030       0.000036      -0.000093
  11       0.000020       0.000009      -0.000047
  12       0.000042      -0.000023      -0.000061
  13      -0.000010       0.000044      -0.000020
  14       0.000020      -0.000035      -0.000005
  15      -0.000018       0.000078      -0.000035
  16       0.000052      -0.000067      -0.000042
  17       0.000051      -0.000100      -0.000010
  18      -0.000008       0.000027      -0.000010
---------------------------------------------------
 Number of fixed atoms: 0
 Gradient time:  CPU 792.36 s  wall 105.79 s
 ######################################################
 ######################################################
 # Starting finite difference calculation for IDERIV  #
 Finite diff step size:  1.88973e-03 a.u.
 ----------------------------------------------------------------
             Standard Nuclear Orientation (Angstroms)
    I     Atom           X                Y                Z
 ----------------------------------------------------------------
    1      O       0.8363580276     0.3146786961    -0.6992694387
    2      C      -0.5118414529     0.5197382275    -0.8709788997
    3      H      -0.7304818016     1.2739841916    -1.6596454728
    4      H      -0.9839208174     0.9299279003     0.0519898287
    5      H      -1.1635113206    -1.4957097235    -0.4517571401
    6      C      -2.7826918211    -0.4601423967    -1.4455386350
    7      O      -3.5282603635    -0.5045837890    -0.4269663587
    8      O      -3.1692120338    -0.1458519304    -2.6061762507
    9      O       0.8104666924     1.5647822761     1.7229141487
   10      H       2.8351359587    -0.7648052643     0.6259967831
   11      C       2.7048372194     0.1713247350     1.1674221324
   12      H       3.2091179812     0.0977139971     2.1380674999
   13      H       3.1443491157     0.9915741616     0.6015998431
   14      C       1.2506533697     0.4593413012     1.4167176042
   15      H      -0.8747074528    -1.1605627346    -2.1781617356
   16      O       0.5672999336    -0.6625497499     1.7965054926
   17      H      -0.3155274507    -0.3703312104     2.0678093627
   18      C      -1.2970637830    -0.7585286931    -1.2505287618
 ----------------------------------------------------------------
 Nuclear Repulsion Energy =   530.8533450989 hartrees
 There are       40 alpha and       40 beta electrons
 Discretize the solute cavity surface with Lebedev spheres
	Using 110 Lebedev grid points for each H atom
	Using 110 Lebedev grid points for other atoms
	Atomic van der Waals radii will be scaled by 1.20
 Remove points where switching function is < 1.0e-08
 Keep 1111 surface tesserae and discard 869 interior tesserae
 Molecular Surface Area = 195.353 Angst**2
 Requested basis set is def2-TZVPD
 There are 175 shells and 457 basis functions
 A cutoff of  1.0D-14 yielded  13861 shell pairs
 There are     94653 function pairs (    120338 Cartesian)
 Smallest overlap matrix eigenvalue = 5.76E-06
 Guess MOs from SCF MO coefficient file
 Reading MOs from coefficient file
 Reading MOs from coefficient file
 Long-range K will be added via erf
 Coulomb attenuation parameter = 0.3 bohr**(-1)
 A restricted hybrid HF-DFT SCF calculation will be
 performed using Pulay DIIS extrapolation
 Polarizable Continuum solvation model will be applied
 Exchange:     0.1670 Hartree-Fock + 1.0000 wB97X-V + LR-HF
 Correlation:  1.0000 wB97X-V
 Using SG-2 standard quadrature grid
 Nonlocal Correlation:  VV10 with C = 0.0100 and b = 6.00
 Grid used for NLC:  SG-1 standard quadrature
 SCF converges when DIIS error is below 1.0E-08
Using Q-Chem read-in guess as SCF_GUESS READ specified.

 using 8 threads for integral computing
 -------------------------------------------------------
 OpenMP Integral computing Module                
 Release: version 1.0, May 2013, Q-Chem Inc. Pittsburgh 
 -------------------------------------------------------
 using 8 threads for integral computing
 -------------------------------------------------------
 OpenMP Integral computing Module                
 Release: version 1.0, May 2013, Q-Chem Inc. Pittsburgh 
 -------------------------------------------------------
 -------------------------------------------------------
 OpenMP BLAS3 based DFT computing Module                
 Release: version 1.0, May 2013, Q-Chem Inc. Pittsburgh 
 -------------------------------------------------------
 -------------------------------------------------------
 OpenMP BLAS3 based DFT computing Module                
 Release: version 1.0, May 2013, Q-Chem Inc. Pittsburgh 
 -------------------------------------------------------
 -------------------------------------------------------
 OpenMP BLAS3 based DFT computing Module                
 Release: version 1.0, May 2013, Q-Chem Inc. Pittsburgh 
 -------------------------------------------------------
 ---------------------------------------
  Cycle       Energy         DIIS Error
 ---------------------------------------
    1    -571.4815828651      3.65E-04
    2    -571.7925068362      3.96E-04
    3    -571.7982425030      1.82E-04
    4    -571.7991645855      1.33E-04
    5    -571.7997276331      1.02E-04
    6    -571.8000629740      7.88E-05
    7    -571.8002873648      5.87E-05
    8    -571.8004182027      4.29E-05
    9    -571.8005234005      2.35E-05
   10    -571.8005613082      9.44E-06
   11    -571.8005677683      3.03E-06
   12    -571.8005684434      8.61E-07
   13    -571.8005684999      1.65E-07
   14    -571.8005685020      2.50E-08
   15    -571.8005685020      1.12E-08
   16    -571.8005685020      2.02E-09 Convergence criterion met
 ---------------------------------------

************** Final PCM Free Energy Summary **************
 G_electrostatic  =      -0.31841966 hartree =    -199.81135106 kcal/mol
 G_cavitation     =       0.00000000 hartree =       0.00000000 kcal/mol
 G_dispersion     =       0.00000000 hartree =       0.00000000 kcal/mol
 G_repulsion      =       0.00000000 hartree =       0.00000000 kcal/mol
 --------------------------------------------------
 Non-electrostatic Free Energy =       0.00000000 hartree =       0.00000000 kcal/mol
 Total                         =      -0.31841966 hartree =    -199.81135106 kcal/mol
 --------------------------------------------------
 SCF Energy (H0 + V/2)                       =    -571.80056850 
 Solute Internal Energy (H0)                 =    -571.48214884 
 Total Free Energy (H0 + V/2 + non-elec)     =    -571.80056850 hartree
                                             = -358810.27225819 kcal/mol
***********************************************************

 SCF time:  CPU 3636.60 s  wall 495.78 s
 SCF   energy in the final basis set = -571.80056850
 Total energy in the final basis set = -571.80056850
 
 --------------------------------------------------------------
 
                    Orbital Energies (a.u.)
 --------------------------------------------------------------
 
 Alpha MOs
 -- Occupied --
-19.226 -19.163 -19.135 -19.135 -19.096 -10.387 -10.334 -10.266
-10.250 -10.228  -1.204  -1.137  -1.106  -1.042  -1.023  -0.861
 -0.836  -0.700  -0.686  -0.599  -0.585  -0.572  -0.565  -0.539
 -0.527  -0.505  -0.498  -0.491  -0.480  -0.470  -0.444  -0.433
 -0.427  -0.397  -0.360  -0.344  -0.336  -0.324  -0.286  -0.283
 -- Virtual --
  0.058   0.074   0.081   0.084   0.101   0.104   0.107   0.117
  0.124   0.127   0.136   0.141   0.146   0.150   0.155   0.158
  0.168   0.179   0.181   0.184   0.189   0.194   0.210   0.217
  0.228   0.236   0.241   0.247   0.253   0.259   0.261   0.271
  0.276   0.286   0.293   0.304   0.309   0.320   0.325   0.328
  0.335   0.340   0.344   0.347   0.350   0.357   0.364   0.366
  0.374   0.378   0.380   0.387   0.398   0.401   0.404   0.406
  0.414   0.416   0.420   0.424   0.431   0.432   0.437   0.439
  0.452   0.457   0.462   0.469   0.478   0.482   0.486   0.492
  0.501   0.507   0.510   0.513   0.516   0.523   0.529   0.534
  0.538   0.544   0.551   0.555   0.562   0.567   0.580   0.586
  0.595   0.600   0.605   0.611   0.617   0.630   0.641   0.647
  0.659   0.661   0.666   0.673   0.680   0.691   0.693   0.698
  0.704   0.715   0.718   0.728   0.736   0.748   0.752   0.755
  0.762   0.772   0.778   0.786   0.788   0.801   0.802   0.810
  0.818   0.825   0.830   0.834   0.844   0.848   0.855   0.859
  0.861   0.869   0.882   0.882   0.890   0.904   0.910   0.913
  0.919   0.937   0.946   0.956   0.969   0.991   0.997   1.010
  1.023   1.034   1.039   1.046   1.069   1.079   1.089   1.096
  1.116   1.129   1.140   1.156   1.170   1.186   1.201   1.212
  1.227   1.237   1.248   1.267   1.286   1.298   1.302   1.308
  1.325   1.344   1.355   1.366   1.371   1.402   1.410   1.423
  1.436   1.457   1.474   1.485   1.498   1.513   1.552   1.557
  1.582   1.588   1.634   1.645   1.648   1.670   1.760   1.830
  1.860   1.865   1.893   1.902   1.904   1.924   1.933   1.944
  1.951   1.962   1.981   1.988   2.011   2.018   2.021   2.042
  2.042   2.051   2.064   2.084   2.092   2.113   2.145   2.158
  2.167   2.196   2.200   2.214   2.229   2.234   2.253   2.260
  2.278   2.334   2.344   2.363   2.379   2.403   2.414   2.426
  2.448   2.468   2.481   2.487   2.505   2.516   2.543   2.562
  2.564   2.595   2.617   2.638   2.646   2.660   2.665   2.675
  2.718   2.735   2.758   2.788   2.801   2.843   2.854   2.864
  2.898   2.910   2.930   2.938   2.958   2.967   2.981   2.999
  3.025   3.080   3.087   3.096   3.106   3.121   3.141   3.186
  3.222   3.244   3.267   3.279   3.292   3.305   3.319   3.353
  3.358   3.371   3.377   3.400   3.408   3.426   3.433   3.440
  3.472   3.474   3.481   3.512   3.523   3.531   3.557   3.583
  3.585   3.597   3.606   3.633   3.641   3.654   3.679   3.701
  3.707   3.709   3.730   3.750   3.759   3.766   3.776   3.815
  3.835   3.853   3.868   3.906   3.943   3.958   4.003   4.062
  4.068   4.082   4.098   4.115   4.167   4.186   4.240   4.251
  4.283   4.337   4.364   4.488   4.574   4.616   4.647   4.693
  4.729   4.753   4.809   4.814   4.821   4.861   4.915   4.944
  5.056   5.120   5.182   5.323   5.327   5.355   5.359   5.363
  5.378   5.384   5.468   5.499   5.515   5.532   5.584   5.634
  5.669   5.686   5.711   5.723   5.730   5.780   5.889   5.984
  6.047   6.115   6.137   6.153   6.250   6.299   6.311   6.329
  6.437   6.470   6.564   6.608   6.632   6.657   6.703   6.734
  6.756   6.759   6.766   6.784   6.802   6.887   6.942   6.946
  6.976   7.003   7.048   7.110   7.130   7.163   7.236   7.256
  7.310   7.358   7.363   7.372   7.414   7.489   7.548  22.702
 22.842  22.931  23.460  23.691  44.343  44.376  44.400  44.415
 44.503
 --------------------------------------------------------------
 
          Ground-State Mulliken Net Atomic Charges

     Atom                 Charge (a.u.)
  ----------------------------------------
      1 O                    -0.779530
      2 C                    -0.376530
      3 H                     0.205774
      4 H                     0.090863
      5 H                     0.067053
      6 C                     0.168414
      7 O                    -0.704551
      8 O                    -0.705353
      9 O                    -0.628294
     10 H                     0.173539
     11 C                    -0.786638
     12 H                     0.256306
     13 H                     0.205178
     14 C                     0.628730
     15 H                     0.146551
     16 O                    -0.432284
     17 H                     0.371749
     18 C                     0.099021
  ----------------------------------------
  Sum of atomic charges =    -2.000000

 -----------------------------------------------------------------
                    Cartesian Multipole Moments
 -----------------------------------------------------------------
    Charge (ESU x 10^10)
                -9.6064
    Dipole Moment (Debye)
         X      14.2077      Y      -2.5508      Z       8.1956
       Tot      16.5992
    Quadrupole Moments (Debye-Ang)
        XX    -132.0877     XY      -7.2381     YY     -75.0763
        XZ     -27.0858     YZ      -4.9385     ZZ     -94.1334
    Octopole Moments (Debye-Ang^2)
       XXX     345.2482    XXY      13.6870    XYY      25.6838
       YYY     -22.7748    XXZ     111.3650    XYZ       0.0711
       YYZ      -6.0460    XZZ      93.4302    YZZ     -12.8147
       ZZZ      87.7793
    Hexadecapole Moments (Debye-Ang^3)
      XXXX   -2653.7515   XXXY    -189.4820   XXYY    -355.1306
      XYYY    -129.4498   YYYY    -302.2061   XXXZ    -741.1967
      XXYZ     -33.1289   XYYZ    -156.8815   YYYZ     -90.6038
      XXZZ    -684.8553   XYZZ     -49.6526   YYZZ    -229.4813
      XZZZ    -647.2490   YZZZ     -92.9985   ZZZZ   -1112.5588
 -----------------------------------------------------------------
 Calculating analytic gradient of the SCF energy
 Gradient of SCF Energy
            1           2           3           4           5           6
    1   0.0035346  -0.0771263   0.0041398   0.0284720  -0.0208079  -0.0583889
    2   0.0074469   0.0942859  -0.0346151  -0.0334451   0.0537025   0.0650239
    3  -0.0245225  -0.0021275   0.0353771  -0.0650691  -0.0552509   0.0193208
            7           8           9          10          11          12
    1   0.0446647   0.0290921   0.0371354  -0.0071881   0.0926579  -0.0331475
    2   0.0009127  -0.0168419  -0.0480508   0.0658074  -0.0056330   0.0049512
    3  -0.0436622   0.0527670  -0.0165920   0.0392738  -0.0337914  -0.0563968
           13          14          15          16          17          18
    1  -0.0293684  -0.0955263  -0.0376696  -0.0240256   0.0632399   0.0803123
    2  -0.0587985   0.0213972   0.0181939   0.0276671  -0.0095153  -0.1524890
    3   0.0417127   0.0410172   0.0491591   0.0214700  -0.0115834   0.0088985
 Max gradient component =       1.525E-01
 RMS gradient           =       4.861E-02
 Computing fast CPCM-ISWIG gradient
 Updating gradient with PCM contributions...
 -- total gradient after adding PCM contribution --
---------------------------------------------------
  Atom         X              Y              Z     
---------------------------------------------------
   1       0.000691      -0.000041       0.000057
   2      -0.000499       0.000081      -0.000002
   3      -0.000113       0.000090       0.000039
   4      -0.000095      -0.000001       0.000087
   5       0.000030      -0.000003      -0.000041
   6       0.000004      -0.000021       0.000036
   7      -0.000010      -0.000056       0.000054
   8      -0.000059       0.000051       0.000052
   9       0.000010      -0.000075       0.000042
  10       0.000030       0.000033      -0.000095
  11       0.000007       0.000011      -0.000077
  12       0.000035      -0.000022      -0.000065
  13      -0.000009       0.000046      -0.000022
  14      -0.000017      -0.000026       0.000047
  15      -0.000013       0.000082      -0.000036
  16       0.000061      -0.000062      -0.000041
  17       0.000049      -0.000100      -0.000011
  18      -0.000102       0.000014      -0.000025
---------------------------------------------------
 Number of fixed atoms: 0
 Gradient time:  CPU 811.02 s  wall 108.71 s
 ----------------------------------------------------------------
             Standard Nuclear Orientation (Angstroms)
    I     Atom           X                Y                Z
 ----------------------------------------------------------------
    1      O       0.8343580276     0.3146786961    -0.6992694387
    2      C      -0.5118414529     0.5197382275    -0.8709788997
    3      H      -0.7304818016     1.2739841916    -1.6596454728
    4      H      -0.9839208174     0.9299279003     0.0519898287
    5      H      -1.1635113206    -1.4957097235    -0.4517571401
    6      C      -2.7826918211    -0.4601423967    -1.4455386350
    7      O      -3.5282603635    -0.5045837890    -0.4269663587
    8      O      -3.1692120338    -0.1458519304    -2.6061762507
    9      O       0.8104666924     1.5647822761     1.7229141487
   10      H       2.8351359587    -0.7648052643     0.6259967831
   11      C       2.7048372194     0.1713247350     1.1674221324
   12      H       3.2091179812     0.0977139971     2.1380674999
   13      H       3.1443491157     0.9915741616     0.6015998431
   14      C       1.2506533697     0.4593413012     1.4167176042
   15      H      -0.8747074528    -1.1605627346    -2.1781617356
   16      O       0.5672999336    -0.6625497499     1.7965054926
   17      H      -0.3155274507    -0.3703312104     2.0678093627
   18      C      -1.2970637830    -0.7585286931    -1.2505287618
 ----------------------------------------------------------------
 Nuclear Repulsion Energy =   530.8936427459 hartrees
 There are       40 alpha and       40 beta electrons
 Discretize the solute cavity surface with Lebedev spheres
	Using 110 Lebedev grid points for each H atom
	Using 110 Lebedev grid points for other atoms
	Atomic van der Waals radii will be scaled by 1.20
 Remove points where switching function is < 1.0e-08
 Keep 1112 surface tesserae and discard 868 interior tesserae
 Molecular Surface Area = 195.346 Angst**2
 Requested basis set is def2-TZVPD
 There are 175 shells and 457 basis functions
 A cutoff of  1.0D-14 yielded  13861 shell pairs
 There are     94653 function pairs (    120338 Cartesian)
 Smallest overlap matrix eigenvalue = 5.76E-06
 Guess MOs from SCF MO coefficient file
 Reading MOs from coefficient file
 Reading MOs from coefficient file
 Long-range K will be added via erf
 Coulomb attenuation parameter = 0.3 bohr**(-1)
 A restricted hybrid HF-DFT SCF calculation will be
 performed using Pulay DIIS extrapolation
 Polarizable Continuum solvation model will be applied
 Exchange:     0.1670 Hartree-Fock + 1.0000 wB97X-V + LR-HF
 Correlation:  1.0000 wB97X-V
 Using SG-2 standard quadrature grid
 Nonlocal Correlation:  VV10 with C = 0.0100 and b = 6.00
 Grid used for NLC:  SG-1 standard quadrature
 SCF converges when DIIS error is below 1.0E-08
Using Q-Chem read-in guess as SCF_GUESS READ specified.

 using 8 threads for integral computing
 -------------------------------------------------------
 OpenMP Integral computing Module                
 Release: version 1.0, May 2013, Q-Chem Inc. Pittsburgh 
 -------------------------------------------------------
 using 8 threads for integral computing
 -------------------------------------------------------
 OpenMP Integral computing Module                
 Release: version 1.0, May 2013, Q-Chem Inc. Pittsburgh 
 -------------------------------------------------------
 -------------------------------------------------------
 OpenMP BLAS3 based DFT computing Module                
 Release: version 1.0, May 2013, Q-Chem Inc. Pittsburgh 
 -------------------------------------------------------
 -------------------------------------------------------
 OpenMP BLAS3 based DFT computing Module                
 Release: version 1.0, May 2013, Q-Chem Inc. Pittsburgh 
 -------------------------------------------------------
 -------------------------------------------------------
 OpenMP BLAS3 based DFT computing Module                
 Release: version 1.0, May 2013, Q-Chem Inc. Pittsburgh 
 -------------------------------------------------------
 ---------------------------------------
  Cycle       Energy         DIIS Error
 ---------------------------------------
    1    -571.4832481420      3.66E-04
    2    -571.7924791542      3.97E-04
    3    -571.7982379807      1.82E-04
    4    -571.7991659554      1.33E-04
    5    -571.7997327977      1.02E-04
    6    -571.8000877774      7.68E-05
    7    -571.8003553235      5.10E-05
    8    -571.8004939535      3.01E-05
    9    -571.8005594854      1.04E-05
   10    -571.8005679334      2.45E-06
   11    -571.8005683931      4.86E-07
   12    -571.8005684110      7.20E-08
   13    -571.8005684113      1.39E-08
   14    -571.8005684114      4.32E-09 Convergence criterion met
 ---------------------------------------

************** Final PCM Free Energy Summary **************
 G_electrostatic  =      -0.31845826 hartree =    -199.83557483 kcal/mol
 G_cavitation     =       0.00000000 hartree =       0.00000000 kcal/mol
 G_dispersion     =       0.00000000 hartree =       0.00000000 kcal/mol
 G_repulsion      =       0.00000000 hartree =       0.00000000 kcal/mol
 --------------------------------------------------
 Non-electrostatic Free Energy =       0.00000000 hartree =       0.00000000 kcal/mol
 Total                         =      -0.31845826 hartree =    -199.83557483 kcal/mol
 --------------------------------------------------
 SCF Energy (H0 + V/2)                       =    -571.80056841 
 Solute Internal Energy (H0)                 =    -571.48211015 
 Total Free Energy (H0 + V/2 + non-elec)     =    -571.80056841 hartree
                                             = -358810.27220131 kcal/mol
***********************************************************

 SCF time:  CPU 3181.06 s  wall 430.97 s
 SCF   energy in the final basis set = -571.80056841
 Total energy in the final basis set = -571.80056841
 
 --------------------------------------------------------------
 
                    Orbital Energies (a.u.)
 --------------------------------------------------------------
 
 Alpha MOs
 -- Occupied --
-19.226 -19.163 -19.135 -19.135 -19.096 -10.387 -10.334 -10.266
-10.250 -10.228  -1.204  -1.137  -1.107  -1.042  -1.024  -0.861
 -0.836  -0.700  -0.686  -0.599  -0.585  -0.572  -0.565  -0.539
 -0.527  -0.505  -0.498  -0.491  -0.480  -0.470  -0.444  -0.433
 -0.427  -0.397  -0.360  -0.343  -0.336  -0.324  -0.286  -0.283
 -- Virtual --
  0.058   0.074   0.081   0.084   0.101   0.104   0.107   0.117
  0.124   0.127   0.136   0.141   0.146   0.150   0.155   0.158
  0.168   0.179   0.181   0.184   0.189   0.194   0.210   0.217
  0.228   0.236   0.241   0.247   0.253   0.259   0.261   0.271
  0.276   0.286   0.293   0.304   0.309   0.320   0.325   0.328
  0.335   0.340   0.344   0.347   0.350   0.357   0.364   0.366
  0.374   0.378   0.380   0.387   0.398   0.401   0.404   0.406
  0.414   0.416   0.420   0.424   0.431   0.432   0.437   0.439
  0.452   0.457   0.462   0.469   0.478   0.482   0.486   0.492
  0.501   0.507   0.510   0.513   0.516   0.523   0.529   0.534
  0.538   0.544   0.551   0.555   0.562   0.567   0.580   0.586
  0.595   0.600   0.605   0.611   0.617   0.630   0.641   0.647
  0.659   0.661   0.666   0.673   0.680   0.691   0.693   0.698
  0.704   0.715   0.718   0.728   0.736   0.748   0.752   0.755
  0.762   0.772   0.778   0.786   0.788   0.801   0.802   0.810
  0.818   0.825   0.830   0.834   0.844   0.848   0.855   0.859
  0.862   0.869   0.882   0.882   0.890   0.904   0.911   0.913
  0.919   0.937   0.946   0.956   0.969   0.991   0.997   1.010
  1.023   1.034   1.039   1.046   1.069   1.079   1.089   1.096
  1.116   1.129   1.140   1.156   1.170   1.186   1.201   1.212
  1.228   1.237   1.248   1.267   1.286   1.298   1.302   1.308
  1.325   1.343   1.355   1.366   1.371   1.402   1.410   1.423
  1.436   1.457   1.475   1.485   1.498   1.513   1.552   1.557
  1.582   1.588   1.634   1.645   1.649   1.670   1.760   1.830
  1.860   1.865   1.894   1.902   1.904   1.924   1.933   1.944
  1.950   1.962   1.981   1.988   2.011   2.018   2.021   2.042
  2.042   2.051   2.064   2.084   2.092   2.113   2.145   2.158
  2.168   2.196   2.200   2.214   2.229   2.234   2.253   2.260
  2.278   2.334   2.344   2.363   2.378   2.403   2.414   2.426
  2.448   2.468   2.481   2.487   2.505   2.515   2.543   2.562
  2.565   2.595   2.617   2.638   2.646   2.660   2.665   2.675
  2.718   2.735   2.758   2.789   2.801   2.843   2.855   2.864
  2.898   2.910   2.930   2.939   2.958   2.967   2.982   2.999
  3.025   3.080   3.087   3.096   3.106   3.121   3.141   3.186
  3.222   3.245   3.267   3.279   3.292   3.306   3.318   3.353
  3.358   3.372   3.377   3.400   3.408   3.426   3.433   3.440
  3.472   3.474   3.481   3.512   3.523   3.531   3.557   3.583
  3.586   3.597   3.606   3.633   3.641   3.654   3.679   3.702
  3.707   3.709   3.730   3.750   3.760   3.766   3.777   3.815
  3.835   3.852   3.868   3.907   3.943   3.958   4.003   4.062
  4.068   4.082   4.098   4.115   4.167   4.186   4.240   4.251
  4.284   4.337   4.364   4.488   4.574   4.616   4.647   4.693
  4.729   4.753   4.809   4.814   4.822   4.861   4.916   4.944
  5.057   5.119   5.182   5.323   5.327   5.355   5.359   5.363
  5.378   5.384   5.468   5.499   5.515   5.532   5.584   5.636
  5.670   5.687   5.711   5.723   5.730   5.780   5.889   5.984
  6.047   6.118   6.138   6.157   6.251   6.299   6.311   6.329
  6.439   6.470   6.564   6.608   6.633   6.657   6.703   6.734
  6.756   6.759   6.766   6.784   6.802   6.887   6.942   6.946
  6.976   7.003   7.048   7.110   7.131   7.164   7.236   7.256
  7.310   7.358   7.363   7.372   7.414   7.489   7.547  22.702
 22.842  22.935  23.460  23.691  44.343  44.376  44.400  44.415
 44.503
 --------------------------------------------------------------
 
          Ground-State Mulliken Net Atomic Charges

     Atom                 Charge (a.u.)
  ----------------------------------------
      1 O                    -0.779341
      2 C                    -0.376032
      3 H                     0.205261
      4 H                     0.090502
      5 H                     0.067088
      6 C                     0.168169
      7 O                    -0.704571
      8 O                    -0.705375
      9 O                    -0.628141
     10 H                     0.173669
     11 C                    -0.786716
     12 H                     0.256269
     13 H                     0.205310
     14 C                     0.628656
     15 H                     0.146625
     16 O                    -0.432229
     17 H                     0.371740
     18 C                     0.099116
  ----------------------------------------
  Sum of atomic charges =    -2.000000

 -----------------------------------------------------------------
                    Cartesian Multipole Moments
 -----------------------------------------------------------------
    Charge (ESU x 10^10)
                -9.6064
    Dipole Moment (Debye)
         X      14.2272      Y      -2.5511      Z       8.1999
       Tot      16.6181
    Quadrupole Moments (Debye-Ang)
        XX    -132.0813     XY      -7.2304     YY     -75.0778
        XZ     -27.0964     YZ      -4.9362     ZZ     -94.1316
    Octopole Moments (Debye-Ang^2)
       XXX     345.4106    XXY      13.6919    XYY      25.7245
       YYY     -22.7714    XXZ     111.3903    XYZ       0.0677
       YYZ      -6.0333    XZZ      93.4937    YZZ     -12.8136
       ZZZ      87.8155
    Hexadecapole Moments (Debye-Ang^3)
      XXXX   -2653.6824   XXXY    -189.4515   XXYY    -355.1196
      XYYY    -129.4152   YYYY    -302.2201   XXXZ    -741.2599
      XXYZ     -33.1299   XYYZ    -156.9090   YYYZ     -90.5921
      XXZZ    -684.8312   XYZZ     -49.6298   YYZZ    -229.4904
      XZZZ    -647.3205   YZZZ     -92.9790   ZZZZ   -1112.5658
 -----------------------------------------------------------------
 Calculating analytic gradient of the SCF energy
 Gradient of SCF Energy
            1           2           3           4           5           6
    1   0.0025656  -0.0762514   0.0041881   0.0285145  -0.0208160  -0.0583896
    2   0.0075846   0.0940397  -0.0345858  -0.0334403   0.0537054   0.0650395
    3  -0.0245541  -0.0022453   0.0354481  -0.0651093  -0.0552561   0.0193544
            7           8           9          10          11          12
    1   0.0446909   0.0291142   0.0371150  -0.0071877   0.0926583  -0.0331217
    2   0.0009090  -0.0168530  -0.0480250   0.0658010  -0.0056415   0.0049469
    3  -0.0436766   0.0527870  -0.0165807   0.0392489  -0.0337478  -0.0563801
           13          14          15          16          17          18
    1  -0.0293680  -0.0955198  -0.0376866  -0.0240322   0.0632590   0.0802674
    2  -0.0587887   0.0213724   0.0181708   0.0276537  -0.0095116  -0.1523770
    3   0.0416972   0.0409570   0.0491201   0.0214706  -0.0115816   0.0090481
 Max gradient component =       1.524E-01
 RMS gradient           =       4.857E-02
 Computing fast CPCM-ISWIG gradient
 Updating gradient with PCM contributions...
 -- total gradient after adding PCM contribution --
---------------------------------------------------
  Atom         X              Y              Z     
---------------------------------------------------
   1      -0.000742       0.000143      -0.000058
   2       0.000442      -0.000026       0.000070
   3      -0.000011       0.000026       0.000105
   4       0.000058      -0.000049       0.000035
   5       0.000021      -0.000010      -0.000048
   6      -0.000038       0.000026       0.000037
   7       0.000011      -0.000065       0.000044
   8      -0.000041       0.000037       0.000067
   9      -0.000011      -0.000043       0.000066
  10       0.000029       0.000039      -0.000090
  11       0.000033       0.000006      -0.000018
  12       0.000048      -0.000023      -0.000057
  13      -0.000011       0.000042      -0.000017
  14       0.000058      -0.000044      -0.000057
  15      -0.000024       0.000074      -0.000033
  16       0.000042      -0.000073      -0.000043
  17       0.000052      -0.000100      -0.000010
  18       0.000086       0.000041       0.000006
---------------------------------------------------
 Number of fixed atoms: 0
 Gradient time:  CPU 795.26 s  wall 107.19 s
 ----------------------------------------------------------------
             Standard Nuclear Orientation (Angstroms)
    I     Atom           X                Y                Z
 ----------------------------------------------------------------
    1      O       0.8353580276     0.3156786961    -0.6992694387
    2      C      -0.5118414529     0.5197382275    -0.8709788997
    3      H      -0.7304818016     1.2739841916    -1.6596454728
    4      H      -0.9839208174     0.9299279003     0.0519898287
    5      H      -1.1635113206    -1.4957097235    -0.4517571401
    6      C      -2.7826918211    -0.4601423967    -1.4455386350
    7      O      -3.5282603635    -0.5045837890    -0.4269663587
    8      O      -3.1692120338    -0.1458519304    -2.6061762507
    9      O       0.8104666924     1.5647822761     1.7229141487
   10      H       2.8351359587    -0.7648052643     0.6259967831
   11      C       2.7048372194     0.1713247350     1.1674221324
   12      H       3.2091179812     0.0977139971     2.1380674999
   13      H       3.1443491157     0.9915741616     0.6015998431
   14      C       1.2506533697     0.4593413012     1.4167176042
   15      H      -0.8747074528    -1.1605627346    -2.1781617356
   16      O       0.5672999336    -0.6625497499     1.7965054926
   17      H      -0.3155274507    -0.3703312104     2.0678093627
   18      C      -1.2970637830    -0.7585286931    -1.2505287618
 ----------------------------------------------------------------
 Nuclear Repulsion Energy =   530.8731606579 hartrees
 There are       40 alpha and       40 beta electrons
 Discretize the solute cavity surface with Lebedev spheres
	Using 110 Lebedev grid points for each H atom
	Using 110 Lebedev grid points for other atoms
	Atomic van der Waals radii will be scaled by 1.20
 Remove points where switching function is < 1.0e-08
 Keep 1111 surface tesserae and discard 869 interior tesserae
 Molecular Surface Area = 195.350 Angst**2
 Requested basis set is def2-TZVPD
 There are 175 shells and 457 basis functions
 A cutoff of  1.0D-14 yielded  13861 shell pairs
 There are     94653 function pairs (    120338 Cartesian)
 Smallest overlap matrix eigenvalue = 5.76E-06
 Guess MOs from SCF MO coefficient file
 Reading MOs from coefficient file
 Reading MOs from coefficient file
 Long-range K will be added via erf
 Coulomb attenuation parameter = 0.3 bohr**(-1)
 A restricted hybrid HF-DFT SCF calculation will be
 performed using Pulay DIIS extrapolation
 Polarizable Continuum solvation model will be applied
 Exchange:     0.1670 Hartree-Fock + 1.0000 wB97X-V + LR-HF
 Correlation:  1.0000 wB97X-V
 Using SG-2 standard quadrature grid
 Nonlocal Correlation:  VV10 with C = 0.0100 and b = 6.00
 Grid used for NLC:  SG-1 standard quadrature
 SCF converges when DIIS error is below 1.0E-08
Using Q-Chem read-in guess as SCF_GUESS READ specified.

 using 8 threads for integral computing
 -------------------------------------------------------
 OpenMP Integral computing Module                
 Release: version 1.0, May 2013, Q-Chem Inc. Pittsburgh 
 -------------------------------------------------------
 using 8 threads for integral computing
 -------------------------------------------------------
 OpenMP Integral computing Module                
 Release: version 1.0, May 2013, Q-Chem Inc. Pittsburgh 
 -------------------------------------------------------
 -------------------------------------------------------
 OpenMP BLAS3 based DFT computing Module                
 Release: version 1.0, May 2013, Q-Chem Inc. Pittsburgh 
 -------------------------------------------------------
 -------------------------------------------------------
 OpenMP BLAS3 based DFT computing Module                
 Release: version 1.0, May 2013, Q-Chem Inc. Pittsburgh 
 -------------------------------------------------------
 -------------------------------------------------------
 OpenMP BLAS3 based DFT computing Module                
 Release: version 1.0, May 2013, Q-Chem Inc. Pittsburgh 
 -------------------------------------------------------
 ---------------------------------------
  Cycle       Energy         DIIS Error
 ---------------------------------------
    1    -571.4816490238      3.65E-04
    2    -571.7925012339      3.96E-04
    3    -571.7982416012      1.82E-04
    4    -571.7991645851      1.33E-04
    5    -571.7997278621      1.02E-04
    6    -571.8000642372      7.87E-05
    7    -571.8002901042      5.84E-05
    8    -571.8004217547      4.24E-05
    9    -571.8005258815      2.30E-05
   10    -571.8005623639      9.00E-06
   11    -571.8005682698      2.82E-06
   12    -571.8005688575      7.80E-07
   13    -571.8005689038      1.46E-07
   14    -571.8005689054      2.21E-08
   15    -571.8005689054      1.04E-08
   16    -571.8005689054      1.84E-09 Convergence criterion met
 ---------------------------------------

************** Final PCM Free Energy Summary **************
 G_electrostatic  =      -0.31844127 hartree =    -199.82491049 kcal/mol
 G_cavitation     =       0.00000000 hartree =       0.00000000 kcal/mol
 G_dispersion     =       0.00000000 hartree =       0.00000000 kcal/mol
 G_repulsion      =       0.00000000 hartree =       0.00000000 kcal/mol
 --------------------------------------------------
 Non-electrostatic Free Energy =       0.00000000 hartree =       0.00000000 kcal/mol
 Total                         =      -0.31844127 hartree =    -199.82491049 kcal/mol
 --------------------------------------------------
 SCF Energy (H0 + V/2)                       =    -571.80056891 
 Solute Internal Energy (H0)                 =    -571.48212764 
 Total Free Energy (H0 + V/2 + non-elec)     =    -571.80056891 hartree
                                             = -358810.27251135 kcal/mol
***********************************************************

 SCF time:  CPU 3635.05 s  wall 494.85 s
 SCF   energy in the final basis set = -571.80056891
 Total energy in the final basis set = -571.80056891
 
 --------------------------------------------------------------
 
                    Orbital Energies (a.u.)
 --------------------------------------------------------------
 
 Alpha MOs
 -- Occupied --
-19.226 -19.163 -19.135 -19.135 -19.096 -10.387 -10.334 -10.266
-10.250 -10.228  -1.204  -1.137  -1.106  -1.042  -1.024  -0.861
 -0.836  -0.700  -0.686  -0.599  -0.585  -0.572  -0.565  -0.539
 -0.527  -0.505  -0.498  -0.491  -0.480  -0.470  -0.444  -0.433
 -0.427  -0.397  -0.360  -0.344  -0.336  -0.324  -0.286  -0.283
 -- Virtual --
  0.058   0.074   0.081   0.084   0.101   0.104   0.107   0.117
  0.124   0.127   0.136   0.141   0.146   0.150   0.155   0.158
  0.168   0.179   0.181   0.184   0.189   0.194   0.210   0.217
  0.228   0.236   0.241   0.247   0.253   0.259   0.261   0.271
  0.276   0.286   0.293   0.304   0.309   0.320   0.325   0.328
  0.335   0.340   0.344   0.347   0.350   0.357   0.364   0.366
  0.374   0.378   0.380   0.387   0.398   0.401   0.404   0.406
  0.414   0.416   0.420   0.424   0.431   0.432   0.437   0.439
  0.452   0.457   0.462   0.469   0.478   0.482   0.486   0.492
  0.501   0.507   0.510   0.513   0.516   0.523   0.529   0.534
  0.538   0.544   0.551   0.555   0.562   0.567   0.580   0.585
  0.595   0.600   0.605   0.611   0.617   0.630   0.641   0.647
  0.659   0.661   0.666   0.673   0.680   0.691   0.693   0.698
  0.704   0.715   0.718   0.728   0.736   0.748   0.752   0.755
  0.762   0.772   0.778   0.786   0.788   0.801   0.802   0.810
  0.818   0.825   0.830   0.834   0.844   0.848   0.855   0.859
  0.862   0.869   0.882   0.882   0.890   0.904   0.910   0.913
  0.919   0.937   0.946   0.956   0.969   0.991   0.997   1.010
  1.023   1.034   1.039   1.046   1.069   1.079   1.089   1.096
  1.116   1.129   1.140   1.156   1.170   1.186   1.201   1.212
  1.228   1.237   1.248   1.267   1.286   1.298   1.302   1.308
  1.325   1.343   1.355   1.366   1.371   1.402   1.410   1.423
  1.436   1.457   1.475   1.485   1.498   1.513   1.552   1.557
  1.582   1.588   1.634   1.645   1.648   1.670   1.760   1.830
  1.860   1.865   1.893   1.902   1.904   1.924   1.933   1.944
  1.951   1.962   1.981   1.988   2.011   2.018   2.021   2.042
  2.042   2.051   2.064   2.084   2.092   2.113   2.145   2.158
  2.168   2.196   2.200   2.214   2.229   2.234   2.253   2.260
  2.278   2.334   2.344   2.363   2.378   2.403   2.414   2.426
  2.448   2.468   2.481   2.487   2.505   2.515   2.543   2.562
  2.564   2.595   2.617   2.638   2.646   2.660   2.665   2.675
  2.718   2.735   2.758   2.789   2.801   2.843   2.855   2.864
  2.898   2.910   2.930   2.939   2.958   2.967   2.981   2.999
  3.025   3.080   3.087   3.096   3.106   3.121   3.141   3.186
  3.222   3.245   3.267   3.279   3.292   3.305   3.319   3.353
  3.358   3.371   3.377   3.400   3.408   3.426   3.433   3.440
  3.472   3.474   3.481   3.512   3.523   3.531   3.557   3.583
  3.586   3.597   3.606   3.633   3.641   3.654   3.679   3.701
  3.707   3.709   3.730   3.750   3.760   3.766   3.776   3.815
  3.835   3.853   3.868   3.906   3.943   3.958   4.003   4.062
  4.068   4.082   4.098   4.115   4.167   4.186   4.240   4.251
  4.283   4.337   4.364   4.488   4.574   4.616   4.647   4.693
  4.729   4.753   4.809   4.814   4.822   4.861   4.916   4.944
  5.057   5.119   5.182   5.323   5.327   5.355   5.359   5.363
  5.378   5.384   5.468   5.499   5.515   5.532   5.584   5.635
  5.670   5.686   5.711   5.723   5.730   5.780   5.889   5.984
  6.047   6.117   6.138   6.155   6.251   6.299   6.311   6.329
  6.438   6.470   6.564   6.608   6.632   6.657   6.703   6.734
  6.756   6.759   6.766   6.784   6.802   6.887   6.942   6.946
  6.976   7.003   7.048   7.110   7.130   7.164   7.236   7.256
  7.310   7.358   7.363   7.372   7.414   7.489   7.548  22.702
 22.842  22.933  23.460  23.691  44.343  44.376  44.400  44.415
 44.503
 --------------------------------------------------------------
 
          Ground-State Mulliken Net Atomic Charges

     Atom                 Charge (a.u.)
  ----------------------------------------
      1 O                    -0.779419
      2 C                    -0.376396
      3 H                     0.205447
      4 H                     0.090611
      5 H                     0.067073
      6 C                     0.168469
      7 O                    -0.704549
      8 O                    -0.705350
      9 O                    -0.628224
     10 H                     0.173595
     11 C                    -0.786804
     12 H                     0.256314
     13 H                     0.205252
     14 C                     0.628839
     15 H                     0.146550
     16 O                    -0.432285
     17 H                     0.371747
     18 C                     0.099131
  ----------------------------------------
  Sum of atomic charges =    -2.000000

 -----------------------------------------------------------------
                    Cartesian Multipole Moments
 -----------------------------------------------------------------
    Charge (ESU x 10^10)
                -9.6064
    Dipole Moment (Debye)
         X      14.2177      Y      -2.5553      Z       8.1975
       Tot      16.6094
    Quadrupole Moments (Debye-Ang)
        XX    -132.0825     XY      -7.2366     YY     -75.0799
        XZ     -27.0908     YZ      -4.9346     ZZ     -94.1324
    Octopole Moments (Debye-Ang^2)
       XXX     345.3231    XXY      13.6783    XYY      25.7030
       YYY     -22.7978    XXZ     111.3750    XYZ       0.0710
       YYZ      -6.0383    XZZ      93.4610    YZZ     -12.8263
       ZZZ      87.7951
    Hexadecapole Moments (Debye-Ang^3)
      XXXX   -2653.6704   XXXY    -189.4792   XXYY    -355.1317
      XYYY    -129.4516   YYYY    -302.2442   XXXZ    -741.2133
      XXYZ     -33.1208   XYYZ    -156.8952   YYYZ     -90.5827
      XXZZ    -684.8334   XYZZ     -49.6486   YYZZ    -229.4950
      XZZZ    -647.2800   YZZZ     -92.9752   ZZZZ   -1112.5589
 -----------------------------------------------------------------
 Calculating analytic gradient of the SCF energy
 Gradient of SCF Energy
            1           2           3           4           5           6
    1   0.0029793  -0.0765869   0.0041495   0.0284848  -0.0208197  -0.0584018
    2   0.0075720   0.0941720  -0.0346122  -0.0334674   0.0537173   0.0650210
    3  -0.0245347  -0.0021559   0.0353814  -0.0650762  -0.0552421   0.0193358
            7           8           9          10          11          12
    1   0.0446754   0.0291015   0.0371259  -0.0072003   0.0926523  -0.0331322
    2   0.0009150  -0.0168432  -0.0480447   0.0658051  -0.0056370   0.0049496
    3  -0.0436702   0.0527770  -0.0165932   0.0392537  -0.0337669  -0.0563912
           13          14          15          16          17          18
    1  -0.0293580  -0.0955092  -0.0376850  -0.0240355   0.0632490   0.0803110
    2  -0.0587969   0.0213959   0.0181826   0.0276551  -0.0095184  -0.1524660
    3   0.0417101   0.0409869   0.0491420   0.0214734  -0.0115860   0.0089561
 Max gradient component =       1.525E-01
 RMS gradient           =       4.859E-02
 Computing fast CPCM-ISWIG gradient
 Updating gradient with PCM contributions...
 -- total gradient after adding PCM contribution --
---------------------------------------------------
  Atom         X              Y              Z     
---------------------------------------------------
   1      -0.000115       0.000191      -0.000006
   2       0.000035      -0.000120       0.000040
   3      -0.000013       0.000060       0.000077
   4       0.000013      -0.000023       0.000059
   5       0.000028       0.000001      -0.000044
   6      -0.000014      -0.000011       0.000034
   7      -0.000004      -0.000058       0.000052
   8      -0.000055       0.000048       0.000056
   9      -0.000002      -0.000058       0.000030
  10       0.000029       0.000038      -0.000091
  11       0.000021       0.000009      -0.000045
  12       0.000042      -0.000022      -0.000060
  13      -0.000009       0.000044      -0.000019
  14       0.000023      -0.000066      -0.000001
  15      -0.000017       0.000083      -0.000032
  16       0.000051      -0.000064      -0.000022
  17       0.000052      -0.000101      -0.000010
  18      -0.000065       0.000050      -0.000017
---------------------------------------------------
 Number of fixed atoms: 0
 Gradient time:  CPU 800.88 s  wall 108.28 s
 ----------------------------------------------------------------
             Standard Nuclear Orientation (Angstroms)
    I     Atom           X                Y                Z
 ----------------------------------------------------------------
    1      O       0.8353580276     0.3136786961    -0.6992694387
    2      C      -0.5118414529     0.5197382275    -0.8709788997
    3      H      -0.7304818016     1.2739841916    -1.6596454728
    4      H      -0.9839208174     0.9299279003     0.0519898287
    5      H      -1.1635113206    -1.4957097235    -0.4517571401
    6      C      -2.7826918211    -0.4601423967    -1.4455386350
    7      O      -3.5282603635    -0.5045837890    -0.4269663587
    8      O      -3.1692120338    -0.1458519304    -2.6061762507
    9      O       0.8104666924     1.5647822761     1.7229141487
   10      H       2.8351359587    -0.7648052643     0.6259967831
   11      C       2.7048372194     0.1713247350     1.1674221324
   12      H       3.2091179812     0.0977139971     2.1380674999
   13      H       3.1443491157     0.9915741616     0.6015998431
   14      C       1.2506533697     0.4593413012     1.4167176042
   15      H      -0.8747074528    -1.1605627346    -2.1781617356
   16      O       0.5672999336    -0.6625497499     1.7965054926
   17      H      -0.3155274507    -0.3703312104     2.0678093627
   18      C      -1.2970637830    -0.7585286931    -1.2505287618
 ----------------------------------------------------------------
 Nuclear Repulsion Energy =   530.8737903253 hartrees
 There are       40 alpha and       40 beta electrons
 Discretize the solute cavity surface with Lebedev spheres
	Using 110 Lebedev grid points for each H atom
	Using 110 Lebedev grid points for other atoms
	Atomic van der Waals radii will be scaled by 1.20
 Remove points where switching function is < 1.0e-08
 Keep 1112 surface tesserae and discard 868 interior tesserae
 Molecular Surface Area = 195.349 Angst**2
 Requested basis set is def2-TZVPD
 There are 175 shells and 457 basis functions
 A cutoff of  1.0D-14 yielded  13861 shell pairs
 There are     94653 function pairs (    120338 Cartesian)
 Smallest overlap matrix eigenvalue = 5.76E-06
 Guess MOs from SCF MO coefficient file
 Reading MOs from coefficient file
 Reading MOs from coefficient file
 Long-range K will be added via erf
 Coulomb attenuation parameter = 0.3 bohr**(-1)
 A restricted hybrid HF-DFT SCF calculation will be
 performed using Pulay DIIS extrapolation
 Polarizable Continuum solvation model will be applied
 Exchange:     0.1670 Hartree-Fock + 1.0000 wB97X-V + LR-HF
 Correlation:  1.0000 wB97X-V
 Using SG-2 standard quadrature grid
 Nonlocal Correlation:  VV10 with C = 0.0100 and b = 6.00
 Grid used for NLC:  SG-1 standard quadrature
 SCF converges when DIIS error is below 1.0E-08
Using Q-Chem read-in guess as SCF_GUESS READ specified.

 using 8 threads for integral computing
 -------------------------------------------------------
 OpenMP Integral computing Module                
 Release: version 1.0, May 2013, Q-Chem Inc. Pittsburgh 
 -------------------------------------------------------
 using 8 threads for integral computing
 -------------------------------------------------------
 OpenMP Integral computing Module                
 Release: version 1.0, May 2013, Q-Chem Inc. Pittsburgh 
 -------------------------------------------------------
 -------------------------------------------------------
 OpenMP BLAS3 based DFT computing Module                
 Release: version 1.0, May 2013, Q-Chem Inc. Pittsburgh 
 -------------------------------------------------------
 -------------------------------------------------------
 OpenMP BLAS3 based DFT computing Module                
 Release: version 1.0, May 2013, Q-Chem Inc. Pittsburgh 
 -------------------------------------------------------
 -------------------------------------------------------
 OpenMP BLAS3 based DFT computing Module                
 Release: version 1.0, May 2013, Q-Chem Inc. Pittsburgh 
 -------------------------------------------------------
 ---------------------------------------
  Cycle       Energy         DIIS Error
 ---------------------------------------
    1    -571.4819562912      3.65E-04
    2    -571.7925065681      3.96E-04
    3    -571.7982421079      1.82E-04
    4    -571.7991647829      1.33E-04
    5    -571.7997271377      1.02E-04
    6    -571.8000617129      7.89E-05
    7    -571.8002901536      5.85E-05
    8    -571.8004241456      4.21E-05
    9    -571.8005284562      2.23E-05
   10    -571.8005633488      8.44E-06
   11    -571.8005685610      2.59E-06
   12    -571.8005690579      7.02E-07
   13    -571.8005690947      1.57E-07
   14    -571.8005690965      2.81E-08
   15    -571.8005690966      1.13E-08
   16    -571.8005690966      2.35E-09 Convergence criterion met
 ---------------------------------------

************** Final PCM Free Energy Summary **************
 G_electrostatic  =      -0.31843665 hartree =    -199.82201514 kcal/mol
 G_cavitation     =       0.00000000 hartree =       0.00000000 kcal/mol
 G_dispersion     =       0.00000000 hartree =       0.00000000 kcal/mol
 G_repulsion      =       0.00000000 hartree =       0.00000000 kcal/mol
 --------------------------------------------------
 Non-electrostatic Free Energy =       0.00000000 hartree =       0.00000000 kcal/mol
 Total                         =      -0.31843665 hartree =    -199.82201514 kcal/mol
 --------------------------------------------------
 SCF Energy (H0 + V/2)                       =    -571.80056910 
 Solute Internal Energy (H0)                 =    -571.48213244 
 Total Free Energy (H0 + V/2 + non-elec)     =    -571.80056910 hartree
                                             = -358810.27263129 kcal/mol
***********************************************************

 SCF time:  CPU 3630.34 s  wall 490.42 s
 SCF   energy in the final basis set = -571.80056910
 Total energy in the final basis set = -571.80056910
 
 --------------------------------------------------------------
 
                    Orbital Energies (a.u.)
 --------------------------------------------------------------
 
 Alpha MOs
 -- Occupied --
-19.226 -19.163 -19.135 -19.135 -19.096 -10.387 -10.334 -10.266
-10.250 -10.228  -1.204  -1.137  -1.106  -1.042  -1.023  -0.861
 -0.836  -0.700  -0.686  -0.599  -0.585  -0.572  -0.565  -0.539
 -0.527  -0.505  -0.498  -0.491  -0.480  -0.470  -0.444  -0.433
 -0.427  -0.397  -0.360  -0.343  -0.336  -0.324  -0.286  -0.283
 -- Virtual --
  0.058   0.074   0.081   0.084   0.101   0.104   0.107   0.117
  0.124   0.127   0.136   0.141   0.146   0.150   0.155   0.158
  0.168   0.179   0.181   0.184   0.189   0.194   0.210   0.217
  0.228   0.236   0.241   0.247   0.253   0.259   0.261   0.271
  0.276   0.286   0.293   0.304   0.309   0.320   0.325   0.328
  0.335   0.340   0.344   0.347   0.350   0.357   0.364   0.366
  0.374   0.378   0.380   0.387   0.398   0.401   0.404   0.406
  0.414   0.416   0.420   0.424   0.431   0.432   0.437   0.439
  0.452   0.457   0.462   0.469   0.478   0.482   0.486   0.492
  0.501   0.507   0.510   0.513   0.516   0.523   0.529   0.534
  0.538   0.544   0.551   0.555   0.562   0.567   0.580   0.586
  0.595   0.600   0.605   0.611   0.617   0.630   0.641   0.647
  0.659   0.661   0.666   0.673   0.680   0.691   0.693   0.698
  0.704   0.715   0.718   0.728   0.736   0.748   0.752   0.755
  0.762   0.772   0.778   0.786   0.788   0.801   0.802   0.810
  0.818   0.825   0.830   0.834   0.844   0.848   0.855   0.859
  0.862   0.869   0.882   0.882   0.890   0.904   0.910   0.913
  0.919   0.937   0.946   0.956   0.969   0.991   0.997   1.010
  1.023   1.034   1.039   1.046   1.069   1.079   1.089   1.096
  1.116   1.129   1.140   1.156   1.170   1.186   1.201   1.212
  1.228   1.237   1.248   1.267   1.286   1.298   1.302   1.308
  1.325   1.343   1.355   1.366   1.371   1.402   1.410   1.423
  1.436   1.457   1.475   1.485   1.498   1.513   1.552   1.557
  1.582   1.588   1.634   1.645   1.649   1.670   1.760   1.830
  1.860   1.865   1.893   1.902   1.904   1.924   1.933   1.944
  1.951   1.962   1.981   1.988   2.011   2.018   2.021   2.042
  2.042   2.051   2.064   2.084   2.092   2.113   2.145   2.158
  2.168   2.196   2.200   2.214   2.229   2.234   2.253   2.260
  2.278   2.334   2.344   2.363   2.379   2.403   2.414   2.426
  2.448   2.468   2.481   2.487   2.505   2.516   2.543   2.562
  2.565   2.595   2.617   2.638   2.646   2.660   2.665   2.675
  2.718   2.735   2.758   2.788   2.801   2.843   2.854   2.864
  2.898   2.910   2.930   2.938   2.958   2.967   2.981   2.999
  3.025   3.080   3.087   3.096   3.106   3.121   3.141   3.186
  3.222   3.245   3.267   3.279   3.292   3.305   3.319   3.353
  3.358   3.371   3.377   3.400   3.408   3.426   3.433   3.440
  3.472   3.474   3.481   3.512   3.523   3.531   3.557   3.583
  3.585   3.597   3.606   3.633   3.641   3.654   3.679   3.702
  3.707   3.709   3.730   3.750   3.760   3.766   3.776   3.815
  3.835   3.852   3.868   3.907   3.943   3.958   4.003   4.062
  4.068   4.082   4.098   4.115   4.167   4.186   4.240   4.251
  4.283   4.337   4.364   4.488   4.574   4.616   4.647   4.693
  4.729   4.753   4.809   4.814   4.821   4.861   4.915   4.944
  5.057   5.120   5.182   5.323   5.327   5.355   5.359   5.363
  5.378   5.384   5.468   5.499   5.515   5.532   5.584   5.635
  5.670   5.686   5.711   5.723   5.730   5.780   5.889   5.984
  6.047   6.116   6.137   6.154   6.250   6.299   6.311   6.329
  6.438   6.470   6.564   6.608   6.632   6.657   6.703   6.734
  6.756   6.759   6.766   6.784   6.802   6.887   6.942   6.946
  6.976   7.003   7.048   7.110   7.130   7.163   7.236   7.256
  7.310   7.358   7.363   7.372   7.414   7.489   7.548  22.702
 22.842  22.932  23.460  23.691  44.343  44.376  44.400  44.415
 44.503
 --------------------------------------------------------------
 
          Ground-State Mulliken Net Atomic Charges

     Atom                 Charge (a.u.)
  ----------------------------------------
      1 O                    -0.779453
      2 C                    -0.376166
      3 H                     0.205590
      4 H                     0.090754
      5 H                     0.067067
      6 C                     0.168113
      7 O                    -0.704573
      8 O                    -0.705378
      9 O                    -0.628210
     10 H                     0.173614
     11 C                    -0.786550
     12 H                     0.256261
     13 H                     0.205236
     14 C                     0.628547
     15 H                     0.146627
     16 O                    -0.432228
     17 H                     0.371742
     18 C                     0.099008
  ----------------------------------------
  Sum of atomic charges =    -2.000000

 -----------------------------------------------------------------
                    Cartesian Multipole Moments
 -----------------------------------------------------------------
    Charge (ESU x 10^10)
                -9.6064
    Dipole Moment (Debye)
         X      14.2172      Y      -2.5466      Z       8.1980
       Tot      16.6079
    Quadrupole Moments (Debye-Ang)
        XX    -132.0864     XY      -7.2319     YY     -75.0742
        XZ     -27.0914     YZ      -4.9401     ZZ     -94.1327
    Octopole Moments (Debye-Ang^2)
       XXX     345.3356    XXY      13.7006    XYY      25.7053
       YYY     -22.7484    XXZ     111.3804    XYZ       0.0679
       YYZ      -6.0410    XZZ      93.4629    YZZ     -12.8020
       ZZZ      87.7996
    Hexadecapole Moments (Debye-Ang^3)
      XXXX   -2653.7631   XXXY    -189.4543   XXYY    -355.1184
      XYYY    -129.4134   YYYY    -302.1820   XXXZ    -741.2431
      XXYZ     -33.1379   XYYZ    -156.8953   YYYZ     -90.6133
      XXZZ    -684.8530   XYZZ     -49.6339   YYZZ    -229.4767
      XZZZ    -647.2893   YZZZ     -93.0024   ZZZZ   -1112.5657
 -----------------------------------------------------------------
 Calculating analytic gradient of the SCF energy
 Gradient of SCF Energy
            1           2           3           4           5           6
    1   0.0031244  -0.0767937   0.0041785   0.0285014  -0.0208043  -0.0583768
    2   0.0074588   0.0941543  -0.0345887  -0.0334180   0.0536907   0.0650425
    3  -0.0245415  -0.0022170   0.0354435  -0.0651020  -0.0552649   0.0193394
            7           8           9          10          11          12
    1   0.0446803   0.0291048   0.0371244  -0.0071755   0.0926639  -0.0331371
    2   0.0009068  -0.0168517  -0.0480312   0.0658034  -0.0056375   0.0049485
    3  -0.0436686   0.0527770  -0.0165796   0.0392690  -0.0337721  -0.0563857
           13          14          15          16          17          18
    1  -0.0293784  -0.0955368  -0.0376713  -0.0240224   0.0632500   0.0802687
    2  -0.0587903   0.0213738   0.0181820   0.0276657  -0.0095086  -0.1524003
    3   0.0416997   0.0409872   0.0491372   0.0214672  -0.0115790   0.0089903
 Max gradient component =       1.524E-01
 RMS gradient           =       4.859E-02
 Computing fast CPCM-ISWIG gradient
 Updating gradient with PCM contributions...
 -- total gradient after adding PCM contribution --
---------------------------------------------------
  Atom         X              Y              Z     
---------------------------------------------------
   1       0.000069      -0.000090       0.000006
[...]
 C         -0.091 -0.029 -0.003   -0.013 -0.002 -0.095    0.021  0.001  0.103
 H          0.000  0.010  0.001    0.082  0.199  0.064    0.048  0.198  0.058
 O          0.050  0.079 -0.022    0.012  0.004  0.009   -0.012 -0.007 -0.010
 H         -0.032 -0.268  0.072    0.026  0.055 -0.001   -0.019 -0.026 -0.010
 C         -0.000  0.005  0.003    0.007  0.179  0.037    0.002  0.188  0.043
 TransDip  -0.209 -0.283  0.022   -0.331 -0.054 -0.268    0.026 -0.095  0.197

 Mode:                25                     26                     27
 Frequency:      1070.59                1140.12                1181.53
 Force Cnst:      1.0304                 4.7312                 1.6391
 Red. Mass:       1.5259                 6.1775                 1.9928
 IR Active:          YES                    YES                    YES
 IR Intens:       18.599                238.156                384.008
 Raman Active:       YES                    YES                    YES
               X      Y      Z        X      Y      Z        X      Y      Z
 O         -0.006 -0.005  0.030   -0.375  0.084 -0.045   -0.049  0.008 -0.017
 C          0.019  0.022 -0.098    0.459 -0.118  0.047    0.049 -0.016  0.013
 H         -0.143  0.229  0.155    0.369 -0.038  0.048    0.088 -0.003  0.007
 H          0.088 -0.269  0.078    0.358 -0.057  0.063    0.035  0.018  0.001
 H          0.597 -0.115 -0.031   -0.189 -0.078 -0.075    0.011  0.011  0.003
 C          0.001  0.005  0.005    0.000 -0.079 -0.013   -0.000 -0.007 -0.000
 O          0.047 -0.003 -0.036   -0.009  0.010  0.020    0.000  0.001  0.001
 O         -0.033  0.014 -0.043   -0.002  0.017 -0.016   -0.001  0.002 -0.003
 O          0.001 -0.002 -0.001    0.024 -0.033  0.009   -0.039  0.071  0.019
 H         -0.011  0.002 -0.002   -0.182  0.053 -0.046    0.125  0.033 -0.121
 C          0.000  0.001  0.003    0.048  0.031  0.064   -0.056 -0.086  0.021
 H          0.011 -0.003 -0.003    0.252 -0.117 -0.065   -0.038  0.197  0.027
 H         -0.005 -0.002 -0.006    0.035 -0.089 -0.128   -0.412  0.165  0.104
 C         -0.000 -0.001 -0.001   -0.086 -0.018 -0.067    0.144  0.097 -0.045
 H         -0.588  0.149 -0.182   -0.151 -0.076 -0.010   -0.051 -0.032 -0.010
 O          0.001  0.001  0.000    0.007  0.050  0.007   -0.014 -0.148  0.019
 H          0.000  0.003 -0.004   -0.078 -0.280  0.069    0.205  0.746 -0.172
 C         -0.028 -0.033  0.156    0.016  0.070  0.015    0.003  0.005 -0.001
 TransDip  -0.024 -0.017  0.135    0.467 -0.131  0.094    0.429  0.399 -0.225

 Mode:                28                     29                     30
 Frequency:      1207.24                1261.28                1302.40
 Force Cnst:      1.1237                 1.3790                 1.0862
 Red. Mass:       1.3087                 1.4712                 1.0868
 IR Active:          YES                    YES                    YES
 IR Intens:       36.102                  7.832                  3.269
 Raman Active:       YES                    YES                    YES
               X      Y      Z        X      Y      Z        X      Y      Z
 O          0.007  0.009 -0.046   -0.014  0.022  0.004   -0.007 -0.003  0.028
 C         -0.022 -0.026  0.142    0.022 -0.039 -0.007   -0.013 -0.016  0.016
 H          0.416 -0.177 -0.115    0.183  0.048  0.031   -0.521 -0.244 -0.093
 H         -0.351  0.215 -0.130    0.233  0.042  0.064    0.602  0.309  0.164
 H          0.431  0.292  0.161    0.548  0.302  0.184    0.136  0.196  0.086
 C         -0.001  0.000  0.015   -0.016  0.064  0.007   -0.004 -0.003  0.007
 O          0.015 -0.001 -0.015    0.018 -0.009 -0.029    0.003  0.000 -0.004
 O         -0.010  0.006 -0.018    0.010 -0.019  0.030   -0.001  0.002 -0.004
 O          0.001 -0.003 -0.000    0.000 -0.002  0.000   -0.001 -0.007  0.000
 H         -0.003 -0.002  0.005   -0.003  0.001 -0.003   -0.023 -0.001 -0.007
 C          0.002  0.003 -0.002   -0.000 -0.001  0.001   -0.000 -0.004 -0.000
 H         -0.002 -0.008 -0.000   -0.002  0.004  0.002   -0.027  0.022  0.014
 H          0.019 -0.005 -0.001   -0.004  0.002  0.002   -0.034  0.019  0.007
 C         -0.006 -0.003  0.002    0.004  0.003 -0.002    0.023  0.013 -0.004
 H         -0.426 -0.279 -0.103    0.564  0.322  0.118   -0.192 -0.233 -0.048
 O          0.001  0.007 -0.000   -0.001  0.002  0.001   -0.008  0.003  0.002
 H         -0.013 -0.045  0.009   -0.008 -0.021  0.002   -0.027 -0.080  0.018
 C          0.002  0.004 -0.036   -0.153 -0.079 -0.041    0.020  0.017 -0.060
 TransDip  -0.031 -0.054  0.182    0.069  0.056  0.014   -0.011 -0.000  0.057

 Mode:                31                     32                     33
 Frequency:      1321.89                1383.09                1404.73
 Force Cnst:      1.8518                 1.4762                 1.7198
 Red. Mass:       1.7987                 1.3097                 1.4792
 IR Active:          YES                    YES                    YES
 IR Intens:       77.355                166.827                 98.083
 Raman Active:       YES                    YES                    YES
               X      Y      Z        X      Y      Z        X      Y      Z
 O          0.001  0.002  0.000   -0.011  0.022 -0.002    0.002  0.001 -0.001
 C          0.002 -0.008  0.006   -0.107 -0.072 -0.036    0.001 -0.001  0.001
 H         -0.095 -0.025  0.011    0.590  0.388  0.237   -0.007  0.008  0.011
 H          0.111  0.084  0.020    0.475  0.334  0.075   -0.001  0.013 -0.006
 H          0.045  0.039  0.016   -0.084 -0.166 -0.110    0.011 -0.009 -0.009
 C         -0.006  0.002  0.001   -0.052  0.009 -0.008   -0.009  0.002 -0.001
 O          0.003 -0.000 -0.004    0.016  0.001 -0.017    0.003 -0.000 -0.004
 O          0.001 -0.001  0.002    0.010 -0.005  0.022    0.002 -0.001  0.004
 O          0.006  0.080  0.008   -0.002  0.003 -0.001   -0.007  0.047  0.007
 H          0.247  0.000  0.098    0.002 -0.013  0.023   -0.464 -0.094 -0.017
 C         -0.012  0.040  0.001   -0.005  0.002 -0.006    0.168 -0.003 -0.022
 H          0.242 -0.213 -0.142   -0.004 -0.004 -0.004   -0.534 -0.091  0.328
 H          0.315 -0.178 -0.064    0.015  0.009  0.020   -0.477  0.203 -0.206
 C         -0.178 -0.142  0.041    0.011 -0.008  0.011   -0.065 -0.077  0.016
 H         -0.022 -0.045 -0.002   -0.075 -0.145  0.018    0.005 -0.015  0.008
 O          0.067 -0.024 -0.018   -0.001  0.005 -0.003    0.019  0.003 -0.007
 H          0.221  0.694 -0.191   -0.008 -0.032  0.009    0.043  0.134 -0.042
 C          0.000  0.002 -0.012    0.060  0.004  0.018    0.000  0.001 -0.000
 TransDip  -0.135 -0.246 -0.030   -0.385 -0.093 -0.118   -0.230 -0.218  0.005

 Mode:                34                     35                     36
 Frequency:      1421.42                1458.15                1467.80
 Force Cnst:      3.8837                 1.3535                 1.3323
 Red. Mass:       3.2625                 1.0804                 1.0496
 IR Active:          YES                    YES                    YES
 IR Intens:      201.471                 10.095                  4.392
 Raman Active:       YES                    YES                    YES
               X      Y      Z        X      Y      Z        X      Y      Z
 O          0.008  0.016  0.004    0.002  0.001  0.000   -0.002  0.000 -0.002
 C         -0.066 -0.037 -0.021   -0.001 -0.003 -0.000    0.004  0.004  0.001
 H          0.329  0.061  0.001   -0.009  0.015  0.018   -0.003 -0.019 -0.017
 H          0.303  0.008  0.122   -0.000  0.024 -0.010   -0.001 -0.024  0.009
 H         -0.254  0.337  0.336    0.006 -0.003 -0.005   -0.006  0.008  0.010
 C          0.326 -0.080  0.039    0.004 -0.001  0.001   -0.003  0.000 -0.000
 O         -0.120  0.001  0.124   -0.001 -0.000  0.001    0.001  0.000 -0.001
 O         -0.076  0.046 -0.148   -0.001  0.001 -0.002    0.001 -0.000  0.001
 O         -0.001  0.007  0.001    0.008 -0.001 -0.004   -0.000  0.005  0.003
 H         -0.017 -0.013  0.017   -0.382  0.121 -0.374   -0.256 -0.350  0.492
 C          0.008  0.002 -0.003    0.020 -0.053 -0.000    0.012 -0.004 -0.054
 H         -0.026 -0.024  0.013    0.046  0.703  0.043    0.288 -0.014 -0.182
 H         -0.023  0.013 -0.010    0.327 -0.006  0.282   -0.065  0.423  0.515
 C         -0.005 -0.013  0.004   -0.047 -0.024  0.014   -0.013 -0.010 -0.019
 H         -0.146  0.469 -0.249    0.002 -0.007  0.005   -0.003  0.011 -0.007
 O          0.003  0.001 -0.001    0.010  0.002 -0.003    0.002  0.002  0.001
 H          0.003  0.016 -0.013    0.025  0.071 -0.016    0.005  0.009  0.000
 C         -0.029 -0.042 -0.011   -0.002  0.001 -0.000    0.001 -0.001 -0.000
 TransDip   0.444 -0.081  0.052   -0.064  0.071  0.035   -0.013 -0.032  0.057

 Mode:                37                     38                     39
 Frequency:      1476.08                1501.73                1561.56
 Force Cnst:      1.7951                 1.4479                14.0699
 Red. Mass:       1.3984                 1.0897                 9.7931
 IR Active:          YES                    YES                    YES
 IR Intens:       90.767                  5.246               1302.247
 Raman Active:       YES                    YES                    YES
               X      Y      Z        X      Y      Z        X      Y      Z
 O         -0.009 -0.001 -0.002    0.008 -0.004  0.001    0.000 -0.000  0.000
 C         -0.001  0.021  0.003    0.045 -0.067 -0.005    0.001  0.001 -0.011
 H          0.086 -0.085 -0.112   -0.351  0.346  0.442    0.008  0.031  0.021
 H          0.063 -0.133  0.095   -0.266  0.524 -0.377   -0.018 -0.008 -0.010
 H         -0.369  0.346  0.446   -0.063  0.111  0.124   -0.352 -0.039 -0.014
 C         -0.118  0.015 -0.017    0.002 -0.004 -0.002   -0.120 -0.122  0.738
 O          0.038  0.001 -0.038   -0.001  0.001  0.002    0.155  0.014 -0.238
 O          0.024 -0.013  0.046   -0.000  0.001 -0.000   -0.073  0.069 -0.267
 O         -0.000  0.002 -0.000    0.002 -0.008 -0.001    0.000 -0.000 -0.000
 H         -0.003  0.015 -0.027    0.005 -0.011  0.020    0.001 -0.000  0.001
 C          0.000 -0.001  0.001    0.001 -0.000  0.000   -0.000  0.000 -0.000
 H         -0.012  0.021  0.009    0.010 -0.019 -0.006    0.001 -0.001 -0.000
 H          0.014 -0.016 -0.010   -0.019  0.014  0.005   -0.001  0.000  0.000
 C         -0.001 -0.004  0.003   -0.002  0.013 -0.004    0.001  0.001 -0.000
 H         -0.216  0.514 -0.375   -0.025  0.157 -0.088    0.345  0.033  0.110
 O          0.001  0.000 -0.001   -0.001 -0.001  0.001   -0.000 -0.000 -0.000
 H          0.001  0.004 -0.004   -0.000 -0.011  0.014    0.000 -0.001  0.001
 C          0.086 -0.072  0.001    0.004 -0.021 -0.003    0.010  0.009 -0.062
 TransDip  -0.289  0.090 -0.040    0.062  0.029  0.027   -0.182 -0.184  1.126

 Mode:                40                     41                     42
 Frequency:      1688.95                2847.24                2847.73
 Force Cnst:     12.9422                 5.0672                 5.2047
 Red. Mass:       7.7006                 1.0609                 1.0893
 IR Active:          YES                    YES                    YES
 IR Intens:      709.504                342.604                219.921
 Raman Active:       YES                    YES                    YES
               X      Y      Z        X      Y      Z        X      Y      Z
 O          0.014 -0.004  0.013   -0.007  0.000 -0.001    0.004 -0.001  0.001
 C         -0.024  0.001  0.000   -0.015  0.059 -0.032    0.023 -0.009 -0.082
 H          0.092 -0.007 -0.040    0.151 -0.630  0.683    0.054 -0.225  0.203
 H          0.098 -0.009  0.081    0.129 -0.095 -0.287   -0.380  0.345  0.795
 H         -0.007 -0.006 -0.004   -0.002  0.012 -0.011   -0.005  0.021 -0.019
 C         -0.003  0.002 -0.000   -0.001  0.001 -0.000    0.000 -0.000 -0.000
 O          0.001 -0.000 -0.001    0.000 -0.000 -0.000   -0.000  0.000  0.000
 O          0.001 -0.000  0.001    0.000 -0.000  0.000   -0.000 -0.000  0.000
 O          0.148 -0.320 -0.085    0.000 -0.001 -0.000   -0.001  0.001  0.000
 H          0.141 -0.077  0.034    0.000  0.000  0.000   -0.000 -0.001 -0.000
 C          0.097 -0.048 -0.020   -0.000 -0.000 -0.001    0.000 -0.000  0.001
 H         -0.042 -0.088  0.063    0.000 -0.000  0.004   -0.000 -0.000 -0.002
 H         -0.202  0.124 -0.044    0.000  0.000 -0.000   -0.000  0.000 -0.000
 C         -0.372  0.505  0.131   -0.000  0.001  0.003    0.000 -0.001 -0.002
 H         -0.013 -0.018 -0.002    0.007 -0.008 -0.013    0.013 -0.011 -0.024
 O          0.043 -0.048 -0.008    0.000  0.000 -0.000   -0.000 -0.000  0.000
 H          0.167  0.520 -0.131    0.002 -0.000 -0.000   -0.000 -0.002  0.003
 C          0.007 -0.001 -0.001    0.000  0.001  0.001   -0.001 -0.000  0.002
 TransDip  -0.237  0.768  0.285   -0.315  0.433 -0.254    0.233 -0.077 -0.407

 Mode:                43                     44                     45
 Frequency:      3050.96                3063.11                3103.05
 Force Cnst:      5.8048                 5.7744                 6.2749
 Red. Mass:       1.0584                 1.0445                 1.1061
 IR Active:          YES                    YES                    YES
 IR Intens:       67.385                 25.604                 87.298
 Raman Active:       YES                    YES                    YES
               X      Y      Z        X      Y      Z        X      Y      Z
 O         -0.000  0.000 -0.000   -0.000 -0.000 -0.000   -0.000 -0.000  0.000
 C          0.002  0.000 -0.000    0.000 -0.000 -0.000    0.001  0.001 -0.005
 H         -0.001 -0.004  0.003   -0.001  0.002 -0.002    0.004 -0.022  0.024
 H         -0.002 -0.000  0.002   -0.001  0.001  0.002   -0.010  0.010  0.026
 H         -0.072  0.414 -0.475    0.000 -0.001  0.001    0.096 -0.518  0.563
 C         -0.004  0.000 -0.001    0.000 -0.000  0.000    0.001  0.000 -0.003
 O          0.001 -0.000 -0.000   -0.000 -0.000  0.000   -0.000 -0.000  0.001
 O          0.000 -0.000  0.001   -0.000  0.000 -0.000   -0.000 -0.000  0.001
 O         -0.000 -0.000 -0.000   -0.000  0.000  0.000   -0.000 -0.000  0.000
 H          0.000 -0.001 -0.001    0.035 -0.323 -0.196    0.000 -0.000 -0.000
 C         -0.000  0.000 -0.000   -0.049  0.009 -0.029   -0.000 -0.000  0.000
 H          0.001 -0.000  0.002    0.388 -0.056  0.752   -0.000 -0.000 -0.000
 H          0.000  0.000 -0.000    0.138  0.275 -0.197    0.000  0.001 -0.000
 C         -0.000 -0.000  0.000    0.003 -0.000 -0.001    0.000  0.000 -0.000
 H         -0.294  0.267  0.660    0.001 -0.001 -0.002   -0.243  0.233  0.531
 O          0.000  0.000  0.000   -0.000  0.000  0.000   -0.000 -0.000 -0.000
 H         -0.000 -0.000 -0.000    0.001 -0.002 -0.000    0.001  0.000  0.001
 C          0.032 -0.058 -0.015   -0.000  0.000  0.000    0.012  0.024 -0.090
 TransDip   0.124 -0.219 -0.076   -0.116  0.015 -0.112    0.042  0.070 -0.288

 Mode:                46                     47                     48
 Frequency:      3149.02                3187.71                3784.91
 Force Cnst:      6.3750                 6.6202                 8.9847
 Red. Mass:       1.0911                 1.1058                 1.0645
 IR Active:          YES                    YES                    YES
 IR Intens:       21.001                 19.242                 95.685
 Raman Active:       YES                    YES                    YES
               X      Y      Z        X      Y      Z        X      Y      Z
 O         -0.000  0.000  0.000   -0.000  0.000  0.000   -0.000  0.000 -0.000
 C          0.000 -0.000 -0.000    0.000  0.000 -0.000    0.000 -0.000  0.000
 H         -0.001  0.001 -0.001   -0.000  0.000 -0.000   -0.001  0.001 -0.001
 H         -0.001  0.001  0.002   -0.000  0.000  0.000   -0.000  0.000  0.001
 H          0.000 -0.000  0.001   -0.000  0.000 -0.001    0.000  0.001 -0.000
 C          0.000 -0.000 -0.000   -0.000  0.000 -0.000    0.000 -0.000 -0.000
 O         -0.000  0.000 -0.000    0.000  0.000 -0.000   -0.000  0.000  0.000
 O          0.000 -0.000 -0.000    0.000 -0.000 -0.000   -0.000  0.000 -0.000
 O          0.000  0.000  0.000   -0.000  0.001  0.000    0.000  0.001 -0.000
 H         -0.073  0.561  0.312   -0.077  0.567  0.338    0.001  0.001  0.000
 C          0.008 -0.008 -0.086   -0.017 -0.093  0.006    0.001 -0.000 -0.000
 H          0.238 -0.036  0.443   -0.012 -0.012 -0.017   -0.001  0.000 -0.001
 H         -0.229 -0.433  0.285    0.296  0.554 -0.392   -0.000 -0.000 -0.000
 C         -0.002  0.000 -0.001   -0.000 -0.002  0.000   -0.003 -0.000  0.001
 H          0.000  0.000  0.000   -0.000  0.000  0.000    0.000 -0.000 -0.000
 O         -0.000 -0.000  0.000    0.000  0.000 -0.000   -0.056  0.017  0.018
 H          0.000  0.001  0.000   -0.000  0.001  0.000    0.915 -0.279 -0.285
 C         -0.000  0.000 -0.000    0.000 -0.000  0.000   -0.000 -0.000  0.000
 TransDip   0.025 -0.020 -0.143   -0.010 -0.140  0.008    0.283 -0.004 -0.134

 STANDARD THERMODYNAMIC QUANTITIES AT   298.15 K  AND     1.00 ATM

   This Molecule has  1 Imaginary Frequencies
   Zero point vibrational energy:       83.172 kcal/mol

   Atom    1 Element O  Has Mass   15.99491
   Atom    2 Element C  Has Mass   12.00000
   Atom    3 Element H  Has Mass    1.00783
   Atom    4 Element H  Has Mass    1.00783
   Atom    5 Element H  Has Mass    1.00783
   Atom    6 Element C  Has Mass   12.00000
   Atom    7 Element O  Has Mass   15.99491
   Atom    8 Element O  Has Mass   15.99491
   Atom    9 Element O  Has Mass   15.99491
   Atom   10 Element H  Has Mass    1.00783
   Atom   11 Element C  Has Mass   12.00000
   Atom   12 Element H  Has Mass    1.00783
   Atom   13 Element H  Has Mass    1.00783
   Atom   14 Element C  Has Mass   12.00000
   Atom   15 Element H  Has Mass    1.00783
   Atom   16 Element O  Has Mass   15.99491
   Atom   17 Element H  Has Mass    1.00783
   Atom   18 Element C  Has Mass   12.00000
   Molecular Mass:   148.037190 amu
   Principal axes and moments of inertia in amu*Bohr^2:
                             1           2           3
    Eigenvalues --      615.94346  3189.10594  3391.20663
          X               0.82621    -0.53095    -0.18832
          Y               0.14530    -0.12214     0.98182
          Z               0.54430     0.83855     0.02376
   Rotational Symmetry Number is   1
   The Molecule is an Asymmetric Top
   Translational Enthalpy:        0.889 kcal/mol
   Rotational Enthalpy:           0.889 kcal/mol
   Vibrational Enthalpy:         88.302 kcal/mol
   gas constant (RT):             0.592 kcal/mol
   Translational Entropy:        40.887  cal/mol.K
   Rotational Entropy:           30.278  cal/mol.K
   Vibrational Entropy:          36.692  cal/mol.K

   Total Enthalpy:               90.672 kcal/mol
   Total Entropy:               107.857  cal/mol.K
Archival summary:
1\1\c5-68\FREQ\ProcedureUnspecified\BasisUnspecified\558(2-,1)\lmgong\SunMay2703:44:032018SunMay2703:44:032018\0\\#,FREQ,ProcedureUnspecified,BasisUnspecified,\\-2,1\O\C,1,1.37349\H,2,1.11296,1,112.486\H,2,1.11489,1,111.516,3,-117.31,0\C,2,1.54745,1,113.894,3,121.487,0\H,5,1.09513,2,108.377,1,59.6051,0\H,5,1.09568,2,108.37,1,-58.3982,0\C,5,1.52779,2,111.309,1,-179.216,0\O,8,1.26303,5,117.611,2,90.4649,0\O,8,1.26307,5,117.658,2,-87.3682,0\C,1,2.1612,2,107.511,3,130.401,0\O,11,1.22863,1,103.614,2,-55.4675,0\O,11,1.36742,1,96.9488,2,67.0346,0\H,13,0.968701,11,106.602,1,-95.1089,0\C,11,1.50325,1,90.6128,2,179.144,0\H,15,1.0891,11,109.405,1,65.9569,0\H,15,1.08925,11,111.273,1,-55.701,0\H,15,1.0963,11,108.12,1,-175.505,0\\\@

 Total job time:  63380.29s(wall), 469111.24s(cpu) 
 Sun May 27 03:44:03 2018

        *************************************************************
        *                                                           *
        *  Thank you very much for using Q-Chem.  Have a nice day.  *
        *                                                           *
        *************************************************************


