
Running Job 1 of 1 qc-freq1.in
qchem qc-freq1.in_5355.0 /scratch/leeping/1862938/qc-freq1.d/ 1
/home/leeping/opt/qchem/5.0.2-openmp/exe/qcprog.exe_s qc-freq1.in_5355.0 /scratch/leeping/1862938/qc-freq1.d/
Check license passed

                  Welcome to Q-Chem
     A Quantum Leap Into The Future Of Chemistry


 Q-Chem 5.0, Q-Chem, Inc., Pleasanton, CA (2017)

 Yihan Shao,  Zhengting Gan,  E. Epifanovsky,  A. T. B. Gilbert,  M. Wormit,  
 J. Kussmann,  A. W. Lange,  A. Behn,  Jia Deng,  Xintian Feng,  D. Ghosh,  
 M. Goldey,  P. R. Horn,  L. D. Jacobson,  I. Kaliman,  T. Kus,  A. Landau,  
 Jie Liu,  E. I. Proynov,  R. M. Richard,  R. P. Steele,  E. J. Sundstrom,  
 H. L. Woodcock III,  P. M. Zimmerman,  D. Zuev,  B. Albrecht,  E. Alguire,  
 S. A. Baeppler,  D. Barton,  Z. Benda,  Y. A. Bernard,  E. J. Berquist,  
 K. B. Bravaya,  H. Burton,  D. Casanova,  Chun-Min Chang,  Yunqing Chen,  
 A. Chien,  K. D. Closser,  M. P. Coons,  S. Dasgupta,  A. L. Dempwolff,  
 M. Diedenhofen,  Hainam Do,  R. G. Edgar,  Po-Tung Fang,  S. Fatehi,  
 Qingguo Feng,  J. Fosso-Tande,  Qinghui Ge,  A. Ghysels,  G. Gidofalvi,  
 J. Gomes,  J. Gonthier,  A. Gunina,  M. W. D. Hanson-Heine,  
 P. H. P. Harbach,  A. W. Hauser,  J. E. Herr,  E. G. Hohenstein,  
 Z. C. Holden,  Kerwin Hui,  T.-C. Jagau,  Hyunjun Ji,  B. Kaduk,  
 K. Khistyaev,  Jaehoon Kim,  P. Klunzinger,  K. Koh,  D. Kosenkov,  
 L. Koulias,  T. Kowalczyk,  C. M. Krauter,  A. Kunitsa,  Ka Un Lao,  
 A. Laurent,  K. V. Lawler,  Joonho Lee,  D. Lefrancois,  S. Lehtola,  
 D. S. Levine,  Yi-Pei Li,  You-Sheng Lin,  Fenglai Liu,  E. Livshits,  
 A. Luenser,  P. Manohar,  E. Mansoor,  S. F. Manzer,  Shan-Ping Mao,  
 Yuezhi Mao,  N. Mardirossian,  A. V. Marenich,  T. Markovich,  
 L. A. Martinez-Martinez,  S. A. Maurer,  N. J. Mayhall,  S. C. McKenzie,  
 J.-M. Mewes,  A. F. Morrison,  J. W. Mullinax,  K. Nanda,  
 T. S. Nguyen-Beck,  R. Olivares-Amaya,  J. A. Parkhill,  T. M. Perrine,  
 F. Plasser,  S. Prager,  A. Prociuk,  E. Ramos,  D. R. Rehn,  F. Rob,  
 M. Schneider,  N. Sergueev,  S. M. Sharada,  S. Sharma,  D. W. Small,  
 T. Stauch,  T. Stein,  Yu-Chuan Su,  A. J. W. Thom,  A. Tkatchenko,  
 T. Tsuchimochi,  L. Vogt,  O. Vydrov,  M. A. Watson,  J. Wenzel,  
 M. de Wergifosse,  T. A. Wesolowski,  A. White,  J. Witte,  A. Yamada,  
 Jun Yang,  K. Yao,  S. Yeganeh,  S. R. Yost,  Zhi-Qiang You,  A. Zech,  
 Igor Ying Zhang,  Xing Zhang,  Yan Zhao,  Ying Zhu,  B. R. Brooks,  
 G. K. L. Chan,  C. J. Cramer,  M. S. Gordon,  W. J. Hehre,  A. Klamt,  
 M. W. Schmidt,  C. D. Sherrill,  D. G. Truhlar,  A. Aspuru-Guzik,  R. Baer,  
 A. T. Bell,  N. A. Besley,  Jeng-Da Chai,  R. A. DiStasio Jr.,  A. Dreuw,  
 B. D. Dunietz,  T. R. Furlani,  Chao-Ping Hsu,  Yousung Jung,  Jing Kong,  
 D. S. Lambrecht,  WanZhen Liang,  C. Ochsenfeld,  V. A. Rassolov,  
 L. V. Slipchenko,  J. E. Subotnik,  T. Van Voorhis,  J. M. Herbert,  
 A. I. Krylov,  P. M. W. Gill,  M. Head-Gordon

 Contributors to earlier versions of Q-Chem not listed above: 
 R. D. Adamson,  B. Austin,  J. Baker,  G. J. O. Beran,  K. Brandhorst,  
 S. T. Brown,  E. F. C. Byrd,  A. K. Chakraborty,  C.-L. Cheng,  
 Siu Hung Chien,  D. M. Chipman,  D. L. Crittenden,  H. Dachsel,  
 R. J. Doerksen,  A. D. Dutoi,  L. Fusti-Molnar,  W. A. Goddard III,  
 A. Golubeva-Zadorozhnaya,  S. R. Gwaltney,  G. Hawkins,  A. Heyden,  
 S. Hirata,  G. Kedziora,  F. J. Keil,  C. Kelley,  Jihan Kim,  R. A. King,  
 R. Z. Khaliullin,  P. P. Korambath,  W. Kurlancheek,  A. M. Lee,  M. S. Lee,  
 S. V. Levchenko,  Ching Yeh Lin,  D. Liotard,  R. C. Lochan,  I. Lotan,  
 P. E. Maslen,  N. Nair,  D. P. O'Neill,  D. Neuhauser,  E. Neuscamman,  
 C. M. Oana,  R. Olson,  B. Peters,  R. Peverati,  P. A. Pieniazek,  
 Y. M. Rhee,  J. Ritchie,  M. A. Rohrdanz,  E. Rosta,  N. J. Russ,  
 H. F. Schaefer III,  N. E. Schultz,  N. Shenvi,  A. C. Simmonett,  A. Sodt,  
 D. Stuck,  K. S. Thanthiriwatte,  V. Vanovschi,  Tao Wang,  A. Warshel,  
 C. F. Williams,  Q. Wu,  X. Xu,  W. Zhang

 Please cite Q-Chem as follows:
 Y. Shao et al., Mol. Phys. 113, 184-215 (2015)
 DOI: 10.1080/00268976.2014.952696

 Q-Chem 5.0.2 for Intel X86 EM64T Linux

 Parts of Q-Chem use Armadillo 5.200.1 (Boston Tea Smuggler).
 http://arma.sourceforge.net/

 Q-Chem begins on Sat Mar 21 01:09:29 2020  

Host: 
0

     Scratch files written to /scratch/leeping/1862938/qc-freq1.d//
 Dec517 15110_ 26548  26544 5633   
Processing $rem in /home/leeping/opt/qchem/5.0.2-openmp/config/preferences.
 MEM_STATIC 2000
 MEM_TOTAL  8000
 SYMMETRY   OFF
 SYM_IGNORE TRUE 
Symmetry turned off for PCM/SM12/SMD calculation

Checking the input file for inconsistencies... 	...done.

--------------------------------------------------------------
User input:
--------------------------------------------------------------
$molecule
-2 1
C        0.3858673364    1.1444507253    0.0931625737
C        0.7479832851    2.5849591028    0.4853677126
O        1.9661180698    2.8286165162    0.7424118058
O       -0.1731973909    3.4331060099    0.4969938468
C        1.3462786922    0.0916854964    0.6331551083
H        0.3796168295    1.1030963116   -1.0042757755
H       -0.6333906105    0.9287665114    0.4264264133
O       -1.7900894399   -2.0735425675    1.1399082494
H        1.3015147371    0.0809648318    1.7326588541
H        1.0557435998   -0.9022571484    0.2800700329
C       -2.1484099789   -1.5316373333    0.0613362249
C       -1.4359220873   -1.9529926247   -1.2264901148
H       -2.1719210596   -2.2957706470   -1.9597029076
H       -0.7060884972   -2.7442105192   -1.0461620168
H       -0.9263823780   -1.0852284445   -1.6571919820
O       -3.0503207331   -0.6586583559   -0.0519885047
O        2.6843484763    0.3281381718    0.2012204409
H        2.7888429166    1.2914996857    0.3626021976
$end

$rem
jobtype               freq
method                wb97x-v
basis                 def2-tzvpd
symmetry              off
sym_ignore            true
incdft                false
incfock               0
!scf_algorithm        diis_gdm
scf_convergence       8
thresh                14
!purecart             112
max_scf_cycles        1000
geom_opt_max_cycles   500
geom_opt_dmax         100
geom_opt_tol_gradient 10
solvent_method        pcm
ideriv                1
rpath_tol_displacement 1000
rpath_max_cycles      100
rpath_direction       1
!scf_guess            read
scf_guess             read
$end

$pcm
theory              cosmo
method              iswig
Radii               bondi
vdwScale            1.20
hpoints             110
heavypoints         110
$end

$solvent
dielectric 78.400000
$end

--------------------------------------------------------------
 ----------------------------------------------------------------
             Standard Nuclear Orientation (Angstroms)
    I     Atom           X                Y                Z
 ----------------------------------------------------------------
    1      C       0.3858673364     1.1444507253     0.0931625737
    2      C       0.7479832851     2.5849591028     0.4853677126
    3      O       1.9661180698     2.8286165162     0.7424118058
    4      O      -0.1731973909     3.4331060099     0.4969938468
    5      C       1.3462786922     0.0916854964     0.6331551083
    6      H       0.3796168295     1.1030963116    -1.0042757755
    7      H      -0.6333906105     0.9287665114     0.4264264133
    8      O      -1.7900894399    -2.0735425675     1.1399082494
    9      H       1.3015147371     0.0809648318     1.7326588541
   10      H       1.0557435998    -0.9022571484     0.2800700329
   11      C      -2.1484099789    -1.5316373333     0.0613362249
   12      C      -1.4359220873    -1.9529926247    -1.2264901148
   13      H      -2.1719210596    -2.2957706470    -1.9597029076
   14      H      -0.7060884972    -2.7442105192    -1.0461620168
   15      H      -0.9263823780    -1.0852284445    -1.6571919820
   16      O      -3.0503207331    -0.6586583559    -0.0519885047
   17      O       2.6843484763     0.3281381718     0.2012204409
   18      H       2.7888429166     1.2914996857     0.3626021976
 ----------------------------------------------------------------
 Nuclear Repulsion Energy =   508.3880633213 hartrees
 There are       40 alpha and       40 beta electrons
 Requested basis set is def2-TZVPD
 There are 175 shells and 457 basis functions

 Total QAlloc Memory Limit   8000 MB
 Mega-Array Size      1956 MB
 MEM_STATIC part      2000 MB
 Discretize the solute cavity surface with Lebedev spheres
	Using 110 Lebedev grid points for each H atom
	Using 110 Lebedev grid points for other atoms
	Atomic van der Waals radii will be scaled by 1.20
 Remove points where switching function is < 1.0e-08
 Keep 1143 surface tesserae and discard 837 interior tesserae
 Molecular Surface Area = 207.397 Angst**2
 A cutoff of  1.0D-14 yielded  13673 shell pairs
 There are     92781 function pairs (    117661 Cartesian)
 
 -------------------------------------------------------
 OpenMP Integral Computing Module                       
 Release: version 1.0, May 2013, Q-Chem Inc. Pittsburgh 
 -------------------------------------------------------
 Integral Job Info:
 Integral job number is                      11
 Integral operator is                         1
 short-range coefficients              16700000
 long-range coefficients              100000000
 Omega coefficients                         300
 if combine SR and LR in K                    1
 Integral screening is                        0
 Integral computing path is                   2
 max size of driver memory is            800000
 size of driver memory is                776718
 size of scratch memory is              4473992
 max col of scratch BK array              10000
 max len of scratch array in speh3          662
 max len of scratch index in speh4           32
 max int batch size is                      520
 min int batch size is                       52
 fixed nKL is                                52
 max L of basis functions is                  3
 order of int derivative is                   0
 number of shells is                        175
 number of basis is                         517
 number of cartesian basis is               517
 number of contracted shell pairs         13673
 number of primitive shell pairs          27394
 maxK2 (contraction) of shell pair           36
 max number of K2 of shell pair               1
 max number of CS2 of shell pair           2302
 max number of PS2 of shell pair           3138
 mem total for path MDJ                  764724
 -------------------------------------------------------
 Smallest overlap matrix eigenvalue = 4.90E-06
 Guess MOs from SCF MO coefficient file
 Reading MOs from coefficient file
 Reading MOs from coefficient file
 Long-range K will be added via erf
 Coulomb attenuation parameter = 0.3 bohr**(-1)
 A restricted hybrid HF-DFT SCF calculation will be
 performed using Pulay DIIS extrapolation
 Polarizable Continuum solvation model will be applied
 Exchange:     0.1670 Hartree-Fock + 1.0000 wB97X-V + LR-HF
 Correlation:  1.0000 wB97X-V
 Using SG-2 standard quadrature grid
 Nonlocal Correlation:  VV10 with C = 0.0100 and b = 6.00
 Grid used for NLC:  SG-1 standard quadrature
 SCF converges when DIIS error is below 1.0E-08
Using Q-Chem read-in guess as SCF_GUESS READ specified.

 using 16 threads for integral computing
 -------------------------------------------------------
 OpenMP Integral computing Module                
 Release: version 1.0, May 2013, Q-Chem Inc. Pittsburgh 
 -------------------------------------------------------
 using 16 threads for integral computing
 -------------------------------------------------------
 OpenMP Integral computing Module                
 Release: version 1.0, May 2013, Q-Chem Inc. Pittsburgh 
 -------------------------------------------------------
 -------------------------------------------------------
 OpenMP BLAS3 based DFT computing Module                
 Release: version 1.0, May 2013, Q-Chem Inc. Pittsburgh 
 -------------------------------------------------------
 -------------------------------------------------------
 OpenMP BLAS3 based DFT computing Module                
 Release: version 1.0, May 2013, Q-Chem Inc. Pittsburgh 
 -------------------------------------------------------
 -------------------------------------------------------
 OpenMP BLAS3 based DFT computing Module                
 Release: version 1.0, May 2013, Q-Chem Inc. Pittsburgh 
 -------------------------------------------------------
 ---------------------------------------
  Cycle       Energy         DIIS Error
 ---------------------------------------
    1    -571.5574288978      3.44E-04
    2    -571.8484333371      3.55E-04
    3    -571.8531022178      1.68E-04
    4    -571.8538905088      1.23E-04
    5    -571.8544122345      9.32E-05
    6    -571.8546591605      7.56E-05
    7    -571.8548285459      6.06E-05
    8    -571.8549560051      4.63E-05
    9    -571.8550470514      3.25E-05
   10    -571.8550940907      2.22E-05
   11    -571.8551118040      1.68E-05
   12    -571.8551205994      1.33E-05
   13    -571.8551263115      1.04E-05
   14    -571.8551293553      8.42E-06
   15    -571.8551314588      6.75E-06
   16    -571.8551329779      5.23E-06
   17    -571.8551352530      2.10E-09 Convergence criterion met
 ---------------------------------------

************** Final PCM Free Energy Summary **************
 G_electrostatic  =      -0.29770785 hartree =    -186.81449450 kcal/mol
 G_cavitation     =       0.00000000 hartree =       0.00000000 kcal/mol
 G_dispersion     =       0.00000000 hartree =       0.00000000 kcal/mol
 G_repulsion      =       0.00000000 hartree =       0.00000000 kcal/mol
 --------------------------------------------------
 Non-electrostatic Free Energy =       0.00000000 hartree =       0.00000000 kcal/mol
 Total                         =      -0.29770785 hartree =    -186.81449450 kcal/mol
 --------------------------------------------------
 SCF Energy (H0 + V/2)                       =    -571.85513525 
 Solute Internal Energy (H0)                 =    -571.55742740 
 Total Free Energy (H0 + V/2 + non-elec)     =    -571.85513525 hartree
                                             = -358844.51341122 kcal/mol
***********************************************************

 SCF time:  CPU 3852.74 s  wall 279.20 s
 SCF   energy in the final basis set = -571.85513525
 Total energy in the final basis set = -571.85513525
 
 --------------------------------------------------------------
 
                    Orbital Energies (a.u.)
 --------------------------------------------------------------
 
 Alpha MOs
 -- Occupied --
-19.189 -19.151 -19.147 -19.140 -19.138 -10.350 -10.342 -10.298
-10.251 -10.242  -1.156  -1.143  -1.128  -1.058  -1.048  -0.873
 -0.832  -0.746  -0.619  -0.605  -0.603  -0.561  -0.542  -0.532
 -0.529  -0.528  -0.523  -0.507  -0.498  -0.474  -0.456  -0.447
 -0.430  -0.369  -0.356  -0.348  -0.341  -0.339  -0.338  -0.330
 -- Virtual --
  0.058   0.072   0.076   0.085   0.099   0.100   0.107   0.113
  0.120   0.132   0.134   0.141   0.146   0.147   0.153   0.155
  0.166   0.171   0.177   0.182   0.191   0.195   0.203   0.217
  0.219   0.226   0.228   0.236   0.242   0.248   0.256   0.260
  0.270   0.282   0.283   0.301   0.308   0.311   0.315   0.321
  0.324   0.327   0.337   0.341   0.350   0.355   0.363   0.363
  0.367   0.368   0.373   0.381   0.384   0.395   0.397   0.401
  0.409   0.414   0.422   0.427   0.429   0.441   0.449   0.451
  0.455   0.467   0.472   0.477   0.483   0.487   0.490   0.495
  0.503   0.507   0.507   0.516   0.520   0.530   0.539   0.543
  0.545   0.551   0.556   0.564   0.574   0.577   0.582   0.583
  0.589   0.596   0.606   0.617   0.622   0.625   0.629   0.634
  0.642   0.649   0.654   0.657   0.664   0.673   0.678   0.687
  0.699   0.703   0.711   0.718   0.721   0.732   0.739   0.743
  0.753   0.757   0.767   0.774   0.777   0.782   0.788   0.789
  0.802   0.811   0.811   0.817   0.830   0.834   0.839   0.852
  0.864   0.873   0.876   0.882   0.888   0.895   0.914   0.924
  0.929   0.936   0.946   0.962   0.967   0.977   0.986   0.994
  1.006   1.023   1.037   1.058   1.066   1.071   1.084   1.091
  1.096   1.115   1.122   1.127   1.135   1.164   1.167   1.188
  1.195   1.208   1.218   1.229   1.238   1.248   1.270   1.297
  1.303   1.321   1.336   1.344   1.362   1.372   1.385   1.394
  1.399   1.414   1.431   1.453   1.461   1.467   1.483   1.519
  1.559   1.593   1.606   1.627   1.653   1.700   1.799   1.804
  1.843   1.866   1.884   1.892   1.896   1.912   1.922   1.937
  1.940   1.959   1.962   1.970   1.982   1.991   1.998   2.007
  2.017   2.029   2.031   2.037   2.075   2.087   2.104   2.124
  2.136   2.181   2.199   2.203   2.227   2.232   2.253   2.255
  2.281   2.297   2.332   2.347   2.361   2.370   2.374   2.382
  2.432   2.446   2.459   2.479   2.486   2.493   2.501   2.505
  2.523   2.549   2.602   2.634   2.645   2.660   2.674   2.692
  2.699   2.720   2.728   2.756   2.787   2.798   2.824   2.860
  2.876   2.888   2.915   2.922   2.932   2.950   2.968   2.992
  3.011   3.031   3.042   3.061   3.105   3.155   3.161   3.175
  3.210   3.223   3.235   3.263   3.282   3.288   3.304   3.321
  3.339   3.353   3.364   3.378   3.391   3.400   3.421   3.427
  3.442   3.448   3.451   3.459   3.484   3.510   3.529   3.557
  3.569   3.578   3.595   3.604   3.626   3.634   3.648   3.652
  3.666   3.680   3.689   3.700   3.727   3.733   3.747   3.753
  3.765   3.794   3.814   3.817   3.863   3.914   3.926   3.942
  4.058   4.084   4.100   4.127   4.160   4.192   4.222   4.232
  4.303   4.355   4.381   4.415   4.555   4.592   4.632   4.654
  4.674   4.739   4.786   4.814   4.835   4.852   4.877   4.879
  5.013   5.083   5.127   5.312   5.319   5.349   5.351   5.360
  5.363   5.365   5.400   5.446   5.491   5.498   5.568   5.623
  5.702   5.706   5.710   5.717   5.770   5.774   5.889   5.935
  5.987   5.991   6.169   6.232   6.258   6.296   6.305   6.318
  6.339   6.427   6.608   6.616   6.629   6.638   6.714   6.722
  6.730   6.750   6.753   6.767   6.818   6.930   6.937   6.944
  6.968   6.982   7.000   7.041   7.052   7.219   7.222   7.253
  7.348   7.368   7.371   7.372   7.409   7.415   7.498  22.659
 22.761  22.854  23.694  23.722  44.304  44.380  44.403  44.423
 44.441
 --------------------------------------------------------------
 
          Ground-State Mulliken Net Atomic Charges

     Atom                 Charge (a.u.)
  ----------------------------------------
      1 C                     0.184664
      2 C                     0.139309
      3 O                    -0.759565
      4 O                    -0.688192
      5 C                    -0.209238
      6 H                     0.162862
      7 H                     0.032856
      8 O                    -0.709755
      9 H                     0.159774
     10 H                     0.118918
     11 C                     0.437538
     12 C                    -0.517369
     13 H                     0.220768
     14 H                     0.205506
     15 H                     0.114912
     16 O                    -0.717615
     17 O                    -0.545674
     18 H                     0.370301
  ----------------------------------------
  Sum of atomic charges =    -2.000000

 -----------------------------------------------------------------
                    Cartesian Multipole Moments
 -----------------------------------------------------------------
    Charge (ESU x 10^10)
                -9.6064
    Dipole Moment (Debye)
         X       5.6894      Y      -8.5450      Z      -6.8058
       Tot      12.3169
    Quadrupole Moments (Debye-Ang)
        XX    -120.9252     XY     -20.6618     YY    -127.8686
        XZ       4.2360     YZ      -0.9909     ZZ     -70.9938
    Octopole Moments (Debye-Ang^2)
       XXX      80.8942    XXY     -23.0490    XYY      -0.4861
       YYY    -234.5828    XXZ     -35.9446    XYZ     -26.8480
       YYZ     -69.5785    XZZ      17.0818    YZZ     -18.4904
       ZZZ     -50.8458
    Hexadecapole Moments (Debye-Ang^3)
      XXXX   -1801.1918   XXXY    -488.8564   XXYY    -602.8352
      XYYY    -521.0633   YYYY   -2293.2694   XXXZ     -57.9836
      XXYZ     -27.4233   XYYZ     -18.4317   YYYZ    -188.4306
      XXZZ    -300.7688   XYZZ    -153.3970   YYZZ    -353.5845
      XZZZ     -50.5138   YZZZ     -99.6172   ZZZZ    -288.9809
 -----------------------------------------------------------------
 Calculating analytic gradient of the SCF energy
 Gradient of SCF Energy
            1           2           3           4           5           6
    1  -0.0311817  -0.0343823  -0.0418651   0.0376946  -0.0406230  -0.0011935
    2  -0.0152551   0.0486916  -0.0038747  -0.0451387  -0.0693031  -0.0097441
    3  -0.0547408   0.0150892  -0.0093065  -0.0021198   0.0723472   0.0532098
            7           8           9          10          11          12
    1   0.0632358  -0.0107108   0.0080694   0.0226509  -0.0441852   0.0596169
    2   0.0225755   0.0202734   0.0070135   0.0646626   0.0387413  -0.0223284
    3  -0.0193765  -0.0551906  -0.0741120   0.0335234   0.0698919  -0.0736883
           13          14          15          16          17          18
    1   0.0458049  -0.0505148  -0.0372030   0.0449012   0.0278731  -0.0179875
    2   0.0234963   0.0488730  -0.0629850  -0.0352108   0.0438738  -0.0543611
    3   0.0498095  -0.0117115   0.0313290  -0.0080230   0.0034533  -0.0203844
 Max gradient component =       7.411E-02
 RMS gradient           =       4.125E-02
 Computing fast CPCM-ISWIG gradient
 Updating gradient with PCM contributions...
 -- total gradient after adding PCM contribution --
---------------------------------------------------
  Atom         X              Y              Z     
---------------------------------------------------
   1       0.000009       0.000003       0.000008
   2       0.000007      -0.000006       0.000003
   3      -0.000007       0.000001       0.000000
   4      -0.000002       0.000004      -0.000000
   5       0.000004       0.000005      -0.000004
   6      -0.000003      -0.000000      -0.000001
   7      -0.000001       0.000000      -0.000005
   8      -0.000005       0.000004      -0.000007
   9      -0.000001       0.000001       0.000001
  10       0.000001      -0.000001       0.000002
  11       0.000004      -0.000012       0.000010
  12       0.000009       0.000004      -0.000001
  13       0.000001       0.000003      -0.000003
  14      -0.000003      -0.000002      -0.000002
  15      -0.000000      -0.000002      -0.000001
  16      -0.000001       0.000002      -0.000004
  17      -0.000006       0.000001       0.000003
  18      -0.000004      -0.000004       0.000001
---------------------------------------------------
 Number of fixed atoms: 0
 Gradient time:  CPU 770.54 s  wall 57.34 s
 ######################################################
 ######################################################
 # Starting finite difference calculation for IDERIV  #
 Finite diff step size:  1.88973e-03 a.u.
 ----------------------------------------------------------------
             Standard Nuclear Orientation (Angstroms)
    I     Atom           X                Y                Z
 ----------------------------------------------------------------
    1      C       0.3868673364     1.1444507253     0.0931625737
    2      C       0.7479832851     2.5849591028     0.4853677126
    3      O       1.9661180698     2.8286165162     0.7424118058
    4      O      -0.1731973909     3.4331060099     0.4969938468
    5      C       1.3462786922     0.0916854964     0.6331551083
    6      H       0.3796168295     1.1030963116    -1.0042757755
    7      H      -0.6333906105     0.9287665114     0.4264264133
    8      O      -1.7900894399    -2.0735425675     1.1399082494
    9      H       1.3015147371     0.0809648318     1.7326588541
   10      H       1.0557435998    -0.9022571484     0.2800700329
   11      C      -2.1484099789    -1.5316373333     0.0613362249
   12      C      -1.4359220873    -1.9529926247    -1.2264901148
   13      H      -2.1719210596    -2.2957706470    -1.9597029076
   14      H      -0.7060884972    -2.7442105192    -1.0461620168
   15      H      -0.9263823780    -1.0852284445    -1.6571919820
   16      O      -3.0503207331    -0.6586583559    -0.0519885047
   17      O       2.6843484763     0.3281381718     0.2012204409
   18      H       2.7888429166     1.2914996857     0.3626021976
 ----------------------------------------------------------------
 Nuclear Repulsion Energy =   508.3953825905 hartrees
 There are       40 alpha and       40 beta electrons
 Discretize the solute cavity surface with Lebedev spheres
	Using 110 Lebedev grid points for each H atom
	Using 110 Lebedev grid points for other atoms
	Atomic van der Waals radii will be scaled by 1.20
 Remove points where switching function is < 1.0e-08
 Keep 1143 surface tesserae and discard 837 interior tesserae
 Molecular Surface Area = 207.397 Angst**2
 Requested basis set is def2-TZVPD
 There are 175 shells and 457 basis functions
 A cutoff of  1.0D-14 yielded  13673 shell pairs
 There are     92781 function pairs (    117661 Cartesian)
 Smallest overlap matrix eigenvalue = 4.91E-06
 Guess MOs from SCF MO coefficient file
 Reading MOs from coefficient file
 Reading MOs from coefficient file
 Long-range K will be added via erf
 Coulomb attenuation parameter = 0.3 bohr**(-1)
 A restricted hybrid HF-DFT SCF calculation will be
 performed using Pulay DIIS extrapolation
 Polarizable Continuum solvation model will be applied
 Exchange:     0.1670 Hartree-Fock + 1.0000 wB97X-V + LR-HF
 Correlation:  1.0000 wB97X-V
 Using SG-2 standard quadrature grid
 Nonlocal Correlation:  VV10 with C = 0.0100 and b = 6.00
 Grid used for NLC:  SG-1 standard quadrature
 SCF converges when DIIS error is below 1.0E-08
Using Q-Chem read-in guess as SCF_GUESS READ specified.

 using 16 threads for integral computing
 -------------------------------------------------------
 OpenMP Integral computing Module                
 Release: version 1.0, May 2013, Q-Chem Inc. Pittsburgh 
 -------------------------------------------------------
 using 16 threads for integral computing
 -------------------------------------------------------
 OpenMP Integral computing Module                
 Release: version 1.0, May 2013, Q-Chem Inc. Pittsburgh 
 -------------------------------------------------------
 -------------------------------------------------------
 OpenMP BLAS3 based DFT computing Module                
 Release: version 1.0, May 2013, Q-Chem Inc. Pittsburgh 
 -------------------------------------------------------
 -------------------------------------------------------
 OpenMP BLAS3 based DFT computing Module                
 Release: version 1.0, May 2013, Q-Chem Inc. Pittsburgh 
 -------------------------------------------------------
 -------------------------------------------------------
 OpenMP BLAS3 based DFT computing Module                
 Release: version 1.0, May 2013, Q-Chem Inc. Pittsburgh 
 -------------------------------------------------------
 ---------------------------------------
  Cycle       Energy         DIIS Error
 ---------------------------------------
    1    -571.5574076234      3.44E-04
    2    -571.8484381674      3.55E-04
    3    -571.8531036159      1.68E-04
    4    -571.8538919070      1.23E-04
    5    -571.8544183329      9.27E-05
    6    -571.8546793267      7.38E-05
    7    -571.8548853454      5.46E-05
    8    -571.8550478108      3.21E-05
    9    -571.8551235897      1.13E-05
   10    -571.8551339337      1.78E-06
   11    -571.8551341819      3.79E-07
   12    -571.8551341930      7.00E-08
   13    -571.8551341933      1.04E-08
   14    -571.8551341933      3.45E-09 Convergence criterion met
 ---------------------------------------

************** Final PCM Free Energy Summary **************
 G_electrostatic  =      -0.29771293 hartree =    -186.81768625 kcal/mol
 G_cavitation     =       0.00000000 hartree =       0.00000000 kcal/mol
 G_dispersion     =       0.00000000 hartree =       0.00000000 kcal/mol
 G_repulsion      =       0.00000000 hartree =       0.00000000 kcal/mol
 --------------------------------------------------
 Non-electrostatic Free Energy =       0.00000000 hartree =       0.00000000 kcal/mol
 Total                         =      -0.29771293 hartree =    -186.81768625 kcal/mol
 --------------------------------------------------
 SCF Energy (H0 + V/2)                       =    -571.85513419 
 Solute Internal Energy (H0)                 =    -571.55742126 
 Total Free Energy (H0 + V/2 + non-elec)     =    -571.85513419 hartree
                                             = -358844.51274629 kcal/mol
***********************************************************

 SCF time:  CPU 3179.96 s  wall 229.97 s
 SCF   energy in the final basis set = -571.85513419
 Total energy in the final basis set = -571.85513419
 
 --------------------------------------------------------------
 
                    Orbital Energies (a.u.)
 --------------------------------------------------------------
 
 Alpha MOs
 -- Occupied --
-19.189 -19.151 -19.147 -19.140 -19.138 -10.350 -10.342 -10.298
-10.251 -10.242  -1.156  -1.143  -1.128  -1.058  -1.048  -0.873
 -0.832  -0.746  -0.619  -0.605  -0.603  -0.561  -0.542  -0.532
 -0.529  -0.528  -0.523  -0.507  -0.498  -0.474  -0.456  -0.447
 -0.430  -0.369  -0.356  -0.348  -0.341  -0.339  -0.338  -0.330
 -- Virtual --
  0.058   0.072   0.076   0.085   0.099   0.100   0.107   0.113
  0.120   0.132   0.134   0.141   0.146   0.147   0.153   0.155
  0.166   0.171   0.177   0.182   0.191   0.195   0.203   0.217
  0.219   0.226   0.228   0.236   0.242   0.248   0.256   0.260
  0.270   0.282   0.283   0.301   0.308   0.311   0.315   0.321
  0.324   0.327   0.337   0.341   0.350   0.355   0.363   0.363
  0.367   0.368   0.373   0.381   0.384   0.395   0.397   0.401
  0.409   0.414   0.422   0.427   0.429   0.441   0.449   0.451
  0.455   0.467   0.472   0.477   0.483   0.487   0.490   0.495
  0.503   0.506   0.507   0.516   0.520   0.530   0.539   0.543
  0.545   0.551   0.556   0.564   0.574   0.577   0.582   0.583
  0.589   0.596   0.606   0.617   0.622   0.625   0.629   0.634
  0.642   0.649   0.654   0.657   0.664   0.673   0.678   0.687
  0.699   0.703   0.711   0.718   0.721   0.732   0.739   0.743
  0.753   0.757   0.767   0.774   0.777   0.782   0.788   0.789
  0.802   0.811   0.811   0.817   0.830   0.834   0.839   0.852
  0.864   0.873   0.876   0.882   0.888   0.895   0.914   0.924
  0.929   0.936   0.946   0.962   0.967   0.977   0.986   0.994
  1.006   1.023   1.037   1.058   1.066   1.071   1.084   1.091
  1.096   1.115   1.122   1.127   1.135   1.163   1.167   1.188
  1.195   1.208   1.218   1.229   1.238   1.248   1.270   1.298
  1.304   1.321   1.336   1.344   1.362   1.372   1.385   1.394
  1.399   1.414   1.431   1.453   1.461   1.467   1.483   1.520
  1.559   1.593   1.606   1.627   1.653   1.700   1.799   1.804
  1.843   1.865   1.884   1.892   1.896   1.912   1.922   1.937
  1.940   1.959   1.962   1.970   1.982   1.991   1.998   2.007
  2.017   2.029   2.031   2.037   2.075   2.087   2.104   2.124
  2.136   2.181   2.199   2.203   2.227   2.232   2.253   2.255
  2.281   2.297   2.332   2.347   2.361   2.370   2.374   2.382
  2.432   2.446   2.459   2.479   2.486   2.493   2.501   2.505
  2.523   2.549   2.602   2.634   2.645   2.659   2.674   2.692
  2.699   2.720   2.728   2.756   2.788   2.798   2.824   2.860
  2.876   2.888   2.915   2.922   2.932   2.950   2.968   2.992
  3.011   3.031   3.042   3.061   3.105   3.154   3.161   3.175
  3.210   3.223   3.235   3.263   3.282   3.288   3.304   3.321
  3.339   3.353   3.364   3.378   3.391   3.399   3.421   3.427
  3.442   3.448   3.451   3.459   3.485   3.511   3.529   3.557
  3.569   3.578   3.595   3.604   3.626   3.634   3.648   3.652
  3.666   3.680   3.690   3.700   3.727   3.733   3.747   3.753
  3.765   3.795   3.814   3.817   3.864   3.914   3.926   3.942
  4.058   4.085   4.100   4.127   4.160   4.192   4.222   4.232
  4.303   4.355   4.381   4.416   4.555   4.592   4.632   4.654
  4.674   4.739   4.786   4.815   4.835   4.852   4.877   4.879
  5.013   5.083   5.127   5.312   5.319   5.349   5.351   5.360
  5.362   5.365   5.400   5.446   5.491   5.498   5.568   5.624
  5.702   5.706   5.710   5.717   5.770   5.774   5.890   5.935
  5.987   5.991   6.169   6.232   6.258   6.296   6.305   6.318
  6.339   6.427   6.608   6.616   6.629   6.638   6.714   6.722
  6.730   6.750   6.753   6.767   6.818   6.930   6.937   6.944
  6.968   6.982   7.000   7.041   7.052   7.219   7.222   7.253
  7.348   7.368   7.371   7.372   7.409   7.415   7.498  22.659
 22.761  22.854  23.694  23.722  44.304  44.380  44.403  44.424
 44.441
 --------------------------------------------------------------
 
          Ground-State Mulliken Net Atomic Charges

     Atom                 Charge (a.u.)
  ----------------------------------------
      1 C                     0.185247
      2 C                     0.139271
      3 O                    -0.759600
      4 O                    -0.688213
      5 C                    -0.209203
      6 H                     0.162932
      7 H                     0.032391
      8 O                    -0.709758
      9 H                     0.159580
     10 H                     0.119008
     11 C                     0.437534
     12 C                    -0.517383
     13 H                     0.220767
     14 H                     0.205498
     15 H                     0.114926
     16 O                    -0.717611
     17 O                    -0.545738
     18 H                     0.370351
  ----------------------------------------
  Sum of atomic charges =    -2.000000

 -----------------------------------------------------------------
                    Cartesian Multipole Moments
 -----------------------------------------------------------------
    Charge (ESU x 10^10)
                -9.6064
    Dipole Moment (Debye)
         X       5.6892      Y      -8.5453      Z      -6.8061
       Tot      12.3172
    Quadrupole Moments (Debye-Ang)
        XX    -120.9295     XY     -20.6640     YY    -127.8669
        XZ       4.2368     YZ      -0.9918     ZZ     -70.9938
    Octopole Moments (Debye-Ang^2)
       XXX      80.8683    XXY     -23.0553    XYY      -0.4969
       YYY    -234.5752    XXZ     -35.9465    XYZ     -26.8497
       YYZ     -69.5795    XZZ      17.0770    YZZ     -18.4914
       ZZZ     -50.8460
    Hexadecapole Moments (Debye-Ang^3)
      XXXX   -1801.2670   XXXY    -488.8880   XXYY    -602.8566
      XYYY    -521.1090   YYYY   -2293.2178   XXXZ     -57.9906
      XXYZ     -27.4294   XYYZ     -18.4387   YYYZ    -188.4328
      XXZZ    -300.7763   XYZZ    -153.4067   YYZZ    -353.5846
      XZZZ     -50.5121   YZZZ     -99.6197   ZZZZ    -288.9798
 -----------------------------------------------------------------
 Calculating analytic gradient of the SCF energy
 Gradient of SCF Energy
            1           2           3           4           5           6
    1  -0.0302035  -0.0345738  -0.0418762   0.0377122  -0.0408754  -0.0011844
    2  -0.0151839   0.0486674  -0.0039041  -0.0451181  -0.0690797  -0.0097521
    3  -0.0548948   0.0150754  -0.0093272  -0.0021191   0.0723120   0.0532075
            7           8           9          10          11          12
    1   0.0626955  -0.0107133   0.0080932   0.0226829  -0.0441843   0.0596167
    2   0.0223727   0.0202748   0.0069724   0.0646306   0.0387362  -0.0223202
    3  -0.0191702  -0.0551909  -0.0740827   0.0335626   0.0698896  -0.0736854
           13          14          15          16          17          18
    1   0.0458043  -0.0505142  -0.0372001   0.0449020   0.0278263  -0.0180079
    2   0.0234972   0.0488692  -0.0629806  -0.0352128   0.0439066  -0.0543755
    3   0.0498105  -0.0117109   0.0313278  -0.0080229   0.0034280  -0.0204092
 Max gradient component =       7.408E-02
 RMS gradient           =       4.122E-02
 Computing fast CPCM-ISWIG gradient
 Updating gradient with PCM contributions...
 -- total gradient after adding PCM contribution --
---------------------------------------------------
  Atom         X              Y              Z     
---------------------------------------------------
   1       0.001112       0.000020      -0.000043
   2      -0.000149      -0.000052      -0.000005
   3      -0.000052      -0.000068      -0.000034
   4       0.000002       0.000070       0.000012
   5      -0.000220       0.000086      -0.000059
   6      -0.000086       0.000001      -0.000001
   7      -0.000530      -0.000087       0.000144
   8      -0.000005       0.000004      -0.000007
   9       0.000000       0.000004      -0.000002
  10       0.000014      -0.000011       0.000008
  11       0.000003      -0.000013       0.000010
  12       0.000009       0.000004      -0.000002
  13       0.000001       0.000003      -0.000003
  14      -0.000003      -0.000001      -0.000002
  15      -0.000000      -0.000003      -0.000001
  16      -0.000000       0.000002      -0.000004
  17      -0.000089       0.000040      -0.000012
  18      -0.000006      -0.000001       0.000001
---------------------------------------------------
 Number of fixed atoms: 0
 Gradient time:  CPU 756.89 s  wall 56.41 s
 ----------------------------------------------------------------
             Standard Nuclear Orientation (Angstroms)
    I     Atom           X                Y                Z
 ----------------------------------------------------------------
    1      C       0.3848673364     1.1444507253     0.0931625737
    2      C       0.7479832851     2.5849591028     0.4853677126
    3      O       1.9661180698     2.8286165162     0.7424118058
    4      O      -0.1731973909     3.4331060099     0.4969938468
    5      C       1.3462786922     0.0916854964     0.6331551083
    6      H       0.3796168295     1.1030963116    -1.0042757755
    7      H      -0.6333906105     0.9287665114     0.4264264133
    8      O      -1.7900894399    -2.0735425675     1.1399082494
    9      H       1.3015147371     0.0809648318     1.7326588541
   10      H       1.0557435998    -0.9022571484     0.2800700329
   11      C      -2.1484099789    -1.5316373333     0.0613362249
   12      C      -1.4359220873    -1.9529926247    -1.2264901148
   13      H      -2.1719210596    -2.2957706470    -1.9597029076
   14      H      -0.7060884972    -2.7442105192    -1.0461620168
   15      H      -0.9263823780    -1.0852284445    -1.6571919820
   16      O      -3.0503207331    -0.6586583559    -0.0519885047
   17      O       2.6843484763     0.3281381718     0.2012204409
   18      H       2.7888429166     1.2914996857     0.3626021976
 ----------------------------------------------------------------
 Nuclear Repulsion Energy =   508.3807446643 hartrees
 There are       40 alpha and       40 beta electrons
 Discretize the solute cavity surface with Lebedev spheres
	Using 110 Lebedev grid points for each H atom
	Using 110 Lebedev grid points for other atoms
	Atomic van der Waals radii will be scaled by 1.20
 Remove points where switching function is < 1.0e-08
 Keep 1143 surface tesserae and discard 837 interior tesserae
 Molecular Surface Area = 207.397 Angst**2
 Requested basis set is def2-TZVPD
 There are 175 shells and 457 basis functions
 A cutoff of  1.0D-14 yielded  13673 shell pairs
 There are     92781 function pairs (    117661 Cartesian)
 Smallest overlap matrix eigenvalue = 4.90E-06
 Guess MOs from SCF MO coefficient file
 Reading MOs from coefficient file
 Reading MOs from coefficient file
 Long-range K will be added via erf
 Coulomb attenuation parameter = 0.3 bohr**(-1)
 A restricted hybrid HF-DFT SCF calculation will be
 performed using Pulay DIIS extrapolation
 Polarizable Continuum solvation model will be applied
 Exchange:     0.1670 Hartree-Fock + 1.0000 wB97X-V + LR-HF
 Correlation:  1.0000 wB97X-V
 Using SG-2 standard quadrature grid
 Nonlocal Correlation:  VV10 with C = 0.0100 and b = 6.00
 Grid used for NLC:  SG-1 standard quadrature
 SCF converges when DIIS error is below 1.0E-08
Using Q-Chem read-in guess as SCF_GUESS READ specified.

 using 16 threads for integral computing
 -------------------------------------------------------
 OpenMP Integral computing Module                
 Release: version 1.0, May 2013, Q-Chem Inc. Pittsburgh 
 -------------------------------------------------------
 using 16 threads for integral computing
 -------------------------------------------------------
 OpenMP Integral computing Module                
 Release: version 1.0, May 2013, Q-Chem Inc. Pittsburgh 
 -------------------------------------------------------
 -------------------------------------------------------
 OpenMP BLAS3 based DFT computing Module                
 Release: version 1.0, May 2013, Q-Chem Inc. Pittsburgh 
 -------------------------------------------------------
 -------------------------------------------------------
 OpenMP BLAS3 based DFT computing Module                
 Release: version 1.0, May 2013, Q-Chem Inc. Pittsburgh 
 -------------------------------------------------------
 -------------------------------------------------------
 OpenMP BLAS3 based DFT computing Module                
 Release: version 1.0, May 2013, Q-Chem Inc. Pittsburgh 
 -------------------------------------------------------
 ---------------------------------------
  Cycle       Energy         DIIS Error
 ---------------------------------------
    1    -571.5574628644      3.46E-04
    2    -571.8484190331      3.56E-04
    3    -571.8531047741      1.68E-04
    4    -571.8538978841      1.23E-04
    5    -571.8544453378      9.09E-05
    6    -571.8547441748      6.84E-05
    7    -571.8549876152      4.19E-05
    8    -571.8551122149      1.61E-05
    9    -571.8551334071      3.12E-06
   10    -571.8551342206      2.82E-07
   11    -571.8551342268      7.90E-08
   12    -571.8551342270      1.98E-08
   13    -571.8551342270      1.04E-08
   14    -571.8551342270      3.85E-09 Convergence criterion met
 ---------------------------------------

************** Final PCM Free Energy Summary **************
 G_electrostatic  =      -0.29770284 hartree =    -186.81135250 kcal/mol
 G_cavitation     =       0.00000000 hartree =       0.00000000 kcal/mol
 G_dispersion     =       0.00000000 hartree =       0.00000000 kcal/mol
 G_repulsion      =       0.00000000 hartree =       0.00000000 kcal/mol
 --------------------------------------------------
 Non-electrostatic Free Energy =       0.00000000 hartree =       0.00000000 kcal/mol
 Total                         =      -0.29770284 hartree =    -186.81135250 kcal/mol
 --------------------------------------------------
 SCF Energy (H0 + V/2)                       =    -571.85513423 
 Solute Internal Energy (H0)                 =    -571.55743139 
 Total Free Energy (H0 + V/2 + non-elec)     =    -571.85513423 hartree
                                             = -358844.51276744 kcal/mol
***********************************************************

 SCF time:  CPU 3174.47 s  wall 229.67 s
 SCF   energy in the final basis set = -571.85513423
 Total energy in the final basis set = -571.85513423
 
 --------------------------------------------------------------
 
                    Orbital Energies (a.u.)
 --------------------------------------------------------------
 
 Alpha MOs
 -- Occupied --
-19.189 -19.151 -19.147 -19.140 -19.138 -10.350 -10.342 -10.298
-10.251 -10.242  -1.156  -1.143  -1.128  -1.058  -1.048  -0.873
 -0.832  -0.746  -0.619  -0.605  -0.603  -0.561  -0.542  -0.532
 -0.529  -0.528  -0.523  -0.507  -0.498  -0.474  -0.456  -0.447
 -0.430  -0.369  -0.356  -0.348  -0.341  -0.338  -0.338  -0.330
 -- Virtual --
  0.058   0.072   0.076   0.085   0.099   0.100   0.107   0.113
  0.120   0.132   0.134   0.141   0.146   0.147   0.153   0.155
  0.166   0.171   0.177   0.182   0.191   0.195   0.203   0.217
  0.219   0.226   0.228   0.236   0.242   0.248   0.256   0.260
  0.270   0.282   0.283   0.301   0.308   0.311   0.315   0.321
  0.324   0.327   0.337   0.341   0.350   0.355   0.363   0.363
  0.367   0.368   0.373   0.381   0.384   0.395   0.397   0.401
  0.409   0.414   0.423   0.427   0.429   0.441   0.449   0.451
  0.455   0.467   0.472   0.477   0.483   0.487   0.490   0.495
  0.503   0.507   0.507   0.516   0.520   0.530   0.539   0.543
  0.545   0.551   0.556   0.564   0.574   0.577   0.582   0.583
  0.589   0.596   0.606   0.617   0.622   0.625   0.629   0.634
  0.642   0.649   0.654   0.657   0.664   0.673   0.678   0.687
  0.699   0.703   0.711   0.718   0.721   0.732   0.739   0.743
  0.753   0.757   0.767   0.774   0.777   0.782   0.788   0.789
  0.802   0.811   0.811   0.817   0.830   0.834   0.839   0.852
  0.864   0.873   0.876   0.882   0.888   0.895   0.914   0.924
  0.929   0.936   0.946   0.962   0.967   0.977   0.986   0.994
  1.006   1.023   1.037   1.058   1.066   1.071   1.084   1.091
  1.096   1.115   1.122   1.126   1.135   1.164   1.167   1.188
  1.195   1.208   1.218   1.229   1.238   1.248   1.270   1.297
  1.303   1.321   1.336   1.344   1.362   1.372   1.385   1.394
  1.399   1.414   1.431   1.453   1.461   1.467   1.483   1.519
  1.559   1.593   1.605   1.627   1.653   1.700   1.799   1.804
  1.843   1.866   1.884   1.892   1.896   1.912   1.922   1.937
  1.940   1.958   1.962   1.970   1.982   1.991   1.998   2.007
  2.017   2.029   2.031   2.037   2.075   2.087   2.104   2.124
  2.136   2.181   2.199   2.203   2.227   2.232   2.253   2.255
  2.281   2.296   2.332   2.347   2.361   2.370   2.374   2.382
  2.432   2.446   2.459   2.479   2.486   2.493   2.501   2.505
  2.523   2.549   2.602   2.634   2.645   2.660   2.674   2.692
  2.699   2.720   2.728   2.755   2.787   2.798   2.824   2.860
  2.876   2.888   2.915   2.922   2.932   2.950   2.968   2.992
  3.010   3.031   3.042   3.061   3.105   3.155   3.161   3.175
  3.210   3.223   3.235   3.263   3.282   3.288   3.304   3.321
  3.339   3.353   3.363   3.379   3.391   3.400   3.421   3.427
  3.442   3.448   3.450   3.459   3.484   3.510   3.529   3.556
  3.568   3.578   3.595   3.604   3.626   3.634   3.648   3.652
  3.666   3.680   3.689   3.700   3.727   3.733   3.746   3.753
  3.765   3.794   3.814   3.817   3.863   3.914   3.926   3.942
  4.058   4.084   4.100   4.127   4.160   4.192   4.222   4.231
  4.303   4.355   4.381   4.415   4.555   4.591   4.632   4.653
  4.674   4.739   4.787   4.814   4.835   4.852   4.877   4.879
  5.013   5.083   5.127   5.312   5.319   5.349   5.351   5.360
  5.363   5.365   5.400   5.446   5.491   5.498   5.568   5.623
  5.702   5.706   5.709   5.717   5.770   5.774   5.889   5.935
  5.987   5.991   6.169   6.232   6.258   6.296   6.305   6.318
  6.339   6.427   6.608   6.616   6.629   6.638   6.713   6.722
  6.730   6.750   6.753   6.767   6.818   6.930   6.937   6.944
  6.968   6.982   7.000   7.041   7.052   7.219   7.222   7.253
  7.348   7.368   7.371   7.372   7.409   7.415   7.498  22.659
 22.761  22.855  23.694  23.722  44.304  44.380  44.403  44.423
 44.441
 --------------------------------------------------------------
 
          Ground-State Mulliken Net Atomic Charges

     Atom                 Charge (a.u.)
  ----------------------------------------
      1 C                     0.184070
      2 C                     0.139350
      3 O                    -0.759530
      4 O                    -0.688171
      5 C                    -0.209274
      6 H                     0.162793
      7 H                     0.033328
      8 O                    -0.709753
      9 H                     0.159968
     10 H                     0.118829
     11 C                     0.437543
     12 C                    -0.517356
     13 H                     0.220771
     14 H                     0.205513
     15 H                     0.114899
     16 O                    -0.717619
     17 O                    -0.545611
     18 H                     0.370250
  ----------------------------------------
  Sum of atomic charges =    -2.000000

 -----------------------------------------------------------------
                    Cartesian Multipole Moments
 -----------------------------------------------------------------
    Charge (ESU x 10^10)
                -9.6064
    Dipole Moment (Debye)
         X       5.6896      Y      -8.5446      Z      -6.8056
       Tot      12.3166
    Quadrupole Moments (Debye-Ang)
        XX    -120.9209     XY     -20.6595     YY    -127.8703
        XZ       4.2353     YZ      -0.9900     ZZ     -70.9938
    Octopole Moments (Debye-Ang^2)
       XXX      80.9202    XXY     -23.0427    XYY      -0.4754
       YYY    -234.5904    XXZ     -35.9427    XYZ     -26.8463
       YYZ     -69.5776    XZZ      17.0867    YZZ     -18.4895
       ZZZ     -50.8456
    Hexadecapole Moments (Debye-Ang^3)
      XXXX   -1801.1167   XXXY    -488.8248   XXYY    -602.8138
      XYYY    -521.0177   YYYY   -2293.3205   XXXZ     -57.9765
      XXYZ     -27.4172   XYYZ     -18.4246   YYYZ    -188.4284
      XXZZ    -300.7613   XYZZ    -153.3873   YYZZ    -353.5843
      XZZZ     -50.5155   YZZZ     -99.6146   ZZZZ    -288.9819
 -----------------------------------------------------------------
 Calculating analytic gradient of the SCF energy
 Gradient of SCF Energy
            1           2           3           4           5           6
    1  -0.0321608  -0.0341913  -0.0418541   0.0376772  -0.0403719  -0.0012026
    2  -0.0153285   0.0487163  -0.0038455  -0.0451596  -0.0695259  -0.0097360
    3  -0.0545854   0.0151031  -0.0092858  -0.0021205   0.0723825   0.0532120
            7           8           9          10          11          12
    1   0.0637787  -0.0107083   0.0080457   0.0226190  -0.0441866   0.0596176
    2   0.0227795   0.0202720   0.0070547   0.0646949   0.0387465  -0.0223366
    3  -0.0195837  -0.0551907  -0.0741415   0.0334844   0.0698946  -0.0736916
           13          14          15          16          17          18
    1   0.0458057  -0.0505157  -0.0372061   0.0449008   0.0279200  -0.0179672
    2   0.0234956   0.0488771  -0.0629899  -0.0352090   0.0438411  -0.0543468
    3   0.0498088  -0.0117122   0.0313302  -0.0080232   0.0034787  -0.0203596
 Max gradient component =       7.414E-02
 RMS gradient           =       4.128E-02
 Computing fast CPCM-ISWIG gradient
 Updating gradient with PCM contributions...
 -- total gradient after adding PCM contribution --
---------------------------------------------------
  Atom         X              Y              Z     
---------------------------------------------------
   1      -0.001096      -0.000015       0.000062
   2       0.000164       0.000041       0.000010
   3       0.000038       0.000070       0.000035
   4      -0.000005      -0.000064      -0.000012
   5       0.000227      -0.000076       0.000052
   6       0.000079      -0.000001      -0.000001
   7       0.000530       0.000088      -0.000155
   8      -0.000005       0.000004      -0.000007
   9      -0.000002      -0.000003       0.000003
  10      -0.000013       0.000009      -0.000004
  11       0.000004      -0.000011       0.000010
  12       0.000009       0.000004      -0.000001
  13       0.000001       0.000003      -0.000003
  14      -0.000003      -0.000002      -0.000002
  15       0.000000      -0.000002      -0.000001
  16      -0.000001       0.000001      -0.000004
  17       0.000076      -0.000039       0.000017
  18      -0.000003      -0.000007       0.000001
---------------------------------------------------
 Number of fixed atoms: 0
 Gradient time:  CPU 764.03 s  wall 56.78 s
 ----------------------------------------------------------------
             Standard Nuclear Orientation (Angstroms)
    I     Atom           X                Y                Z
 ----------------------------------------------------------------
    1      C       0.3858673364     1.1454507253     0.0931625737
    2      C       0.7479832851     2.5849591028     0.4853677126
    3      O       1.9661180698     2.8286165162     0.7424118058
    4      O      -0.1731973909     3.4331060099     0.4969938468
    5      C       1.3462786922     0.0916854964     0.6331551083
    6      H       0.3796168295     1.1030963116    -1.0042757755
    7      H      -0.6333906105     0.9287665114     0.4264264133
    8      O      -1.7900894399    -2.0735425675     1.1399082494
    9      H       1.3015147371     0.0809648318     1.7326588541
   10      H       1.0557435998    -0.9022571484     0.2800700329
   11      C      -2.1484099789    -1.5316373333     0.0613362249
   12      C      -1.4359220873    -1.9529926247    -1.2264901148
   13      H      -2.1719210596    -2.2957706470    -1.9597029076
   14      H      -0.7060884972    -2.7442105192    -1.0461620168
   15      H      -0.9263823780    -1.0852284445    -1.6571919820
   16      O      -3.0503207331    -0.6586583559    -0.0519885047
   17      O       2.6843484763     0.3281381718     0.2012204409
   18      H       2.7888429166     1.2914996857     0.3626021976
 ----------------------------------------------------------------
 Nuclear Repulsion Energy =   508.3897237588 hartrees
 There are       40 alpha and       40 beta electrons
 Discretize the solute cavity surface with Lebedev spheres
	Using 110 Lebedev grid points for each H atom
	Using 110 Lebedev grid points for other atoms
	Atomic van der Waals radii will be scaled by 1.20
 Remove points where switching function is < 1.0e-08
 Keep 1143 surface tesserae and discard 837 interior tesserae
 Molecular Surface Area = 207.405 Angst**2
 Requested basis set is def2-TZVPD
 There are 175 shells and 457 basis functions
 A cutoff of  1.0D-14 yielded  13673 shell pairs
 There are     92781 function pairs (    117661 Cartesian)
 Smallest overlap matrix eigenvalue = 4.90E-06
 Guess MOs from SCF MO coefficient file
 Reading MOs from coefficient file
 Reading MOs from coefficient file
 Long-range K will be added via erf
 Coulomb attenuation parameter = 0.3 bohr**(-1)
 A restricted hybrid HF-DFT SCF calculation will be
 performed using Pulay DIIS extrapolation
 Polarizable Continuum solvation model will be applied
 Exchange:     0.1670 Hartree-Fock + 1.0000 wB97X-V + LR-HF
 Correlation:  1.0000 wB97X-V
 Using SG-2 standard quadrature grid
 Nonlocal Correlation:  VV10 with C = 0.0100 and b = 6.00
 Grid used for NLC:  SG-1 standard quadrature
 SCF converges when DIIS error is below 1.0E-08
Using Q-Chem read-in guess as SCF_GUESS READ specified.

 using 16 threads for integral computing
 -------------------------------------------------------
 OpenMP Integral computing Module                
 Release: version 1.0, May 2013, Q-Chem Inc. Pittsburgh 
 -------------------------------------------------------
 using 16 threads for integral computing
 -------------------------------------------------------
 OpenMP Integral computing Module                
 Release: version 1.0, May 2013, Q-Chem Inc. Pittsburgh 
 -------------------------------------------------------
 -------------------------------------------------------
 OpenMP BLAS3 based DFT computing Module                
 Release: version 1.0, May 2013, Q-Chem Inc. Pittsburgh 
 -------------------------------------------------------
 -------------------------------------------------------
 OpenMP BLAS3 based DFT computing Module                
 Release: version 1.0, May 2013, Q-Chem Inc. Pittsburgh 
 -------------------------------------------------------
 -------------------------------------------------------
 OpenMP BLAS3 based DFT computing Module                
 Release: version 1.0, May 2013, Q-Chem Inc. Pittsburgh 
 -------------------------------------------------------
 ---------------------------------------
  Cycle       Energy         DIIS Error
 ---------------------------------------
    1    -571.5571624236      3.44E-04
    2    -571.8484461310      3.55E-04
    3    -571.8531068226      1.68E-04
    4    -571.8538946430      1.23E-04
    5    -571.8544262413      9.22E-05
    6    -571.8546998899      7.21E-05
    7    -571.8549270615      4.98E-05
    8    -571.8550835893      2.46E-05
    9    -571.8551310084      6.38E-06
   10    -571.8551343628      7.54E-07
   11    -571.8551344078      1.55E-07
   12    -571.8551344095      2.81E-08
   13    -571.8551344095      1.01E-08
   14    -571.8551344095      3.74E-09 Convergence criterion met
 ---------------------------------------

************** Final PCM Free Energy Summary **************
 G_electrostatic  =      -0.29771284 hartree =    -186.81762500 kcal/mol
 G_cavitation     =       0.00000000 hartree =       0.00000000 kcal/mol
 G_dispersion     =       0.00000000 hartree =       0.00000000 kcal/mol
 G_repulsion      =       0.00000000 hartree =       0.00000000 kcal/mol
 --------------------------------------------------
 Non-electrostatic Free Energy =       0.00000000 hartree =       0.00000000 kcal/mol
 Total                         =      -0.29771284 hartree =    -186.81762500 kcal/mol
 --------------------------------------------------
 SCF Energy (H0 + V/2)                       =    -571.85513441 
 Solute Internal Energy (H0)                 =    -571.55742157 
 Total Free Energy (H0 + V/2 + non-elec)     =    -571.85513441 hartree
                                             = -358844.51288195 kcal/mol
***********************************************************

 SCF time:  CPU 3169.48 s  wall 229.35 s
 SCF   energy in the final basis set = -571.85513441
 Total energy in the final basis set = -571.85513441
 
 --------------------------------------------------------------
 
                    Orbital Energies (a.u.)
 --------------------------------------------------------------
 
 Alpha MOs
 -- Occupied --
-19.189 -19.151 -19.147 -19.140 -19.138 -10.350 -10.342 -10.298
-10.251 -10.242  -1.156  -1.143  -1.128  -1.058  -1.048  -0.873
 -0.832  -0.746  -0.619  -0.605  -0.603  -0.561  -0.542  -0.532
 -0.529  -0.528  -0.523  -0.507  -0.498  -0.474  -0.456  -0.447
 -0.430  -0.369  -0.356  -0.348  -0.341  -0.339  -0.338  -0.330
 -- Virtual --
  0.058   0.072   0.076   0.085   0.099   0.100   0.107   0.113
  0.120   0.132   0.134   0.141   0.146   0.147   0.153   0.155
  0.166   0.171   0.177   0.182   0.191   0.195   0.203   0.217
  0.219   0.226   0.228   0.236   0.242   0.248   0.256   0.260
  0.270   0.282   0.283   0.301   0.309   0.311   0.315   0.321
  0.324   0.327   0.337   0.341   0.350   0.355   0.363   0.363
  0.367   0.368   0.373   0.381   0.384   0.395   0.397   0.401
  0.409   0.414   0.423   0.427   0.429   0.441   0.449   0.451
  0.455   0.467   0.472   0.477   0.483   0.487   0.490   0.495
  0.503   0.506   0.507   0.516   0.520   0.530   0.539   0.543
  0.545   0.551   0.556   0.564   0.574   0.577   0.582   0.583
  0.589   0.596   0.606   0.617   0.622   0.625   0.629   0.634
  0.642   0.649   0.654   0.657   0.664   0.673   0.678   0.687
  0.699   0.703   0.711   0.718   0.721   0.732   0.739   0.743
  0.753   0.757   0.767   0.774   0.777   0.782   0.788   0.789
  0.802   0.811   0.811   0.817   0.830   0.834   0.839   0.852
  0.864   0.873   0.876   0.882   0.887   0.895   0.914   0.924
  0.929   0.936   0.946   0.962   0.967   0.977   0.986   0.994
  1.006   1.023   1.037   1.058   1.066   1.071   1.084   1.091
  1.096   1.115   1.122   1.127   1.135   1.164   1.167   1.188
  1.195   1.208   1.218   1.229   1.238   1.248   1.270   1.298
  1.304   1.321   1.336   1.344   1.362   1.373   1.385   1.394
  1.399   1.414   1.431   1.453   1.461   1.467   1.483   1.519
  1.559   1.593   1.606   1.627   1.653   1.700   1.799   1.804
  1.843   1.865   1.884   1.892   1.896   1.912   1.922   1.937
  1.940   1.959   1.962   1.970   1.982   1.991   1.998   2.007
  2.017   2.029   2.031   2.037   2.075   2.087   2.104   2.124
  2.136   2.181   2.199   2.203   2.227   2.232   2.253   2.255
  2.281   2.297   2.332   2.347   2.361   2.369   2.374   2.382
  2.432   2.446   2.459   2.479   2.486   2.493   2.501   2.505
  2.523   2.549   2.602   2.634   2.645   2.660   2.674   2.692
  2.699   2.720   2.728   2.756   2.787   2.798   2.824   2.860
  2.876   2.888   2.915   2.922   2.932   2.950   2.968   2.992
  3.011   3.031   3.042   3.061   3.105   3.154   3.161   3.175
  3.210   3.223   3.235   3.263   3.282   3.288   3.304   3.321
  3.339   3.352   3.364   3.378   3.391   3.399   3.421   3.427
  3.442   3.448   3.451   3.459   3.485   3.510   3.529   3.557
  3.568   3.578   3.595   3.604   3.626   3.634   3.648   3.652
  3.666   3.680   3.689   3.700   3.727   3.733   3.746   3.753
  3.765   3.794   3.814   3.817   3.864   3.914   3.926   3.942
  4.058   4.084   4.100   4.127   4.160   4.192   4.222   4.232
  4.303   4.355   4.381   4.415   4.555   4.592   4.632   4.653
  4.674   4.739   4.786   4.815   4.835   4.852   4.877   4.879
  5.013   5.083   5.127   5.312   5.319   5.349   5.351   5.360
  5.363   5.365   5.400   5.446   5.491   5.498   5.568   5.623
  5.702   5.706   5.710   5.717   5.770   5.774   5.889   5.934
  5.987   5.992   6.169   6.232   6.258   6.296   6.305   6.318
  6.339   6.427   6.608   6.616   6.629   6.638   6.714   6.722
  6.730   6.750   6.753   6.767   6.818   6.930   6.937   6.944
  6.968   6.982   7.000   7.041   7.052   7.219   7.222   7.253
  7.348   7.368   7.371   7.372   7.409   7.415   7.498  22.659
 22.761  22.854  23.694  23.723  44.304  44.380  44.403  44.423
 44.441
 --------------------------------------------------------------
 
          Ground-State Mulliken Net Atomic Charges

     Atom                 Charge (a.u.)
  ----------------------------------------
      1 C                     0.185438
      2 C                     0.139057
      3 O                    -0.759639
      4 O                    -0.688232
      5 C                    -0.209927
      6 H                     0.162795
      7 H                     0.032886
      8 O                    -0.709753
      9 H                     0.159826
     10 H                     0.119179
     11 C                     0.437472
     12 C                    -0.517262
     13 H                     0.220752
     14 H                     0.205503
     15 H                     0.114877
     16 O                    -0.717612
     17 O                    -0.545652
     18 H                     0.370294
  ----------------------------------------
  Sum of atomic charges =    -2.000000

 -----------------------------------------------------------------
                    Cartesian Multipole Moments
 -----------------------------------------------------------------
    Charge (ESU x 10^10)
                -9.6064
    Dipole Moment (Debye)
         X       5.6895      Y      -8.5466      Z      -6.8065
       Tot      12.3184
    Quadrupole Moments (Debye-Ang)
        XX    -120.9264     XY     -20.6617     YY    -127.8729
        XZ       4.2358     YZ      -0.9920     ZZ     -70.9940
    Octopole Moments (Debye-Ang^2)
       XXX      80.8896    XXY     -23.0570    XYY      -0.4849
       YYY    -234.6196    XXZ     -35.9459    XYZ     -26.8488
       YYZ     -69.5826    XZZ      17.0813    YZZ     -18.4971
       ZZZ     -50.8481
    Hexadecapole Moments (Debye-Ang^3)
      XXXX   -1801.2066   XXXY    -488.8626   XXYY    -602.8498
      XYYY    -521.0673   YYYY   -2293.4212   XXXZ     -57.9861
      XXYZ     -27.4265   XYYZ     -18.4330   YYYZ    -188.4512
      XXZZ    -300.7705   XYZZ    -153.3988   YYZZ    -353.6010
      XZZZ     -50.5154   YZZZ     -99.6196   ZZZZ    -288.9834
 -----------------------------------------------------------------
 Calculating analytic gradient of the SCF energy
 Gradient of SCF Energy
            1           2           3           4           5           6
    1  -0.0310134  -0.0344855  -0.0418797   0.0377033  -0.0405966  -0.0011950
    2  -0.0148454   0.0483792  -0.0038757  -0.0451667  -0.0694344  -0.0097120
    3  -0.0547440   0.0151104  -0.0093139  -0.0021358   0.0723077   0.0532022
            7           8           9          10          11          12
    1   0.0631019  -0.0107113   0.0080744   0.0226893  -0.0441785   0.0596060
    2   0.0226238   0.0202746   0.0070104   0.0646395   0.0387454  -0.0223382
    3  -0.0193372  -0.0551880  -0.0741253   0.0335475   0.0698865  -0.0736872
           13          14          15          16          17          18
    1   0.0458021  -0.0505108  -0.0372019   0.0449003   0.0278785  -0.0179830
    2   0.0234958   0.0488755  -0.0629822  -0.0352089   0.0438833  -0.0543640
    3   0.0498078  -0.0117078   0.0313278  -0.0080217   0.0034364  -0.0203654
 Max gradient component =       7.413E-02
 RMS gradient           =       4.124E-02
 Computing fast CPCM-ISWIG gradient
 Updating gradient with PCM contributions...
 -- total gradient after adding PCM contribution --
---------------------------------------------------
  Atom         X              Y              Z     
---------------------------------------------------
   1       0.000028       0.000890      -0.000017
   2      -0.000034      -0.000300      -0.000029
   3      -0.000033      -0.000013      -0.000014
   4       0.000013      -0.000075      -0.000025
   5       0.000098      -0.000277       0.000064
   6      -0.000004      -0.000087      -0.000023
   7      -0.000092      -0.000111       0.000031
   8      -0.000005       0.000004      -0.000007
   9       0.000001       0.000000       0.000000
  10       0.000039      -0.000040       0.000028
  11       0.000004      -0.000012       0.000010
  12       0.000009       0.000004      -0.000002
  13       0.000001       0.000003      -0.000003
  14      -0.000003      -0.000002      -0.000002
  15      -0.000001      -0.000003      -0.000001
  16      -0.000001       0.000001      -0.000004
  17      -0.000015       0.000019      -0.000003
  18      -0.000004      -0.000003      -0.000002
---------------------------------------------------
 Number of fixed atoms: 0
 Gradient time:  CPU 761.32 s  wall 56.62 s
 ----------------------------------------------------------------
             Standard Nuclear Orientation (Angstroms)
    I     Atom           X                Y                Z
 ----------------------------------------------------------------
    1      C       0.3858673364     1.1434507253     0.0931625737
    2      C       0.7479832851     2.5849591028     0.4853677126
    3      O       1.9661180698     2.8286165162     0.7424118058
    4      O      -0.1731973909     3.4331060099     0.4969938468
    5      C       1.3462786922     0.0916854964     0.6331551083
    6      H       0.3796168295     1.1030963116    -1.0042757755
    7      H      -0.6333906105     0.9287665114     0.4264264133
    8      O      -1.7900894399    -2.0735425675     1.1399082494
    9      H       1.3015147371     0.0809648318     1.7326588541
   10      H       1.0557435998    -0.9022571484     0.2800700329
   11      C      -2.1484099789    -1.5316373333     0.0613362249
   12      C      -1.4359220873    -1.9529926247    -1.2264901148
   13      H      -2.1719210596    -2.2957706470    -1.9597029076
   14      H      -0.7060884972    -2.7442105192    -1.0461620168
   15      H      -0.9263823780    -1.0852284445    -1.6571919820
   16      O      -3.0503207331    -0.6586583559    -0.0519885047
   17      O       2.6843484763     0.3281381718     0.2012204409
   18      H       2.7888429166     1.2914996857     0.3626021976
 ----------------------------------------------------------------
 Nuclear Repulsion Energy =   508.3864133776 hartrees
 There are       40 alpha and       40 beta electrons
 Discretize the solute cavity surface with Lebedev spheres
	Using 110 Lebedev grid points for each H atom
	Using 110 Lebedev grid points for other atoms
	Atomic van der Waals radii will be scaled by 1.20
 Remove points where switching function is < 1.0e-08
 Keep 1143 surface tesserae and discard 837 interior tesserae
 Molecular Surface Area = 207.390 Angst**2
 Requested basis set is def2-TZVPD
 There are 175 shells and 457 basis functions
 A cutoff of  1.0D-14 yielded  13673 shell pairs
 There are     92781 function pairs (    117661 Cartesian)
 Smallest overlap matrix eigenvalue = 4.90E-06
 Guess MOs from SCF MO coefficient file
 Reading MOs from coefficient file
 Reading MOs from coefficient file
 Long-range K will be added via erf
 Coulomb attenuation parameter = 0.3 bohr**(-1)
 A restricted hybrid HF-DFT SCF calculation will be
 performed using Pulay DIIS extrapolation
 Polarizable Continuum solvation model will be applied
 Exchange:     0.1670 Hartree-Fock + 1.0000 wB97X-V + LR-HF
 Correlation:  1.0000 wB97X-V
 Using SG-2 standard quadrature grid
 Nonlocal Correlation:  VV10 with C = 0.0100 and b = 6.00
 Grid used for NLC:  SG-1 standard quadrature
 SCF converges when DIIS error is below 1.0E-08
Using Q-Chem read-in guess as SCF_GUESS READ specified.

 using 16 threads for integral computing
 -------------------------------------------------------
 OpenMP Integral computing Module                
 Release: version 1.0, May 2013, Q-Chem Inc. Pittsburgh 
 -------------------------------------------------------
 using 16 threads for integral computing
 -------------------------------------------------------
 OpenMP Integral computing Module                
 Release: version 1.0, May 2013, Q-Chem Inc. Pittsburgh 
 -------------------------------------------------------
 -------------------------------------------------------
 OpenMP BLAS3 based DFT computing Module                
 Release: version 1.0, May 2013, Q-Chem Inc. Pittsburgh 
 -------------------------------------------------------
 -------------------------------------------------------
 OpenMP BLAS3 based DFT computing Module                
 Release: version 1.0, May 2013, Q-Chem Inc. Pittsburgh 
 -------------------------------------------------------
 -------------------------------------------------------
 OpenMP BLAS3 based DFT computing Module                
 Release: version 1.0, May 2013, Q-Chem Inc. Pittsburgh 
 -------------------------------------------------------
 ---------------------------------------
  Cycle       Energy         DIIS Error
 ---------------------------------------
    1    -571.5579318268      3.46E-04
    2    -571.8484175504      3.56E-04
    3    -571.8531046910      1.68E-04
    4    -571.8538984542      1.23E-04
    5    -571.8544445940      9.10E-05
    6    -571.8547437561      6.84E-05
    7    -571.8549895521      4.16E-05
    8    -571.8551130944      1.59E-05
    9    -571.8551336440      3.04E-06
   10    -571.8551344163      2.66E-07
   11    -571.8551344217      8.03E-08
   12    -571.8551344220      1.96E-08
   13    -571.8551344220      1.06E-08
   14    -571.8551344220      3.87E-09 Convergence criterion met
 ---------------------------------------

************** Final PCM Free Energy Summary **************
 G_electrostatic  =      -0.29770293 hartree =    -186.81141099 kcal/mol
 G_cavitation     =       0.00000000 hartree =       0.00000000 kcal/mol
 G_dispersion     =       0.00000000 hartree =       0.00000000 kcal/mol
 G_repulsion      =       0.00000000 hartree =       0.00000000 kcal/mol
 --------------------------------------------------
 Non-electrostatic Free Energy =       0.00000000 hartree =       0.00000000 kcal/mol
 Total                         =      -0.29770293 hartree =    -186.81141099 kcal/mol
 --------------------------------------------------
 SCF Energy (H0 + V/2)                       =    -571.85513442 
 Solute Internal Energy (H0)                 =    -571.55743149 
 Total Free Energy (H0 + V/2 + non-elec)     =    -571.85513442 hartree
                                             = -358844.51288979 kcal/mol
***********************************************************

 SCF time:  CPU 3178.11 s  wall 229.90 s
 SCF   energy in the final basis set = -571.85513442
 Total energy in the final basis set = -571.85513442
 
 --------------------------------------------------------------
 
                    Orbital Energies (a.u.)
 --------------------------------------------------------------
 
 Alpha MOs
 -- Occupied --
-19.189 -19.151 -19.147 -19.140 -19.138 -10.350 -10.342 -10.298
-10.251 -10.242  -1.156  -1.143  -1.128  -1.058  -1.048  -0.873
 -0.832  -0.746  -0.619  -0.605  -0.603  -0.561  -0.542  -0.532
 -0.529  -0.528  -0.523  -0.507  -0.498  -0.474  -0.456  -0.447
 -0.430  -0.369  -0.356  -0.348  -0.341  -0.338  -0.338  -0.330
 -- Virtual --
  0.058   0.072   0.076   0.085   0.099   0.100   0.107   0.113
  0.120   0.132   0.134   0.141   0.146   0.147   0.153   0.155
  0.166   0.171   0.177   0.182   0.191   0.195   0.203   0.217
  0.219   0.226   0.228   0.236   0.242   0.248   0.256   0.260
  0.270   0.282   0.283   0.301   0.308   0.311   0.315   0.321
  0.324   0.327   0.337   0.341   0.350   0.355   0.363   0.363
  0.367   0.368   0.373   0.381   0.384   0.395   0.397   0.401
  0.409   0.414   0.422   0.427   0.429   0.441   0.449   0.451
  0.455   0.467   0.472   0.477   0.483   0.487   0.490   0.495
  0.503   0.507   0.507   0.516   0.520   0.530   0.539   0.543
  0.545   0.551   0.556   0.564   0.574   0.577   0.582   0.583
  0.589   0.596   0.606   0.617   0.622   0.625   0.629   0.634
  0.642   0.649   0.654   0.657   0.664   0.673   0.678   0.687
  0.699   0.703   0.711   0.718   0.721   0.732   0.739   0.743
  0.753   0.757   0.767   0.774   0.777   0.782   0.788   0.789
  0.802   0.811   0.811   0.817   0.830   0.834   0.839   0.852
  0.864   0.873   0.876   0.882   0.888   0.895   0.914   0.924
  0.929   0.936   0.946   0.962   0.967   0.977   0.986   0.994
  1.006   1.023   1.037   1.058   1.066   1.071   1.084   1.091
  1.096   1.115   1.122   1.127   1.135   1.163   1.167   1.188
  1.195   1.208   1.218   1.229   1.238   1.248   1.270   1.297
  1.303   1.321   1.336   1.344   1.362   1.372   1.385   1.394
  1.399   1.414   1.431   1.453   1.461   1.467   1.483   1.520
  1.559   1.593   1.605   1.627   1.653   1.700   1.799   1.804
  1.843   1.866   1.884   1.892   1.896   1.912   1.922   1.937
  1.941   1.959   1.962   1.970   1.982   1.991   1.998   2.007
  2.017   2.029   2.031   2.037   2.075   2.087   2.104   2.124
  2.136   2.181   2.199   2.203   2.227   2.232   2.253   2.255
  2.281   2.297   2.332   2.347   2.361   2.370   2.374   2.382
  2.432   2.446   2.459   2.479   2.486   2.493   2.501   2.505
  2.523   2.549   2.602   2.634   2.644   2.660   2.673   2.692
  2.699   2.720   2.728   2.756   2.788   2.798   2.824   2.860
  2.876   2.888   2.915   2.922   2.932   2.950   2.968   2.992
  3.011   3.031   3.042   3.061   3.105   3.155   3.161   3.175
  3.210   3.223   3.235   3.263   3.282   3.288   3.304   3.321
  3.339   3.353   3.364   3.378   3.391   3.400   3.421   3.427
  3.442   3.448   3.450   3.459   3.484   3.510   3.529   3.556
  3.569   3.578   3.595   3.604   3.626   3.634   3.648   3.652
  3.666   3.680   3.690   3.700   3.727   3.733   3.747   3.753
  3.764   3.794   3.814   3.817   3.863   3.914   3.926   3.942
  4.058   4.084   4.100   4.127   4.160   4.192   4.222   4.232
  4.303   4.355   4.381   4.415   4.555   4.592   4.632   4.654
  4.674   4.739   4.787   4.814   4.835   4.852   4.877   4.879
  5.013   5.083   5.127   5.312   5.319   5.349   5.351   5.360
  5.362   5.365   5.400   5.446   5.491   5.498   5.568   5.623
  5.702   5.705   5.709   5.717   5.769   5.774   5.889   5.935
  5.987   5.991   6.169   6.232   6.258   6.296   6.305   6.318
  6.339   6.427   6.608   6.616   6.629   6.638   6.713   6.722
  6.730   6.750   6.753   6.767   6.818   6.930   6.937   6.943
  6.968   6.982   7.000   7.041   7.052   7.219   7.222   7.253
  7.348   7.368   7.371   7.371   7.409   7.415   7.498  22.659
 22.762  22.854  23.694  23.721  44.304  44.380  44.403  44.423
 44.441
 --------------------------------------------------------------
 
          Ground-State Mulliken Net Atomic Charges

     Atom                 Charge (a.u.)
  ----------------------------------------
      1 C                     0.183883
      2 C                     0.139567
      3 O                    -0.759490
      4 O                    -0.688152
      5 C                    -0.208549
      6 H                     0.162929
      7 H                     0.032827
      8 O                    -0.709758
      9 H                     0.159724
     10 H                     0.118657
     11 C                     0.437605
     12 C                    -0.517478
     13 H                     0.220785
     14 H                     0.205509
     15 H                     0.114948
     16 O                    -0.717618
     17 O                    -0.545697
     18 H                     0.370308
  ----------------------------------------
  Sum of atomic charges =    -2.000000

 -----------------------------------------------------------------
                    Cartesian Multipole Moments
 -----------------------------------------------------------------
    Charge (ESU x 10^10)
                -9.6064
    Dipole Moment (Debye)
         X       5.6894      Y      -8.5433      Z      -6.8052
       Tot      12.3154
    Quadrupole Moments (Debye-Ang)
        XX    -120.9239     XY     -20.6619     YY    -127.8643
        XZ       4.2363     YZ      -0.9898     ZZ     -70.9935
    Octopole Moments (Debye-Ang^2)
       XXX      80.8989    XXY     -23.0410    XYY      -0.4874
       YYY    -234.5460    XXZ     -35.9433    XYZ     -26.8472
       YYZ     -69.5745    XZZ      17.0824    YZZ     -18.4838
       ZZZ     -50.8435
    Hexadecapole Moments (Debye-Ang^3)
      XXXX   -1801.1771   XXXY    -488.8502   XXYY    -602.8207
      XYYY    -521.0594   YYYY   -2293.1172   XXXZ     -57.9811
      XXYZ     -27.4202   XYYZ     -18.4304   YYYZ    -188.4101
      XXZZ    -300.7671   XYZZ    -153.3952   YYZZ    -353.5679
      XZZZ     -50.5122   YZZZ     -99.6146   ZZZZ    -288.9783
 -----------------------------------------------------------------
 Calculating analytic gradient of the SCF energy
 Gradient of SCF Energy
            1           2           3           4           5           6
    1  -0.0313482  -0.0342800  -0.0418506   0.0376861  -0.0406502  -0.0011921
    2  -0.0156636   0.0490025  -0.0038739  -0.0451110  -0.0691714  -0.0097760
    3  -0.0547374   0.0150680  -0.0092991  -0.0021038   0.0723872   0.0532172
            7           8           9          10          11          12
    1   0.0633695  -0.0107103   0.0080644   0.0226126  -0.0441923   0.0596282
    2   0.0225270   0.0202723   0.0070167   0.0646860   0.0387374  -0.0223187
    3  -0.0194157  -0.0551936  -0.0740989   0.0334993   0.0698978  -0.0736898
           13          14          15          16          17          18
    1   0.0458079  -0.0505190  -0.0372044   0.0449025   0.0278679  -0.0179921
    2   0.0234970   0.0488708  -0.0629883  -0.0352130   0.0438644  -0.0543584
    3   0.0498115  -0.0117153   0.0313302  -0.0080244   0.0034703  -0.0204034
 Max gradient component =       7.410E-02
 RMS gradient           =       4.126E-02
 Computing fast CPCM-ISWIG gradient
 Updating gradient with PCM contributions...
 -- total gradient after adding PCM contribution --
---------------------------------------------------
  Atom         X              Y              Z     
---------------------------------------------------
   1      -0.000007      -0.000882       0.000035
   2       0.000048       0.000286       0.000034
   3       0.000019       0.000016       0.000015
   4      -0.000017       0.000081       0.000025
   5      -0.000092       0.000287      -0.000071
   6      -0.000002       0.000087       0.000021
[...]
 H          0.007  0.006  0.001   -0.276  0.131  0.706    0.263  0.245  0.039
 H         -0.005  0.007  0.019    0.330 -0.184 -0.152   -0.145  0.213  0.576
 O         -0.000 -0.001  0.000    0.055 -0.048 -0.016   -0.027 -0.030 -0.006
 O          0.074  0.020 -0.020   -0.000 -0.000  0.000   -0.005 -0.001  0.000
 H         -0.227  0.049  0.129    0.001 -0.000 -0.001    0.021 -0.005 -0.010
 TransDip  -0.086 -0.039  0.076   -0.084  0.090 -0.076    0.094  0.084  0.012

 Mode:                25                     26                     27
 Frequency:      1077.54                1100.77                1219.72
 Force Cnst:      1.7715                 1.8228                 1.0633
 Red. Mass:       2.5896                 2.5533                 1.2131
 IR Active:          YES                    YES                    YES
 IR Intens:       41.118                136.746                 39.680
 Raman Active:       YES                    YES                    YES
               X      Y      Z        X      Y      Z        X      Y      Z
 C          0.048  0.006 -0.172   -0.085  0.080 -0.115   -0.035  0.047 -0.035
 C         -0.023 -0.029  0.172   -0.003 -0.024  0.048   -0.026 -0.014  0.054
 O          0.003 -0.004 -0.035   -0.004  0.002 -0.010    0.012  0.012 -0.005
 O         -0.007  0.019 -0.031    0.006 -0.010 -0.012    0.008 -0.008 -0.011
 C         -0.133 -0.004  0.185    0.253  0.002  0.081    0.068 -0.001 -0.052
 H         -0.309 -0.445 -0.135   -0.215  0.202 -0.118    0.044 -0.481 -0.014
 H          0.126  0.280  0.273   -0.099  0.343  0.010   -0.049  0.123 -0.025
 O          0.001  0.001 -0.000    0.002  0.001  0.001   -0.000  0.000 -0.001
 H         -0.228 -0.413  0.161    0.106 -0.395  0.087    0.592 -0.011 -0.037
 H         -0.111  0.160 -0.286    0.588  0.002 -0.219   -0.480  0.120  0.046
 C         -0.005 -0.005 -0.001   -0.007 -0.008 -0.002   -0.000  0.001  0.001
 C          0.003  0.004  0.001    0.006  0.005  0.000   -0.001 -0.000  0.001
 H         -0.004  0.003  0.008   -0.017 -0.004  0.026    0.006  0.005 -0.008
 H         -0.007 -0.006 -0.000   -0.011 -0.011 -0.004    0.001  0.001 -0.001
 H          0.002 -0.005 -0.015    0.007 -0.008 -0.021   -0.002 -0.001 -0.003
 O          0.002  0.000  0.000    0.001  0.002  0.000    0.001 -0.001  0.000
 O          0.110  0.030 -0.075   -0.162 -0.040  0.034   -0.011 -0.015  0.035
 H          0.118  0.007  0.012    0.221 -0.080 -0.124   -0.339  0.040  0.120
 TransDip  -0.139 -0.044  0.145    0.366 -0.029 -0.072   -0.185  0.076 -0.023

 Mode:                28                     29                     30
 Frequency:      1236.42                1341.22                1360.15
 Force Cnst:      1.1432                 1.8153                 1.5010
 Red. Mass:       1.2692                 1.7128                 1.3770
 IR Active:          YES                    YES                    YES
 IR Intens:       95.813                 26.332                  7.139
 Raman Active:       YES                    YES                    YES
               X      Y      Z        X      Y      Z        X      Y      Z
 C          0.039 -0.053  0.048   -0.031  0.177 -0.001   -0.001 -0.003 -0.002
 C          0.021 -0.004  0.047    0.033  0.094  0.039    0.000  0.002  0.001
 O         -0.028 -0.016 -0.014   -0.065 -0.019 -0.017   -0.001 -0.000 -0.000
 O         -0.015  0.023 -0.004    0.055 -0.066 -0.007    0.001 -0.001 -0.000
 C         -0.040  0.029 -0.091   -0.037 -0.045 -0.013   -0.001  0.002 -0.000
 H          0.225 -0.462  0.067    0.082 -0.545  0.029    0.012  0.004 -0.003
 H         -0.115  0.648  0.007    0.128 -0.600  0.003    0.003  0.003  0.015
 O          0.001  0.000  0.000    0.000 -0.000  0.001    0.011 -0.021  0.050
 H         -0.017  0.176 -0.092   -0.032  0.011 -0.004    0.010 -0.009 -0.000
 H          0.356 -0.133  0.052    0.431 -0.230  0.116   -0.008  0.003  0.002
 C         -0.002 -0.002 -0.001    0.002 -0.001 -0.001    0.044 -0.026 -0.069
 C          0.001  0.001 -0.000   -0.000 -0.000 -0.000    0.057 -0.029 -0.114
 H         -0.003 -0.003  0.006   -0.003  0.003  0.001   -0.435  0.009  0.384
 H         -0.003 -0.003 -0.001    0.004  0.004  0.003   -0.116 -0.024  0.517
 H          0.001 -0.000 -0.002    0.002 -0.000  0.003   -0.114  0.342  0.470
 O          0.000  0.001  0.000   -0.002  0.001 -0.000   -0.045  0.042  0.001
 O         -0.017  0.002  0.021   -0.006  0.003 -0.002    0.001 -0.000  0.000
 H          0.270 -0.035 -0.121    0.067 -0.021 -0.029   -0.009  0.001  0.003
 TransDip   0.311 -0.035 -0.022    0.067  0.142  0.048    0.066 -0.043 -0.034

 Mode:                31                     32                     33
 Frequency:      1379.63                1433.06                1437.90
 Force Cnst:      1.4626                 3.1109                 1.5537
 Red. Mass:       1.3042                 2.5710                 1.2754
 IR Active:          YES                    YES                    YES
 IR Intens:       48.163                343.277                 87.432
 Raman Active:       YES                    YES                    YES
               X      Y      Z        X      Y      Z        X      Y      Z
 C          0.037 -0.046 -0.024   -0.016 -0.012 -0.012   -0.068 -0.049 -0.052
 C          0.053  0.039  0.003    0.010  0.020  0.004    0.040  0.072  0.013
 O         -0.037 -0.018 -0.008   -0.012 -0.004 -0.002   -0.044 -0.013 -0.009
 O          0.001 -0.004  0.002    0.005 -0.007 -0.000    0.017 -0.024 -0.001
 C         -0.114  0.018 -0.006    0.001  0.006  0.000   -0.002  0.027  0.002
 H         -0.185  0.280 -0.037    0.138  0.043 -0.012    0.637  0.222 -0.055
 H          0.043 -0.095 -0.036    0.032  0.014  0.141    0.150  0.073  0.653
 O         -0.000  0.000 -0.000   -0.029  0.054 -0.142    0.004 -0.007  0.017
 H          0.785 -0.266  0.012    0.006 -0.015  0.001    0.048 -0.078  0.005
 H          0.072 -0.076  0.091    0.001  0.005 -0.002    0.032  0.016 -0.004
 C         -0.000  0.000  0.001   -0.114  0.064  0.243    0.014 -0.008 -0.031
 C         -0.000  0.000  0.001    0.018  0.011 -0.104   -0.005  0.004  0.016
 H          0.002 -0.002 -0.001   -0.197 -0.493  0.356    0.040  0.015 -0.037
 H          0.001  0.001 -0.004    0.018 -0.027 -0.140   -0.009 -0.008 -0.026
 H          0.002 -0.002 -0.002    0.358  0.105  0.509   -0.021 -0.020 -0.051
 O          0.000 -0.000 -0.000    0.090 -0.084 -0.008   -0.011  0.011  0.001
 O         -0.012  0.026  0.033    0.002 -0.003 -0.001    0.009 -0.016 -0.005
 H          0.350 -0.034 -0.137   -0.045  0.002  0.016   -0.207  0.009  0.072
 TransDip   0.220 -0.033  0.010   -0.147  0.098  0.566    0.167  0.243  0.051

 Mode:                34                     35                     36
 Frequency:      1448.31                1459.21                1464.97
 Force Cnst:      3.7524                 1.7500                 1.7035
 Red. Mass:       3.0362                 1.3950                 1.3473
 IR Active:          YES                    YES                    YES
 IR Intens:      231.473                108.786                477.381
 Raman Active:       YES                    YES                    YES
               X      Y      Z        X      Y      Z        X      Y      Z
 C         -0.000 -0.119  0.014    0.009 -0.006  0.005   -0.043  0.046 -0.020
 C          0.153  0.263  0.082   -0.005  0.008  0.001    0.042 -0.058 -0.003
 O         -0.162 -0.055 -0.040   -0.000  0.000 -0.000   -0.000 -0.004  0.000
 O          0.066 -0.093 -0.007    0.004 -0.004 -0.000   -0.031  0.031 -0.000
 C          0.103 -0.007  0.007   -0.003  0.013  0.000    0.046 -0.097 -0.011
 H         -0.357  0.042 -0.005   -0.065 -0.008  0.004    0.217 -0.041 -0.016
 H         -0.211  0.183 -0.403   -0.019  0.014 -0.063    0.058 -0.089  0.201
 O          0.000 -0.001  0.001    0.004 -0.010  0.032    0.001 -0.002  0.005
 H         -0.353  0.079 -0.003    0.004 -0.016  0.000   -0.144  0.043 -0.014
 H         -0.534  0.189 -0.037    0.042  0.002 -0.006   -0.520 -0.006  0.160
 C         -0.001  0.003 -0.002    0.079 -0.068 -0.078    0.009 -0.007 -0.011
 C          0.004  0.000  0.001   -0.071  0.040  0.023   -0.008  0.005  0.003
 H          0.018  0.004 -0.016   -0.053 -0.400  0.231   -0.007 -0.049  0.029
 H         -0.029 -0.027  0.008    0.238  0.205 -0.406    0.028  0.024 -0.048
 H         -0.039  0.017 -0.015    0.583 -0.218  0.285    0.070 -0.024  0.037
 O          0.001 -0.001  0.000   -0.059  0.057  0.002   -0.007  0.006  0.000
 O         -0.007  0.015 -0.003    0.003 -0.007 -0.002   -0.023  0.063  0.019
 H          0.060 -0.012  0.007   -0.080  0.005  0.028    0.694 -0.037 -0.234
 TransDip   0.334  0.342  0.095    0.254 -0.200 -0.082    0.571 -0.397 -0.075

 Mode:                37                     38                     39
 Frequency:      1468.73                1504.95                1583.89
 Force Cnst:      1.3686                 1.4769                11.5876
 Red. Mass:       1.0768                 1.1068                 7.8396
 IR Active:          YES                    YES                    YES
 IR Intens:       27.189                  8.013               1298.293
 Raman Active:       YES                    YES                    YES
               X      Y      Z        X      Y      Z        X      Y      Z
 C         -0.002 -0.004 -0.002    0.008 -0.002  0.005    0.003  0.000  0.001
 C          0.004  0.005  0.002   -0.017 -0.004 -0.001   -0.021  0.008 -0.002
 O         -0.004 -0.001 -0.001    0.008  0.003  0.002    0.007  0.001  0.001
 O          0.001 -0.002 -0.000    0.003 -0.001  0.000    0.008 -0.007 -0.000
 C          0.002  0.001 -0.000    0.018  0.075 -0.049   -0.003 -0.002  0.000
 H          0.017  0.010 -0.002   -0.022 -0.029  0.005   -0.013 -0.004  0.001
 H          0.002  0.009  0.017   -0.012  0.040 -0.039   -0.002 -0.002 -0.014
 O         -0.000  0.005 -0.011    0.000  0.000 -0.001    0.082 -0.119  0.218
 H         -0.005 -0.004  0.000   -0.238 -0.662 -0.042    0.008  0.008 -0.000
 H         -0.006  0.002  0.002   -0.081 -0.171  0.671    0.008 -0.001 -0.007
 C         -0.039 -0.000  0.021   -0.002  0.002  0.001   -0.365  0.417 -0.374
 C         -0.021 -0.050 -0.019    0.001 -0.000  0.000    0.015 -0.019  0.028
 H         -0.316  0.491  0.040    0.004  0.005 -0.005   -0.122 -0.206  0.243
 H          0.474  0.471  0.244   -0.006 -0.006  0.003    0.122 -0.003 -0.428
 H          0.254 -0.250 -0.136   -0.011  0.004 -0.006    0.162  0.030  0.286
 O          0.019 -0.012 -0.000    0.001 -0.001 -0.000    0.170 -0.168  0.035
 O          0.000 -0.000 -0.000    0.009 -0.003 -0.007   -0.000  0.000  0.000
 H         -0.006  0.000  0.002   -0.058  0.013  0.024    0.015 -0.001 -0.004
 TransDip  -0.002  0.154  0.065   -0.090  0.005  0.011   -0.655  0.721 -0.619

 Mode:                40                     41                     42
 Frequency:      1603.10                3007.86                3051.46
 Force Cnst:      9.5666                 5.7050                 5.8491
 Red. Mass:       6.3181                 1.0703                 1.0662
 IR Active:          YES                    YES                    YES
 IR Intens:      880.899                103.931                 26.873
 Raman Active:       YES                    YES                    YES
               X      Y      Z        X      Y      Z        X      Y      Z
 C         -0.035  0.045  0.008   -0.001 -0.001  0.008   -0.030 -0.010 -0.065
 C          0.521 -0.255  0.036   -0.000 -0.001  0.000   -0.000  0.001 -0.000
 O         -0.151 -0.012 -0.029   -0.000  0.000  0.000    0.000 -0.000 -0.000
 O         -0.205  0.184  0.002   -0.000  0.000  0.000    0.000 -0.000 -0.000
 C          0.015  0.055  0.009    0.003  0.017 -0.073    0.004  0.010 -0.000
 H         -0.086 -0.073  0.014   -0.001 -0.006 -0.089   -0.002  0.038  0.909
 H         -0.008 -0.270 -0.161    0.016  0.009 -0.007    0.352  0.071 -0.131
 O          0.002 -0.003  0.006    0.000  0.000  0.000    0.000  0.000  0.000
 H         -0.045 -0.077  0.011   -0.021  0.002  0.967   -0.001  0.003  0.048
 H          0.157  0.033 -0.012   -0.060 -0.197 -0.090   -0.039 -0.123 -0.047
 C         -0.010  0.013 -0.010   -0.000  0.000 -0.000    0.000 -0.000 -0.000
 C          0.001 -0.000  0.000    0.000 -0.000 -0.000    0.000 -0.000 -0.001
 H         -0.002 -0.012  0.008    0.002  0.001  0.002    0.006  0.002  0.006
 H         -0.001 -0.004 -0.013   -0.001  0.001 -0.000   -0.005  0.006 -0.001
 H          0.002  0.006  0.014   -0.001 -0.002  0.001   -0.002 -0.003  0.002
 O          0.004 -0.005  0.001    0.000 -0.000  0.000   -0.000  0.000  0.000
 O          0.018 -0.033 -0.013    0.002 -0.001 -0.001    0.000 -0.000  0.000
 H         -0.617  0.016  0.161    0.006  0.023  0.004    0.002  0.005  0.001
 TransDip   0.864 -0.391  0.068    0.090  0.134 -0.284   -0.058  0.048 -0.148

 Mode:                43                     44                     45
 Frequency:      3058.55                3100.43                3118.68
 Force Cnst:      5.7095                 6.1975                 6.2866
 Red. Mass:       1.0359                 1.0943                 1.0970
 IR Active:          YES                    YES                    YES
 IR Intens:       15.260                 73.579                 23.957
 Raman Active:       YES                    YES                    YES
               X      Y      Z        X      Y      Z        X      Y      Z
 C          0.001  0.000 -0.002   -0.005 -0.001 -0.008   -0.071 -0.013  0.053
 C         -0.000 -0.000 -0.000   -0.001  0.001 -0.000   -0.001  0.001  0.001
 O          0.000 -0.000  0.000    0.000 -0.000  0.000    0.000 -0.000  0.000
 O          0.000 -0.000  0.000    0.000 -0.000 -0.000    0.001 -0.000 -0.000
 C         -0.000 -0.000 -0.001   -0.020 -0.074 -0.044   -0.000 -0.001  0.005
 H         -0.000  0.000  0.016    0.001  0.004  0.111   -0.012 -0.020 -0.369
 H         -0.007 -0.001  0.002    0.054  0.009 -0.017    0.862  0.176 -0.279
 O         -0.000 -0.000  0.000   -0.000 -0.000 -0.000   -0.000  0.000 -0.000
 H         -0.000 -0.000  0.006   -0.005 -0.013  0.210    0.000  0.002 -0.053
 H          0.001  0.003  0.001    0.248  0.876  0.318   -0.001  0.003 -0.001
 C          0.002 -0.001 -0.002    0.000 -0.000  0.000    0.000 -0.000 -0.000
 C         -0.018  0.005  0.047   -0.001 -0.001 -0.001    0.000  0.001  0.001
 H         -0.414 -0.190 -0.396    0.012  0.006  0.013   -0.011 -0.005 -0.011
 H          0.329 -0.360  0.094   -0.001  0.001 -0.001    0.005 -0.005  0.001
 H          0.288  0.499 -0.234    0.004  0.007 -0.004    0.000  0.001  0.000
 O         -0.000  0.000  0.000   -0.000  0.000 -0.000   -0.000 -0.000 -0.000
 O          0.000  0.000  0.000   -0.000  0.003  0.001    0.000  0.000 -0.000
 H         -0.000 -0.002 -0.000    0.000 -0.032 -0.009    0.002 -0.003  0.001
 TransDip  -0.050  0.026  0.112   -0.069 -0.238 -0.118   -0.113 -0.023  0.106

 Mode:                46                     47                     48
 Frequency:      3128.48                3149.98                3464.53
 Force Cnst:      6.3478                 6.4574                 7.5444
 Red. Mass:       1.1008                 1.1046                 1.0668
 IR Active:          YES                    YES                    YES
 IR Intens:       24.271                 42.875                671.348
 Raman Active:       YES                    YES                    YES
               X      Y      Z        X      Y      Z        X      Y      Z
 C         -0.001 -0.000  0.001    0.000 -0.000  0.000   -0.000  0.000 -0.000
 C         -0.000  0.000  0.000   -0.000  0.000  0.000    0.005  0.001  0.001
 O         -0.000 -0.000 -0.000   -0.000 -0.000 -0.000   -0.004 -0.000 -0.000
 O          0.000 -0.000 -0.000   -0.000 -0.000  0.000   -0.002  0.001 -0.000
 C          0.000  0.001  0.001   -0.000 -0.000 -0.000   -0.003 -0.005  0.000
 H         -0.000 -0.001 -0.010   -0.000 -0.000 -0.002   -0.001 -0.000  0.000
 H          0.008  0.002 -0.002   -0.001 -0.000  0.001    0.003 -0.005 -0.000
 O         -0.000 -0.000 -0.000   -0.000  0.001 -0.001    0.000  0.000  0.000
 H          0.000  0.000 -0.005   -0.000  0.000  0.001    0.007 -0.000 -0.016
 H         -0.004 -0.017 -0.006    0.001  0.002  0.001    0.015  0.031  0.009
 C         -0.001 -0.001  0.000    0.001 -0.001  0.002   -0.000  0.000 -0.000
 C         -0.063 -0.066 -0.015    0.056 -0.062  0.042   -0.000  0.000  0.000
 H          0.470  0.209  0.472   -0.249 -0.129 -0.245   -0.001 -0.000 -0.001
 H         -0.038  0.018 -0.010   -0.577  0.628 -0.150    0.001 -0.001  0.000
 H          0.322  0.563 -0.285    0.160  0.249 -0.118    0.000  0.001 -0.001
 O          0.000  0.000  0.000   -0.000  0.000 -0.000    0.000  0.000  0.000
 O         -0.000 -0.000 -0.000   -0.000 -0.000  0.000   -0.010 -0.061 -0.009
 H         -0.000  0.000  0.000    0.000  0.000  0.000    0.187  0.969  0.142
 TransDip  -0.107 -0.112 -0.029    0.140 -0.142  0.065   -0.090  0.817  0.111

 STANDARD THERMODYNAMIC QUANTITIES AT   298.15 K  AND     1.00 ATM

   This Molecule has  0 Imaginary Frequencies
   Zero point vibrational energy:       83.656 kcal/mol

   Atom    1 Element C  Has Mass   12.00000
   Atom    2 Element C  Has Mass   12.00000
   Atom    3 Element O  Has Mass   15.99491
   Atom    4 Element O  Has Mass   15.99491
   Atom    5 Element C  Has Mass   12.00000
   Atom    6 Element H  Has Mass    1.00783
   Atom    7 Element H  Has Mass    1.00783
   Atom    8 Element O  Has Mass   15.99491
   Atom    9 Element H  Has Mass    1.00783
   Atom   10 Element H  Has Mass    1.00783
   Atom   11 Element C  Has Mass   12.00000
   Atom   12 Element C  Has Mass   12.00000
   Atom   13 Element H  Has Mass    1.00783
   Atom   14 Element H  Has Mass    1.00783
   Atom   15 Element H  Has Mass    1.00783
   Atom   16 Element O  Has Mass   15.99491
   Atom   17 Element O  Has Mass   15.99491
   Atom   18 Element H  Has Mass    1.00783
   Molecular Mass:   148.037190 amu
   Principal axes and moments of inertia in amu*Bohr^2:
                             1           2           3
    Eigenvalues --      988.62212  3212.32138  3813.47168
          X               0.67164     0.73964    -0.04276
          Y               0.73402    -0.67215    -0.09711
          Z               0.10057    -0.03384     0.99435
   Rotational Symmetry Number is   1
   The Molecule is an Asymmetric Top
   Translational Enthalpy:        0.889 kcal/mol
   Rotational Enthalpy:           0.889 kcal/mol
   Vibrational Enthalpy:         89.651 kcal/mol
   gas constant (RT):             0.592 kcal/mol
   Translational Entropy:        40.887  cal/mol.K
   Rotational Entropy:           30.871  cal/mol.K
   Vibrational Entropy:          47.856  cal/mol.K

   Total Enthalpy:               92.021 kcal/mol
   Total Entropy:               119.614  cal/mol.K
Archival summary:
1\1\c6-85\FREQ\ProcedureUnspecified\BasisUnspecified\558(2-,1)\leeping\SatMar2112:57:372020SatMar2112:57:372020\0\\#,FREQ,ProcedureUnspecified,BasisUnspecified,\\-2,1\O\C,1,1.26858\O,2,1.25222,1,125.058\C,2,1.53623,1,117.27,3,178.263,0\H,4,1.09383,2,109.072,1,149.148,0\H,4,1.09824,2,106.964,1,-95.5004,0\C,4,1.52391,2,114.127,1,25.6019,0\H,7,1.09408,4,110.236,2,-177.463,0\H,7,1.10047,4,109.581,2,64.2661,0\O,7,1.4258,4,111.687,2,-57.9174,0\H,10,0.982359,7,102.28,4,45.9911,0\H,6,2.63072,4,106.389,2,-163.113,0\C,12,1.0946,6,142.456,4,-1.47618,0\H,13,1.09142,12,109.174,6,-86.9761,0\H,13,1.09398,12,107.329,6,154.447,0\C,13,1.53091,12,109.236,6,35.5848,0\O,16,1.25912,13,118.015,12,-117.978,0\O,16,1.26031,13,116.619,12,61.7909,0\\\@

 Total job time:  42487.68s(wall), 446272.66s(cpu) 
 Sat Mar 21 12:57:37 2020

        *************************************************************
        *                                                           *
        *  Thank you very much for using Q-Chem.  Have a nice day.  *
        *                                                           *
        *************************************************************


