
Running Job 1 of 1 qc-freq2.in
qchem qc-freq2.in_28363.0 /scratch/leeping/1940489/qc-freq2.d/ 1
/home/leeping/opt/qchem/5.0.2-openmp/exe/qcprog.exe_s qc-freq2.in_28363.0 /scratch/leeping/1940489/qc-freq2.d/
Check license passed

                  Welcome to Q-Chem
     A Quantum Leap Into The Future Of Chemistry


 Q-Chem 5.0, Q-Chem, Inc., Pleasanton, CA (2017)

 Yihan Shao,  Zhengting Gan,  E. Epifanovsky,  A. T. B. Gilbert,  M. Wormit,  
 J. Kussmann,  A. W. Lange,  A. Behn,  Jia Deng,  Xintian Feng,  D. Ghosh,  
 M. Goldey,  P. R. Horn,  L. D. Jacobson,  I. Kaliman,  T. Kus,  A. Landau,  
 Jie Liu,  E. I. Proynov,  R. M. Richard,  R. P. Steele,  E. J. Sundstrom,  
 H. L. Woodcock III,  P. M. Zimmerman,  D. Zuev,  B. Albrecht,  E. Alguire,  
 S. A. Baeppler,  D. Barton,  Z. Benda,  Y. A. Bernard,  E. J. Berquist,  
 K. B. Bravaya,  H. Burton,  D. Casanova,  Chun-Min Chang,  Yunqing Chen,  
 A. Chien,  K. D. Closser,  M. P. Coons,  S. Dasgupta,  A. L. Dempwolff,  
 M. Diedenhofen,  Hainam Do,  R. G. Edgar,  Po-Tung Fang,  S. Fatehi,  
 Qingguo Feng,  J. Fosso-Tande,  Qinghui Ge,  A. Ghysels,  G. Gidofalvi,  
 J. Gomes,  J. Gonthier,  A. Gunina,  M. W. D. Hanson-Heine,  
 P. H. P. Harbach,  A. W. Hauser,  J. E. Herr,  E. G. Hohenstein,  
 Z. C. Holden,  Kerwin Hui,  T.-C. Jagau,  Hyunjun Ji,  B. Kaduk,  
 K. Khistyaev,  Jaehoon Kim,  P. Klunzinger,  K. Koh,  D. Kosenkov,  
 L. Koulias,  T. Kowalczyk,  C. M. Krauter,  A. Kunitsa,  Ka Un Lao,  
 A. Laurent,  K. V. Lawler,  Joonho Lee,  D. Lefrancois,  S. Lehtola,  
 D. S. Levine,  Yi-Pei Li,  You-Sheng Lin,  Fenglai Liu,  E. Livshits,  
 A. Luenser,  P. Manohar,  E. Mansoor,  S. F. Manzer,  Shan-Ping Mao,  
 Yuezhi Mao,  N. Mardirossian,  A. V. Marenich,  T. Markovich,  
 L. A. Martinez-Martinez,  S. A. Maurer,  N. J. Mayhall,  S. C. McKenzie,  
 J.-M. Mewes,  A. F. Morrison,  J. W. Mullinax,  K. Nanda,  
 T. S. Nguyen-Beck,  R. Olivares-Amaya,  J. A. Parkhill,  T. M. Perrine,  
 F. Plasser,  S. Prager,  A. Prociuk,  E. Ramos,  D. R. Rehn,  F. Rob,  
 M. Schneider,  N. Sergueev,  S. M. Sharada,  S. Sharma,  D. W. Small,  
 T. Stauch,  T. Stein,  Yu-Chuan Su,  A. J. W. Thom,  A. Tkatchenko,  
 T. Tsuchimochi,  L. Vogt,  O. Vydrov,  M. A. Watson,  J. Wenzel,  
 M. de Wergifosse,  T. A. Wesolowski,  A. White,  J. Witte,  A. Yamada,  
 Jun Yang,  K. Yao,  S. Yeganeh,  S. R. Yost,  Zhi-Qiang You,  A. Zech,  
 Igor Ying Zhang,  Xing Zhang,  Yan Zhao,  Ying Zhu,  B. R. Brooks,  
 G. K. L. Chan,  C. J. Cramer,  M. S. Gordon,  W. J. Hehre,  A. Klamt,  
 M. W. Schmidt,  C. D. Sherrill,  D. G. Truhlar,  A. Aspuru-Guzik,  R. Baer,  
 A. T. Bell,  N. A. Besley,  Jeng-Da Chai,  R. A. DiStasio Jr.,  A. Dreuw,  
 B. D. Dunietz,  T. R. Furlani,  Chao-Ping Hsu,  Yousung Jung,  Jing Kong,  
 D. S. Lambrecht,  WanZhen Liang,  C. Ochsenfeld,  V. A. Rassolov,  
 L. V. Slipchenko,  J. E. Subotnik,  T. Van Voorhis,  J. M. Herbert,  
 A. I. Krylov,  P. M. W. Gill,  M. Head-Gordon

 Contributors to earlier versions of Q-Chem not listed above: 
 R. D. Adamson,  B. Austin,  J. Baker,  G. J. O. Beran,  K. Brandhorst,  
 S. T. Brown,  E. F. C. Byrd,  A. K. Chakraborty,  C.-L. Cheng,  
 Siu Hung Chien,  D. M. Chipman,  D. L. Crittenden,  H. Dachsel,  
 R. J. Doerksen,  A. D. Dutoi,  L. Fusti-Molnar,  W. A. Goddard III,  
 A. Golubeva-Zadorozhnaya,  S. R. Gwaltney,  G. Hawkins,  A. Heyden,  
 S. Hirata,  G. Kedziora,  F. J. Keil,  C. Kelley,  Jihan Kim,  R. A. King,  
 R. Z. Khaliullin,  P. P. Korambath,  W. Kurlancheek,  A. M. Lee,  M. S. Lee,  
 S. V. Levchenko,  Ching Yeh Lin,  D. Liotard,  R. C. Lochan,  I. Lotan,  
 P. E. Maslen,  N. Nair,  D. P. O'Neill,  D. Neuhauser,  E. Neuscamman,  
 C. M. Oana,  R. Olson,  B. Peters,  R. Peverati,  P. A. Pieniazek,  
 Y. M. Rhee,  J. Ritchie,  M. A. Rohrdanz,  E. Rosta,  N. J. Russ,  
 H. F. Schaefer III,  N. E. Schultz,  N. Shenvi,  A. C. Simmonett,  A. Sodt,  
 D. Stuck,  K. S. Thanthiriwatte,  V. Vanovschi,  Tao Wang,  A. Warshel,  
 C. F. Williams,  Q. Wu,  X. Xu,  W. Zhang

 Please cite Q-Chem as follows:
 Y. Shao et al., Mol. Phys. 113, 184-215 (2015)
 DOI: 10.1080/00268976.2014.952696

 Q-Chem 5.0.2 for Intel X86 EM64T Linux

 Parts of Q-Chem use Armadillo 5.200.1 (Boston Tea Smuggler).
 http://arma.sourceforge.net/

 Q-Chem begins on Mon Apr  6 18:31:06 2020  

Host: 
0

     Scratch files written to /scratch/leeping/1940489/qc-freq2.d//
 Dec517 15110_ 26548  26544 5633   
Processing $rem in /home/leeping/opt/qchem/5.0.2-openmp/config/preferences.
 MEM_STATIC 2000
 MEM_TOTAL  8000
 SYMMETRY   OFF
 SYM_IGNORE TRUE 
Symmetry turned off for PCM/SM12/SMD calculation

Checking the input file for inconsistencies... 	...done.

--------------------------------------------------------------
User input:
--------------------------------------------------------------
$molecule
-2 1
C       -1.8310214522   -0.1958348186   -0.7486908915
C       -0.9103285446    0.9847723850   -0.4513953136
H       -1.7243565447   -0.9776491887    0.0068528374
H       -2.8716328972    0.1450207973   -0.7520132615
H       -1.5927420006   -0.6147295505   -1.7292096772
C        0.5744653544    0.6238115441   -0.5020709115
C        0.9942533886   -0.4383826138    0.5126724987
H        0.8086734225    0.2821889328   -1.5145661707
H        1.1266033858    1.5483869576   -0.3220294983
H        2.0738546566   -0.3479303925    0.6900814270
H        0.5005160546   -0.2593155339    1.4712443461
O       -1.0848044670    1.9839203969   -1.4673172671
O       -1.3363003831    1.4551949788    0.7968854487
O       -0.5111312933    2.5386292614    1.3064790508
H       -2.0111853376    2.2553832625   -1.4359521381
C        0.7707016694   -1.9029593080    0.0979740485
O        0.3858010661   -2.7003222634    0.9965768585
O        1.0286032942   -2.2214150122   -1.0919704735
$end

$rem
jobtype               freq
method                wb97x-v
basis                 def2-tzvpd
symmetry              off
sym_ignore            true
incdft                false
incfock               0
!scf_algorithm        diis_gdm
scf_convergence       8
thresh                14
!purecart             112
max_scf_cycles        1000
geom_opt_max_cycles   500
geom_opt_dmax         100
geom_opt_tol_gradient 10
solvent_method        pcm
ideriv                1
rpath_tol_displacement 1000
rpath_max_cycles      100
rpath_direction       1
!scf_guess            read
scf_guess             read
$end

$pcm
theory              cosmo
method              iswig
Radii               bondi
vdwScale            1.20
hpoints             110
heavypoints         110
$end

$solvent
dielectric 78.400000
$end

--------------------------------------------------------------
 ----------------------------------------------------------------
             Standard Nuclear Orientation (Angstroms)
    I     Atom           X                Y                Z
 ----------------------------------------------------------------
    1      C      -1.8310214522    -0.1958348186    -0.7486908915
    2      C      -0.9103285446     0.9847723850    -0.4513953136
    3      H      -1.7243565447    -0.9776491887     0.0068528374
    4      H      -2.8716328972     0.1450207973    -0.7520132615
    5      H      -1.5927420006    -0.6147295505    -1.7292096772
    6      C       0.5744653544     0.6238115441    -0.5020709115
    7      C       0.9942533886    -0.4383826138     0.5126724987
    8      H       0.8086734225     0.2821889328    -1.5145661707
    9      H       1.1266033858     1.5483869576    -0.3220294983
   10      H       2.0738546566    -0.3479303925     0.6900814270
   11      H       0.5005160546    -0.2593155339     1.4712443461
   12      O      -1.0848044670     1.9839203969    -1.4673172671
   13      O      -1.3363003831     1.4551949788     0.7968854487
   14      O      -0.5111312933     2.5386292614     1.3064790508
   15      H      -2.0111853376     2.2553832625    -1.4359521381
   16      C       0.7707016694    -1.9029593080     0.0979740485
   17      O       0.3858010661    -2.7003222634     0.9965768585
   18      O       1.0286032942    -2.2214150122    -1.0919704735
 ----------------------------------------------------------------
 Nuclear Repulsion Energy =   562.0688347370 hartrees
 There are       40 alpha and       40 beta electrons
 Requested basis set is def2-TZVPD
 There are 175 shells and 457 basis functions

 Total QAlloc Memory Limit   8000 MB
 Mega-Array Size      1956 MB
 MEM_STATIC part      2000 MB
 Discretize the solute cavity surface with Lebedev spheres
	Using 110 Lebedev grid points for each H atom
	Using 110 Lebedev grid points for other atoms
	Atomic van der Waals radii will be scaled by 1.20
 Remove points where switching function is < 1.0e-08
 Keep 1042 surface tesserae and discard 938 interior tesserae
 Molecular Surface Area = 183.408 Angst**2
 A cutoff of  1.0D-14 yielded  14380 shell pairs
 There are     98786 function pairs (    126008 Cartesian)
 
 -------------------------------------------------------
 OpenMP Integral Computing Module                       
 Release: version 1.0, May 2013, Q-Chem Inc. Pittsburgh 
 -------------------------------------------------------
 Integral Job Info:
 Integral job number is                      11
 Integral operator is                         1
 short-range coefficients              16700000
 long-range coefficients              100000000
 Omega coefficients                         300
 if combine SR and LR in K                    1
 Integral screening is                        0
 Integral computing path is                   2
 max size of driver memory is            800000
 size of driver memory is                776718
 size of scratch memory is              4473992
 max col of scratch BK array              10000
 max len of scratch array in speh3          662
 max len of scratch index in speh4           32
 max int batch size is                      520
 min int batch size is                       52
 fixed nKL is                                52
 max L of basis functions is                  3
 order of int derivative is                   0
 number of shells is                        175
 number of basis is                         517
 number of cartesian basis is               517
 number of contracted shell pairs         14380
 number of primitive shell pairs          29290
 maxK2 (contraction) of shell pair           36
 max number of K2 of shell pair               1
 max number of CS2 of shell pair           2331
 max number of PS2 of shell pair           3384
 mem total for path MDJ                  793732
 -------------------------------------------------------
 Smallest overlap matrix eigenvalue = 2.71E-06
 Guess MOs from SCF MO coefficient file
 Reading MOs from coefficient file
 Reading MOs from coefficient file
 Long-range K will be added via erf
 Coulomb attenuation parameter = 0.3 bohr**(-1)
 A restricted hybrid HF-DFT SCF calculation will be
 performed using Pulay DIIS extrapolation
 Polarizable Continuum solvation model will be applied
 Exchange:     0.1670 Hartree-Fock + 1.0000 wB97X-V + LR-HF
 Correlation:  1.0000 wB97X-V
 Using SG-2 standard quadrature grid
 Nonlocal Correlation:  VV10 with C = 0.0100 and b = 6.00
 Grid used for NLC:  SG-1 standard quadrature
 SCF converges when DIIS error is below 1.0E-08
Using Q-Chem read-in guess as SCF_GUESS READ specified.

 using 16 threads for integral computing
 -------------------------------------------------------
 OpenMP Integral computing Module                
 Release: version 1.0, May 2013, Q-Chem Inc. Pittsburgh 
 -------------------------------------------------------
 using 16 threads for integral computing
 -------------------------------------------------------
 OpenMP Integral computing Module                
 Release: version 1.0, May 2013, Q-Chem Inc. Pittsburgh 
 -------------------------------------------------------
 -------------------------------------------------------
 OpenMP BLAS3 based DFT computing Module                
 Release: version 1.0, May 2013, Q-Chem Inc. Pittsburgh 
 -------------------------------------------------------
 -------------------------------------------------------
 OpenMP BLAS3 based DFT computing Module                
 Release: version 1.0, May 2013, Q-Chem Inc. Pittsburgh 
 -------------------------------------------------------
 -------------------------------------------------------
 OpenMP BLAS3 based DFT computing Module                
 Release: version 1.0, May 2013, Q-Chem Inc. Pittsburgh 
 -------------------------------------------------------
 ---------------------------------------
  Cycle       Energy         DIIS Error
 ---------------------------------------
    1    -571.3963296880      3.84E-04
    2    -571.7124053369      4.29E-04
    3    -571.7189494687      1.92E-04
    4    -571.7199712683      1.41E-04
    5    -571.7205637117      1.09E-04
    6    -571.7208772811      8.82E-05
    7    -571.7211202483      6.79E-05
    8    -571.7212637221      5.24E-05
    9    -571.7213599724      3.87E-05
   10    -571.7214093681      2.93E-05
   11    -571.7214372151      2.22E-05
   12    -571.7214525126      1.71E-05
   13    -571.7214610163      1.35E-05
   14    -571.7214668069      1.03E-05
   15    -571.7214699042      8.05E-06
   16    -571.7214719870      6.13E-06
   17    -571.7214748575      3.99E-09 Convergence criterion met
 ---------------------------------------

************** Final PCM Free Energy Summary **************
 G_electrostatic  =      -0.32514625 hartree =    -204.03234924 kcal/mol
 G_cavitation     =       0.00000000 hartree =       0.00000000 kcal/mol
 G_dispersion     =       0.00000000 hartree =       0.00000000 kcal/mol
 G_repulsion      =       0.00000000 hartree =       0.00000000 kcal/mol
 --------------------------------------------------
 Non-electrostatic Free Energy =       0.00000000 hartree =       0.00000000 kcal/mol
 Total                         =      -0.32514625 hartree =    -204.03234924 kcal/mol
 --------------------------------------------------
 SCF Energy (H0 + V/2)                       =    -571.72147486 
 Solute Internal Energy (H0)                 =    -571.39632861 
 Total Free Energy (H0 + V/2 + non-elec)     =    -571.72147486 hartree
                                             = -358760.64024717 kcal/mol
***********************************************************

 SCF time:  CPU 4628.27 s  wall 327.45 s
 SCF   energy in the final basis set = -571.72147486
 Total energy in the final basis set = -571.72147486
 
 --------------------------------------------------------------
 
                    Orbital Energies (a.u.)
 --------------------------------------------------------------
 
 Alpha MOs
 -- Occupied --
-19.208 -19.199 -19.137 -19.137 -19.132 -10.345 -10.338 -10.244
-10.243 -10.241  -1.180  -1.141  -1.115  -1.046  -0.928  -0.882
 -0.824  -0.772  -0.665  -0.605  -0.593  -0.573  -0.563  -0.533
 -0.516  -0.511  -0.507  -0.484  -0.466  -0.455  -0.443  -0.433
 -0.416  -0.404  -0.377  -0.346  -0.333  -0.327  -0.297  -0.270
 -- Virtual --
  0.062   0.072   0.079   0.084   0.100   0.104   0.108   0.115
  0.122   0.138   0.145   0.146   0.149   0.154   0.169   0.174
  0.176   0.184   0.190   0.195   0.205   0.206   0.217   0.219
  0.226   0.229   0.238   0.256   0.258   0.260   0.276   0.285
  0.288   0.289   0.302   0.303   0.308   0.315   0.322   0.327
  0.330   0.338   0.347   0.349   0.356   0.359   0.364   0.373
  0.379   0.381   0.389   0.393   0.394   0.400   0.410   0.413
  0.420   0.422   0.425   0.428   0.444   0.447   0.453   0.455
  0.463   0.468   0.478   0.481   0.486   0.490   0.494   0.502
  0.510   0.520   0.524   0.527   0.541   0.541   0.550   0.559
  0.564   0.573   0.575   0.579   0.584   0.586   0.592   0.602
  0.602   0.613   0.622   0.627   0.635   0.639   0.645   0.665
  0.674   0.684   0.695   0.698   0.705   0.710   0.716   0.720
  0.725   0.733   0.736   0.743   0.750   0.750   0.756   0.764
  0.770   0.778   0.788   0.802   0.804   0.808   0.811   0.826
  0.827   0.838   0.844   0.848   0.851   0.859   0.863   0.871
  0.883   0.889   0.892   0.896   0.903   0.914   0.927   0.936
  0.949   0.954   0.979   0.983   0.993   1.018   1.033   1.041
  1.052   1.054   1.065   1.082   1.098   1.116   1.123   1.140
  1.157   1.161   1.171   1.181   1.197   1.202   1.220   1.225
  1.247   1.266   1.277   1.295   1.303   1.325   1.331   1.341
  1.351   1.381   1.398   1.405   1.425   1.432   1.451   1.468
  1.477   1.490   1.507   1.523   1.538   1.552   1.575   1.590
  1.613   1.631   1.657   1.672   1.705   1.729   1.830   1.837
  1.864   1.893   1.911   1.919   1.929   1.933   1.949   1.960
  1.978   1.983   1.994   1.999   2.006   2.031   2.037   2.062
  2.078   2.096   2.111   2.114   2.123   2.135   2.167   2.171
  2.191   2.224   2.227   2.252   2.262   2.280   2.316   2.324
  2.341   2.359   2.365   2.388   2.399   2.404   2.444   2.448
  2.474   2.481   2.496   2.501   2.507   2.524   2.555   2.604
  2.612   2.627   2.644   2.665   2.700   2.721   2.734   2.774
  2.789   2.799   2.810   2.842   2.859   2.888   2.890   2.904
  2.926   2.937   2.965   2.987   2.997   3.022   3.031   3.074
  3.084   3.112   3.130   3.160   3.186   3.205   3.222   3.232
  3.261   3.272   3.289   3.315   3.319   3.331   3.347   3.356
  3.371   3.401   3.412   3.424   3.434   3.448   3.478   3.491
  3.513   3.520   3.547   3.565   3.578   3.615   3.621   3.647
  3.664   3.666   3.680   3.683   3.712   3.720   3.737   3.740
  3.755   3.771   3.778   3.787   3.826   3.846   3.860   3.868
  3.899   3.916   3.930   3.964   4.032   4.048   4.088   4.123
  4.169   4.194   4.222   4.265   4.290   4.335   4.368   4.383
  4.401   4.445   4.467   4.474   4.616   4.671   4.687   4.731
  4.796   4.822   4.855   4.911   4.930   4.960   4.992   5.035
  5.069   5.134   5.169   5.216   5.252   5.313   5.333   5.356
  5.370   5.374   5.383   5.406   5.411   5.444   5.501   5.507
  5.568   5.624   5.661   5.712   5.720   5.726   5.783   5.865
  5.958   6.001   6.027   6.119   6.262   6.263   6.293   6.307
  6.335   6.340   6.503   6.627   6.643   6.647   6.673   6.711
  6.724   6.749   6.772   6.784   6.788   6.899   6.927   6.954
  6.967   6.991   7.070   7.121   7.174   7.227   7.241   7.354
  7.373   7.387   7.413   7.423   7.528   7.578   8.315  22.791
 22.858  22.965  23.073  23.759  44.210  44.427  44.471  44.520
 44.758
 --------------------------------------------------------------
 
          Ground-State Mulliken Net Atomic Charges

     Atom                 Charge (a.u.)
  ----------------------------------------
      1 C                    -1.161842
      2 C                     0.634978
      3 H                     0.213127
      4 H                     0.310152
      5 H                     0.238910
      6 C                    -0.212842
      7 C                    -0.163215
      8 H                     0.212597
      9 H                     0.157829
     10 H                     0.187864
     11 H                     0.115638
     12 O                    -0.530173
     13 O                    -0.251267
     14 O                    -0.856790
     15 H                     0.387702
     16 C                     0.152957
     17 O                    -0.722926
     18 O                    -0.712699
  ----------------------------------------
  Sum of atomic charges =    -2.000000

 -----------------------------------------------------------------
                    Cartesian Multipole Moments
 -----------------------------------------------------------------
    Charge (ESU x 10^10)
                -9.6064
    Dipole Moment (Debye)
         X      -0.8042      Y       1.0104      Z      -4.9685
       Tot       5.1336
    Quadrupole Moments (Debye-Ang)
        XX     -65.5723     XY      13.8418     YY    -133.9876
        XZ       9.3715     YZ     -12.2834     ZZ     -85.5830
    Octopole Moments (Debye-Ang^2)
       XXX      30.6346    XXY       8.2357    XYY       3.0121
       YYY      17.9773    XXZ      -3.9774    XYZ       7.6212
       YYZ     -35.9569    XZZ      12.2029    YZZ      -9.0885
       ZZZ       2.0615
    Hexadecapole Moments (Debye-Ang^3)
      XXXX    -505.0189   XXXY     181.7151   XXYY    -307.6826
      XYYY     292.6261   YYYY   -1777.9243   XXXZ       4.3921
      XXYZ     -41.1713   XYYZ      38.1295   YYYZ     -77.9992
      XXZZ    -166.5690   XYZZ      93.2891   YYZZ    -400.4599
      XZZZ     -20.3047   YZZZ     -33.3296   ZZZZ    -473.9264
 -----------------------------------------------------------------
 Calculating analytic gradient of the SCF energy
 Gradient of SCF Energy
            1           2           3           4           5           6
    1  -0.0313068   0.0000709  -0.0227290   0.0750289  -0.0335413   0.0370316
    2  -0.0862732  -0.0422374   0.0588816  -0.0233179   0.0293525   0.0861111
    3  -0.0127756   0.0727680  -0.0754611   0.0052985   0.0766849  -0.1141096
            7           8           9          10          11          12
    1  -0.0053096   0.0010568  -0.0446442  -0.0510530   0.0329589  -0.0261035
    2   0.0603056   0.0319464  -0.0647167   0.0052397  -0.0371583   0.0159369
    3   0.1110387   0.0619734  -0.0024753  -0.0202581  -0.0674193  -0.0047405
           13          14          15          16          17          18
    1  -0.0278259   0.0321074   0.0611203  -0.0096638   0.0209168  -0.0081146
    2  -0.0496916   0.0307117  -0.0242223  -0.0574738   0.0422902   0.0243154
    3  -0.0316925   0.0182746   0.0009928  -0.0412430  -0.0354153   0.0585594
 Max gradient component =       1.141E-01
 RMS gradient           =       4.769E-02
 Computing fast CPCM-ISWIG gradient
 Updating gradient with PCM contributions...
 -- total gradient after adding PCM contribution --
---------------------------------------------------
  Atom         X              Y              Z     
---------------------------------------------------
   1      -0.000007       0.000010       0.000005
   2       0.000007      -0.000010       0.000015
   3       0.000005      -0.000003      -0.000001
   4       0.000002      -0.000000       0.000005
   5      -0.000001      -0.000003       0.000002
   6      -0.000012      -0.000025      -0.000003
   7       0.000007      -0.000003       0.000000
   8      -0.000001       0.000001       0.000000
   9       0.000001      -0.000001      -0.000003
  10       0.000002      -0.000003      -0.000005
  11       0.000003       0.000012       0.000002
  12       0.000000       0.000015      -0.000007
  13       0.000008       0.000016      -0.000010
  14      -0.000013      -0.000013       0.000008
  15      -0.000002      -0.000004      -0.000003
  16      -0.000000       0.000011       0.000002
  17      -0.000001       0.000002      -0.000008
  18       0.000002      -0.000002       0.000002
---------------------------------------------------
 Number of fixed atoms: 0
 Gradient time:  CPU 958.53 s  wall 68.32 s
 ######################################################
 ######################################################
 # Starting finite difference calculation for IDERIV  #
 Finite diff step size:  1.88973e-03 a.u.
 ----------------------------------------------------------------
             Standard Nuclear Orientation (Angstroms)
    I     Atom           X                Y                Z
 ----------------------------------------------------------------
    1      C      -1.8300214522    -0.1958348186    -0.7486908915
    2      C      -0.9103285446     0.9847723850    -0.4513953136
    3      H      -1.7243565447    -0.9776491887     0.0068528374
    4      H      -2.8716328972     0.1450207973    -0.7520132615
    5      H      -1.5927420006    -0.6147295505    -1.7292096772
    6      C       0.5744653544     0.6238115441    -0.5020709115
    7      C       0.9942533886    -0.4383826138     0.5126724987
    8      H       0.8086734225     0.2821889328    -1.5145661707
    9      H       1.1266033858     1.5483869576    -0.3220294983
   10      H       2.0738546566    -0.3479303925     0.6900814270
   11      H       0.5005160546    -0.2593155339     1.4712443461
   12      O      -1.0848044670     1.9839203969    -1.4673172671
   13      O      -1.3363003831     1.4551949788     0.7968854487
   14      O      -0.5111312933     2.5386292614     1.3064790508
   15      H      -2.0111853376     2.2553832625    -1.4359521381
   16      C       0.7707016694    -1.9029593080     0.0979740485
   17      O       0.3858010661    -2.7003222634     0.9965768585
   18      O       1.0286032942    -2.2214150122    -1.0919704735
 ----------------------------------------------------------------
 Nuclear Repulsion Energy =   562.0848476496 hartrees
 There are       40 alpha and       40 beta electrons
 Discretize the solute cavity surface with Lebedev spheres
	Using 110 Lebedev grid points for each H atom
	Using 110 Lebedev grid points for other atoms
	Atomic van der Waals radii will be scaled by 1.20
 Remove points where switching function is < 1.0e-08
 Keep 1042 surface tesserae and discard 938 interior tesserae
 Molecular Surface Area = 183.404 Angst**2
 Requested basis set is def2-TZVPD
 There are 175 shells and 457 basis functions
 A cutoff of  1.0D-14 yielded  14380 shell pairs
 There are     98786 function pairs (    126008 Cartesian)
 Smallest overlap matrix eigenvalue = 2.71E-06
 Guess MOs from SCF MO coefficient file
 Reading MOs from coefficient file
 Reading MOs from coefficient file
 Long-range K will be added via erf
 Coulomb attenuation parameter = 0.3 bohr**(-1)
 A restricted hybrid HF-DFT SCF calculation will be
 performed using Pulay DIIS extrapolation
 Polarizable Continuum solvation model will be applied
 Exchange:     0.1670 Hartree-Fock + 1.0000 wB97X-V + LR-HF
 Correlation:  1.0000 wB97X-V
 Using SG-2 standard quadrature grid
 Nonlocal Correlation:  VV10 with C = 0.0100 and b = 6.00
 Grid used for NLC:  SG-1 standard quadrature
 SCF converges when DIIS error is below 1.0E-08
Using Q-Chem read-in guess as SCF_GUESS READ specified.

 using 16 threads for integral computing
 -------------------------------------------------------
 OpenMP Integral computing Module                
 Release: version 1.0, May 2013, Q-Chem Inc. Pittsburgh 
 -------------------------------------------------------
 using 16 threads for integral computing
 -------------------------------------------------------
 OpenMP Integral computing Module                
 Release: version 1.0, May 2013, Q-Chem Inc. Pittsburgh 
 -------------------------------------------------------
 -------------------------------------------------------
 OpenMP BLAS3 based DFT computing Module                
 Release: version 1.0, May 2013, Q-Chem Inc. Pittsburgh 
 -------------------------------------------------------
 -------------------------------------------------------
 OpenMP BLAS3 based DFT computing Module                
 Release: version 1.0, May 2013, Q-Chem Inc. Pittsburgh 
 -------------------------------------------------------
 -------------------------------------------------------
 OpenMP BLAS3 based DFT computing Module                
 Release: version 1.0, May 2013, Q-Chem Inc. Pittsburgh 
 -------------------------------------------------------
 ---------------------------------------
  Cycle       Energy         DIIS Error
 ---------------------------------------
    1    -571.3960592993      3.84E-04
    2    -571.7123981043      4.29E-04
    3    -571.7189500278      1.92E-04
    4    -571.7199732741      1.41E-04
    5    -571.7205707697      1.09E-04
    6    -571.7208934956      8.69E-05
    7    -571.7211623558      6.37E-05
    8    -571.7213290748      4.34E-05
    9    -571.7214331214      2.31E-05
   10    -571.7214680037      8.82E-06
   11    -571.7214734026      2.59E-06
   12    -571.7214738841      5.38E-07
   13    -571.7214739048      9.26E-08
   14    -571.7214739054      8.42E-09 Convergence criterion met
 ---------------------------------------

************** Final PCM Free Energy Summary **************
 G_electrostatic  =      -0.32514307 hartree =    -204.03035591 kcal/mol
 G_cavitation     =       0.00000000 hartree =       0.00000000 kcal/mol
 G_dispersion     =       0.00000000 hartree =       0.00000000 kcal/mol
 G_repulsion      =       0.00000000 hartree =       0.00000000 kcal/mol
 --------------------------------------------------
 Non-electrostatic Free Energy =       0.00000000 hartree =       0.00000000 kcal/mol
 Total                         =      -0.32514307 hartree =    -204.03035591 kcal/mol
 --------------------------------------------------
 SCF Energy (H0 + V/2)                       =    -571.72147391 
 Solute Internal Energy (H0)                 =    -571.39633084 
 Total Free Energy (H0 + V/2 + non-elec)     =    -571.72147391 hartree
                                             = -358760.63964975 kcal/mol
***********************************************************

 SCF time:  CPU 3804.94 s  wall 269.25 s
 SCF   energy in the final basis set = -571.72147391
 Total energy in the final basis set = -571.72147391
 
 --------------------------------------------------------------
 
                    Orbital Energies (a.u.)
 --------------------------------------------------------------
 
 Alpha MOs
 -- Occupied --
-19.208 -19.199 -19.137 -19.137 -19.132 -10.345 -10.338 -10.244
-10.243 -10.241  -1.180  -1.141  -1.115  -1.046  -0.929  -0.882
 -0.824  -0.772  -0.665  -0.605  -0.593  -0.573  -0.563  -0.533
 -0.516  -0.511  -0.507  -0.484  -0.466  -0.455  -0.443  -0.433
 -0.416  -0.404  -0.377  -0.346  -0.333  -0.327  -0.297  -0.270
 -- Virtual --
  0.062   0.072   0.079   0.084   0.100   0.104   0.108   0.115
  0.122   0.138   0.145   0.146   0.149   0.154   0.169   0.174
  0.176   0.184   0.190   0.195   0.205   0.206   0.217   0.219
  0.226   0.229   0.238   0.256   0.258   0.260   0.276   0.285
  0.288   0.289   0.302   0.303   0.308   0.315   0.322   0.327
  0.330   0.338   0.347   0.349   0.356   0.359   0.364   0.373
  0.379   0.381   0.389   0.393   0.394   0.400   0.410   0.413
  0.420   0.422   0.425   0.428   0.444   0.447   0.453   0.455
  0.463   0.468   0.478   0.481   0.486   0.490   0.495   0.502
  0.510   0.520   0.524   0.527   0.541   0.541   0.550   0.559
  0.564   0.573   0.575   0.579   0.584   0.586   0.592   0.602
  0.602   0.613   0.622   0.627   0.635   0.639   0.645   0.665
  0.674   0.684   0.695   0.698   0.705   0.710   0.716   0.720
  0.725   0.733   0.736   0.743   0.750   0.750   0.756   0.764
  0.770   0.778   0.788   0.802   0.804   0.808   0.811   0.826
  0.827   0.838   0.844   0.848   0.851   0.859   0.863   0.870
  0.883   0.889   0.892   0.896   0.903   0.914   0.927   0.936
  0.949   0.954   0.979   0.983   0.993   1.018   1.033   1.041
  1.052   1.054   1.065   1.082   1.098   1.116   1.123   1.140
  1.157   1.161   1.171   1.181   1.197   1.202   1.220   1.225
  1.247   1.266   1.277   1.295   1.303   1.325   1.331   1.341
  1.351   1.381   1.399   1.405   1.426   1.433   1.451   1.468
  1.477   1.490   1.507   1.523   1.538   1.552   1.575   1.590
  1.613   1.631   1.657   1.672   1.705   1.729   1.830   1.837
  1.864   1.893   1.911   1.919   1.929   1.933   1.949   1.960
  1.978   1.983   1.994   1.999   2.006   2.031   2.037   2.062
  2.078   2.096   2.111   2.114   2.123   2.135   2.167   2.171
  2.191   2.224   2.227   2.252   2.262   2.280   2.316   2.324
  2.341   2.359   2.365   2.388   2.400   2.404   2.444   2.448
  2.474   2.481   2.496   2.501   2.507   2.524   2.556   2.604
  2.612   2.627   2.644   2.665   2.700   2.721   2.734   2.774
  2.789   2.799   2.810   2.842   2.859   2.888   2.890   2.904
  2.925   2.937   2.966   2.987   2.997   3.022   3.031   3.074
  3.084   3.112   3.130   3.160   3.186   3.205   3.222   3.232
  3.261   3.272   3.289   3.315   3.319   3.331   3.347   3.356
  3.371   3.401   3.412   3.424   3.434   3.448   3.478   3.491
  3.513   3.520   3.547   3.565   3.578   3.615   3.621   3.647
  3.664   3.666   3.680   3.684   3.712   3.720   3.737   3.741
  3.755   3.771   3.778   3.787   3.826   3.846   3.860   3.869
  3.899   3.916   3.930   3.964   4.032   4.048   4.089   4.123
  4.170   4.194   4.223   4.265   4.290   4.335   4.368   4.383
  4.401   4.445   4.467   4.474   4.616   4.671   4.685   4.731
  4.796   4.822   4.855   4.911   4.930   4.960   4.992   5.035
  5.069   5.134   5.169   5.216   5.252   5.313   5.333   5.356
  5.370   5.374   5.383   5.406   5.411   5.444   5.501   5.507
  5.568   5.624   5.661   5.712   5.720   5.726   5.783   5.865
  5.958   6.001   6.027   6.119   6.262   6.263   6.293   6.307
  6.335   6.340   6.503   6.627   6.643   6.647   6.673   6.711
  6.724   6.749   6.772   6.784   6.788   6.899   6.927   6.954
  6.967   6.991   7.070   7.121   7.174   7.227   7.241   7.354
  7.373   7.387   7.413   7.423   7.528   7.578   8.315  22.790
 22.858  22.965  23.074  23.759  44.210  44.427  44.471  44.520
 44.758
 --------------------------------------------------------------
 
          Ground-State Mulliken Net Atomic Charges

     Atom                 Charge (a.u.)
  ----------------------------------------
      1 C                    -1.162430
      2 C                     0.636174
      3 H                     0.213421
      4 H                     0.309449
      5 H                     0.239179
      6 C                    -0.213496
      7 C                    -0.163147
      8 H                     0.212732
      9 H                     0.157734
     10 H                     0.187850
     11 H                     0.115639
     12 O                    -0.530183
     13 O                    -0.251313
     14 O                    -0.856746
     15 H                     0.387761
     16 C                     0.153013
     17 O                    -0.722929
     18 O                    -0.712706
  ----------------------------------------
  Sum of atomic charges =    -2.000000

 -----------------------------------------------------------------
                    Cartesian Multipole Moments
 -----------------------------------------------------------------
    Charge (ESU x 10^10)
                -9.6064
    Dipole Moment (Debye)
         X      -0.8043      Y       1.0097      Z      -4.9686
       Tot       5.1336
    Quadrupole Moments (Debye-Ang)
        XX     -65.5764     XY      13.8448     YY    -133.9864
        XZ       9.3719     YZ     -12.2817     ZZ     -85.5814
    Octopole Moments (Debye-Ang^2)
       XXX      30.6368    XXY       8.2260    XYY       3.0036
       YYY      17.9812    XXZ      -3.9755    XYZ       7.6184
       YYZ     -35.9560    XZZ      12.1955    YZZ      -9.0886
       ZZZ       2.0591
    Hexadecapole Moments (Debye-Ang^3)
      XXXX    -504.9967   XXXY     181.7456   XXYY    -307.6645
      XYYY     292.6346   YYYY   -1777.9086   XXXZ       4.3921
      XXYZ     -41.1630   XYYZ      38.1339   YYYZ     -77.9911
      XXZZ    -166.5507   XYZZ      93.2958   YYZZ    -400.4532
      XZZZ     -20.2877   YZZZ     -33.3223   ZZZZ    -473.9125
 -----------------------------------------------------------------
 Calculating analytic gradient of the SCF energy
 Gradient of SCF Energy
            1           2           3           4           5           6
    1  -0.0304491  -0.0001025  -0.0227351   0.0744247  -0.0335790   0.0369160
    2  -0.0864237  -0.0424306   0.0589636  -0.0231339   0.0294035   0.0861370
    3  -0.0128299   0.0727699  -0.0755334   0.0052749   0.0768345  -0.1140911
            7           8           9          10          11          12
    1  -0.0052676   0.0010784  -0.0446627  -0.0510593   0.0329520  -0.0260984
    2   0.0603088   0.0319522  -0.0647427   0.0052351  -0.0371598   0.0159471
    3   0.1110261   0.0619811  -0.0024943  -0.0202518  -0.0674207  -0.0047176
           13          14          15          16          17          18
    1  -0.0278167   0.0321106   0.0611237  -0.0096430   0.0209217  -0.0081136
    2  -0.0496839   0.0307111  -0.0242124  -0.0574766   0.0422896   0.0243154
    3  -0.0317148   0.0182744   0.0009830  -0.0412349  -0.0354156   0.0585601
 Max gradient component =       1.141E-01
 RMS gradient           =       4.768E-02
 Computing fast CPCM-ISWIG gradient
 Updating gradient with PCM contributions...
 -- total gradient after adding PCM contribution --
---------------------------------------------------
  Atom         X              Y              Z     
---------------------------------------------------
   1       0.001014      -0.000081      -0.000022
   2      -0.000242      -0.000127      -0.000015
   3      -0.000091       0.000031      -0.000037
   4      -0.000535       0.000154       0.000005
   5      -0.000114       0.000038       0.000103
   6      -0.000054      -0.000071      -0.000016
   7       0.000008      -0.000002       0.000001
   8       0.000002       0.000000      -0.000000
   9      -0.000009       0.000000      -0.000004
  10       0.000002      -0.000004      -0.000005
  11       0.000004       0.000013       0.000002
  12       0.000007       0.000023      -0.000007
  13       0.000020       0.000024      -0.000010
  14      -0.000010      -0.000009       0.000013
  15       0.000003      -0.000002      -0.000003
  16      -0.000001       0.000011       0.000002
  17      -0.000002       0.000003      -0.000008
  18      -0.000000      -0.000001       0.000001
---------------------------------------------------
 Number of fixed atoms: 0
 Gradient time:  CPU 971.79 s  wall 69.14 s
 ----------------------------------------------------------------
             Standard Nuclear Orientation (Angstroms)
    I     Atom           X                Y                Z
 ----------------------------------------------------------------
    1      C      -1.8320214522    -0.1958348186    -0.7486908915
    2      C      -0.9103285446     0.9847723850    -0.4513953136
    3      H      -1.7243565447    -0.9776491887     0.0068528374
    4      H      -2.8716328972     0.1450207973    -0.7520132615
    5      H      -1.5927420006    -0.6147295505    -1.7292096772
    6      C       0.5744653544     0.6238115441    -0.5020709115
    7      C       0.9942533886    -0.4383826138     0.5126724987
    8      H       0.8086734225     0.2821889328    -1.5145661707
    9      H       1.1266033858     1.5483869576    -0.3220294983
   10      H       2.0738546566    -0.3479303925     0.6900814270
   11      H       0.5005160546    -0.2593155339     1.4712443461
   12      O      -1.0848044670     1.9839203969    -1.4673172671
   13      O      -1.3363003831     1.4551949788     0.7968854487
   14      O      -0.5111312933     2.5386292614     1.3064790508
   15      H      -2.0111853376     2.2553832625    -1.4359521381
   16      C       0.7707016694    -1.9029593080     0.0979740485
   17      O       0.3858010661    -2.7003222634     0.9965768585
   18      O       1.0286032942    -2.2214150122    -1.0919704735
 ----------------------------------------------------------------
 Nuclear Repulsion Energy =   562.0528228785 hartrees
 There are       40 alpha and       40 beta electrons
 Discretize the solute cavity surface with Lebedev spheres
	Using 110 Lebedev grid points for each H atom
	Using 110 Lebedev grid points for other atoms
	Atomic van der Waals radii will be scaled by 1.20
 Remove points where switching function is < 1.0e-08
 Keep 1042 surface tesserae and discard 938 interior tesserae
 Molecular Surface Area = 183.412 Angst**2
 Requested basis set is def2-TZVPD
 There are 175 shells and 457 basis functions
 A cutoff of  1.0D-14 yielded  14380 shell pairs
 There are     98786 function pairs (    126008 Cartesian)
 Smallest overlap matrix eigenvalue = 2.72E-06
 Guess MOs from SCF MO coefficient file
 Reading MOs from coefficient file
 Reading MOs from coefficient file
 Long-range K will be added via erf
 Coulomb attenuation parameter = 0.3 bohr**(-1)
 A restricted hybrid HF-DFT SCF calculation will be
 performed using Pulay DIIS extrapolation
 Polarizable Continuum solvation model will be applied
 Exchange:     0.1670 Hartree-Fock + 1.0000 wB97X-V + LR-HF
 Correlation:  1.0000 wB97X-V
 Using SG-2 standard quadrature grid
 Nonlocal Correlation:  VV10 with C = 0.0100 and b = 6.00
 Grid used for NLC:  SG-1 standard quadrature
 SCF converges when DIIS error is below 1.0E-08
Using Q-Chem read-in guess as SCF_GUESS READ specified.

 using 16 threads for integral computing
 -------------------------------------------------------
 OpenMP Integral computing Module                
 Release: version 1.0, May 2013, Q-Chem Inc. Pittsburgh 
 -------------------------------------------------------
 using 16 threads for integral computing
 -------------------------------------------------------
 OpenMP Integral computing Module                
 Release: version 1.0, May 2013, Q-Chem Inc. Pittsburgh 
 -------------------------------------------------------
 -------------------------------------------------------
 OpenMP BLAS3 based DFT computing Module                
 Release: version 1.0, May 2013, Q-Chem Inc. Pittsburgh 
 -------------------------------------------------------
 -------------------------------------------------------
 OpenMP BLAS3 based DFT computing Module                
 Release: version 1.0, May 2013, Q-Chem Inc. Pittsburgh 
 -------------------------------------------------------
 -------------------------------------------------------
 OpenMP BLAS3 based DFT computing Module                
 Release: version 1.0, May 2013, Q-Chem Inc. Pittsburgh 
 -------------------------------------------------------
 ---------------------------------------
  Cycle       Energy         DIIS Error
 ---------------------------------------
    1    -571.3968708454      3.84E-04
    2    -571.7124175363      4.28E-04
    3    -571.7189520980      1.92E-04
    4    -571.7199741408      1.41E-04
    5    -571.7205767128      1.08E-04
    6    -571.7209214280      8.48E-05
    7    -571.7212470789      5.43E-05
    8    -571.7214127440      2.82E-05
    9    -571.7214673721      9.23E-06
   10    -571.7214735577      2.09E-06
   11    -571.7214738650      4.24E-07
   12    -571.7214738771      1.06E-07
   13    -571.7214738777      2.61E-08
   14    -571.7214738778      7.26E-09 Convergence criterion met
 ---------------------------------------

************** Final PCM Free Energy Summary **************
 G_electrostatic  =      -0.32514950 hartree =    -204.03439294 kcal/mol
 G_cavitation     =       0.00000000 hartree =       0.00000000 kcal/mol
 G_dispersion     =       0.00000000 hartree =       0.00000000 kcal/mol
 G_repulsion      =       0.00000000 hartree =       0.00000000 kcal/mol
 --------------------------------------------------
 Non-electrostatic Free Energy =       0.00000000 hartree =       0.00000000 kcal/mol
 Total                         =      -0.32514950 hartree =    -204.03439294 kcal/mol
 --------------------------------------------------
 SCF Energy (H0 + V/2)                       =    -571.72147388 
 Solute Internal Energy (H0)                 =    -571.39632437 
 Total Free Energy (H0 + V/2 + non-elec)     =    -571.72147388 hartree
                                             = -358760.63963237 kcal/mol
***********************************************************

 SCF time:  CPU 3808.63 s  wall 269.20 s
 SCF   energy in the final basis set = -571.72147388
 Total energy in the final basis set = -571.72147388
 
 --------------------------------------------------------------
 
                    Orbital Energies (a.u.)
 --------------------------------------------------------------
 
 Alpha MOs
 -- Occupied --
-19.208 -19.199 -19.137 -19.137 -19.132 -10.345 -10.338 -10.244
-10.243 -10.241  -1.180  -1.141  -1.115  -1.046  -0.928  -0.882
 -0.824  -0.772  -0.665  -0.605  -0.593  -0.573  -0.563  -0.533
 -0.516  -0.511  -0.507  -0.484  -0.466  -0.455  -0.443  -0.433
 -0.416  -0.404  -0.377  -0.346  -0.333  -0.327  -0.297  -0.270
 -- Virtual --
  0.062   0.072   0.079   0.084   0.100   0.104   0.108   0.115
  0.122   0.138   0.145   0.146   0.149   0.154   0.169   0.174
  0.176   0.184   0.190   0.195   0.205   0.206   0.217   0.219
  0.226   0.229   0.238   0.256   0.258   0.260   0.276   0.285
  0.288   0.289   0.302   0.303   0.308   0.315   0.322   0.327
  0.330   0.338   0.347   0.349   0.356   0.359   0.364   0.373
  0.379   0.381   0.389   0.393   0.394   0.400   0.410   0.413
  0.420   0.422   0.425   0.428   0.444   0.447   0.453   0.455
  0.463   0.468   0.478   0.481   0.486   0.490   0.494   0.502
  0.510   0.520   0.524   0.527   0.541   0.541   0.550   0.558
  0.564   0.573   0.575   0.579   0.584   0.586   0.592   0.602
  0.602   0.613   0.622   0.627   0.635   0.638   0.645   0.665
  0.674   0.684   0.695   0.698   0.705   0.710   0.716   0.720
  0.725   0.733   0.736   0.743   0.750   0.750   0.756   0.764
  0.770   0.778   0.788   0.802   0.804   0.808   0.811   0.826
  0.827   0.838   0.844   0.848   0.851   0.859   0.863   0.871
  0.883   0.889   0.892   0.896   0.903   0.914   0.927   0.936
  0.949   0.954   0.979   0.983   0.993   1.018   1.033   1.041
  1.052   1.054   1.065   1.082   1.098   1.115   1.123   1.140
  1.157   1.161   1.171   1.181   1.197   1.202   1.220   1.225
  1.247   1.266   1.277   1.295   1.303   1.325   1.331   1.341
  1.351   1.381   1.398   1.405   1.425   1.432   1.451   1.468
  1.477   1.490   1.507   1.523   1.538   1.552   1.575   1.590
  1.613   1.631   1.657   1.671   1.705   1.729   1.830   1.837
  1.864   1.893   1.911   1.919   1.929   1.933   1.949   1.960
  1.978   1.983   1.994   1.999   2.006   2.031   2.037   2.062
  2.078   2.096   2.111   2.114   2.123   2.135   2.167   2.171
  2.191   2.224   2.227   2.252   2.262   2.280   2.316   2.324
  2.341   2.359   2.365   2.388   2.399   2.404   2.444   2.448
  2.474   2.481   2.496   2.501   2.507   2.524   2.555   2.604
  2.612   2.627   2.644   2.665   2.700   2.721   2.734   2.774
  2.789   2.799   2.810   2.842   2.858   2.888   2.890   2.904
  2.926   2.937   2.965   2.987   2.997   3.022   3.031   3.074
  3.083   3.112   3.130   3.160   3.186   3.205   3.222   3.232
  3.261   3.272   3.289   3.315   3.319   3.331   3.347   3.356
  3.371   3.402   3.412   3.424   3.434   3.448   3.478   3.491
  3.513   3.520   3.547   3.565   3.578   3.615   3.621   3.647
  3.664   3.666   3.680   3.683   3.712   3.719   3.736   3.740
  3.755   3.771   3.778   3.787   3.826   3.846   3.860   3.868
  3.899   3.916   3.930   3.964   4.032   4.048   4.088   4.123
  4.169   4.194   4.222   4.265   4.290   4.335   4.368   4.383
  4.400   4.445   4.467   4.474   4.616   4.671   4.689   4.730
  4.795   4.822   4.855   4.911   4.930   4.960   4.992   5.035
  5.069   5.134   5.169   5.216   5.252   5.313   5.333   5.356
  5.369   5.374   5.383   5.406   5.411   5.444   5.501   5.507
  5.568   5.624   5.661   5.712   5.720   5.726   5.783   5.865
  5.958   6.001   6.026   6.119   6.262   6.263   6.293   6.307
  6.335   6.340   6.503   6.627   6.643   6.647   6.673   6.711
  6.724   6.749   6.772   6.784   6.788   6.899   6.927   6.954
  6.967   6.991   7.070   7.121   7.174   7.227   7.241   7.354
  7.373   7.387   7.413   7.423   7.528   7.578   8.315  22.791
 22.858  22.965  23.073  23.759  44.210  44.427  44.471  44.520
 44.758
 --------------------------------------------------------------
 
          Ground-State Mulliken Net Atomic Charges

     Atom                 Charge (a.u.)
  ----------------------------------------
      1 C                    -1.161259
      2 C                     0.633780
      3 H                     0.212834
      4 H                     0.310861
      5 H                     0.238640
      6 C                    -0.212186
      7 C                    -0.163284
      8 H                     0.212462
      9 H                     0.157924
     10 H                     0.187879
     11 H                     0.115638
     12 O                    -0.530163
     13 O                    -0.251221
     14 O                    -0.856833
     15 H                     0.387643
     16 C                     0.152901
     17 O                    -0.722924
     18 O                    -0.712691
  ----------------------------------------
  Sum of atomic charges =    -2.000000

 -----------------------------------------------------------------
                    Cartesian Multipole Moments
 -----------------------------------------------------------------
    Charge (ESU x 10^10)
                -9.6064
    Dipole Moment (Debye)
         X      -0.8041      Y       1.0112      Z      -4.9684
       Tot       5.1337
    Quadrupole Moments (Debye-Ang)
        XX     -65.5683     XY      13.8388     YY    -133.9889
        XZ       9.3712     YZ     -12.2850     ZZ     -85.5846
    Octopole Moments (Debye-Ang^2)
       XXX      30.6324    XXY       8.2455    XYY       3.0204
       YYY      17.9737    XXZ      -3.9793    XYZ       7.6241
       YYZ     -35.9576    XZZ      12.2103    YZZ      -9.0883
       ZZZ       2.0640
    Hexadecapole Moments (Debye-Ang^3)
      XXXX    -505.0412   XXXY     181.6844   XXYY    -307.7006
      XYYY     292.6171   YYYY   -1777.9393   XXXZ       4.3922
      XXYZ     -41.1796   XYYZ      38.1249   YYYZ     -78.0070
      XXZZ    -166.5873   XYZZ      93.2822   YYZZ    -400.4663
      XZZZ     -20.3218   YZZZ     -33.3369   ZZZZ    -473.9401
 -----------------------------------------------------------------
 Calculating analytic gradient of the SCF energy
 Gradient of SCF Energy
            1           2           3           4           5           6
    1  -0.0321672   0.0002437  -0.0227229   0.0756364  -0.0335035   0.0371470
    2  -0.0861206  -0.0420449   0.0587993  -0.0235032   0.0293015   0.0860855
    3  -0.0127217   0.0727670  -0.0753886   0.0053221   0.0765354  -0.1141289
            7           8           9          10          11          12
    1  -0.0053512   0.0010351  -0.0446258  -0.0510472   0.0329661  -0.0261088
    2   0.0603028   0.0319408  -0.0646911   0.0052444  -0.0371570   0.0159266
    3   0.1110520   0.0619660  -0.0024566  -0.0202642  -0.0674181  -0.0047636
           13          14          15          16          17          18
    1  -0.0278351   0.0321043   0.0611174  -0.0096848   0.0209120  -0.0081155
    2  -0.0496997   0.0307126  -0.0242323  -0.0574715   0.0422912   0.0243158
    3  -0.0316710   0.0182751   0.0010027  -0.0412516  -0.0354151   0.0585590
 Max gradient component =       1.141E-01
 RMS gradient           =       4.770E-02
 Computing fast CPCM-ISWIG gradient
 Updating gradient with PCM contributions...
 -- total gradient after adding PCM contribution --
---------------------------------------------------
  Atom         X              Y              Z     
---------------------------------------------------
   1      -0.001031       0.000103       0.000031
   2       0.000255       0.000105       0.000045
   3       0.000100      -0.000037       0.000034
   4       0.000543      -0.000157       0.000005
   5       0.000112      -0.000044      -0.000099
   6       0.000029       0.000022       0.000009
   7       0.000007      -0.000003       0.000000
   8      -0.000003       0.000001       0.000001
   9       0.000011      -0.000003      -0.000003
  10       0.000002      -0.000003      -0.000005
  11       0.000003       0.000012       0.000002
  12      -0.000007       0.000008      -0.000006
  13      -0.000004       0.000009      -0.000011
  14      -0.000016      -0.000017       0.000003
  15      -0.000006      -0.000007      -0.000003
  16       0.000001       0.000011       0.000001
  17      -0.000000       0.000001      -0.000008
  18       0.000004      -0.000003       0.000003
---------------------------------------------------
 Number of fixed atoms: 0
 Gradient time:  CPU 1008.73 s  wall 71.31 s
 ----------------------------------------------------------------
             Standard Nuclear Orientation (Angstroms)
    I     Atom           X                Y                Z
 ----------------------------------------------------------------
    1      C      -1.8310214522    -0.1948348186    -0.7486908915
    2      C      -0.9103285446     0.9847723850    -0.4513953136
    3      H      -1.7243565447    -0.9776491887     0.0068528374
    4      H      -2.8716328972     0.1450207973    -0.7520132615
    5      H      -1.5927420006    -0.6147295505    -1.7292096772
    6      C       0.5744653544     0.6238115441    -0.5020709115
    7      C       0.9942533886    -0.4383826138     0.5126724987
    8      H       0.8086734225     0.2821889328    -1.5145661707
    9      H       1.1266033858     1.5483869576    -0.3220294983
   10      H       2.0738546566    -0.3479303925     0.6900814270
   11      H       0.5005160546    -0.2593155339     1.4712443461
   12      O      -1.0848044670     1.9839203969    -1.4673172671
   13      O      -1.3363003831     1.4551949788     0.7968854487
   14      O      -0.5111312933     2.5386292614     1.3064790508
   15      H      -2.0111853376     2.2553832625    -1.4359521381
   16      C       0.7707016694    -1.9029593080     0.0979740485
   17      O       0.3858010661    -2.7003222634     0.9965768585
   18      O       1.0286032942    -2.2214150122    -1.0919704735
 ----------------------------------------------------------------
 Nuclear Repulsion Energy =   562.0798995549 hartrees
 There are       40 alpha and       40 beta electrons
 Discretize the solute cavity surface with Lebedev spheres
	Using 110 Lebedev grid points for each H atom
	Using 110 Lebedev grid points for other atoms
	Atomic van der Waals radii will be scaled by 1.20
 Remove points where switching function is < 1.0e-08
 Keep 1042 surface tesserae and discard 938 interior tesserae
 Molecular Surface Area = 183.402 Angst**2
 Requested basis set is def2-TZVPD
 There are 175 shells and 457 basis functions
 A cutoff of  1.0D-14 yielded  14380 shell pairs
 There are     98786 function pairs (    126008 Cartesian)
 Smallest overlap matrix eigenvalue = 2.71E-06
 Guess MOs from SCF MO coefficient file
 Reading MOs from coefficient file
 Reading MOs from coefficient file
 Long-range K will be added via erf
 Coulomb attenuation parameter = 0.3 bohr**(-1)
 A restricted hybrid HF-DFT SCF calculation will be
 performed using Pulay DIIS extrapolation
 Polarizable Continuum solvation model will be applied
 Exchange:     0.1670 Hartree-Fock + 1.0000 wB97X-V + LR-HF
 Correlation:  1.0000 wB97X-V
 Using SG-2 standard quadrature grid
 Nonlocal Correlation:  VV10 with C = 0.0100 and b = 6.00
 Grid used for NLC:  SG-1 standard quadrature
 SCF converges when DIIS error is below 1.0E-08
Using Q-Chem read-in guess as SCF_GUESS READ specified.

 using 16 threads for integral computing
 -------------------------------------------------------
 OpenMP Integral computing Module                
 Release: version 1.0, May 2013, Q-Chem Inc. Pittsburgh 
 -------------------------------------------------------
 using 16 threads for integral computing
 -------------------------------------------------------
 OpenMP Integral computing Module                
 Release: version 1.0, May 2013, Q-Chem Inc. Pittsburgh 
 -------------------------------------------------------
 -------------------------------------------------------
 OpenMP BLAS3 based DFT computing Module                
 Release: version 1.0, May 2013, Q-Chem Inc. Pittsburgh 
 -------------------------------------------------------
 -------------------------------------------------------
 OpenMP BLAS3 based DFT computing Module                
 Release: version 1.0, May 2013, Q-Chem Inc. Pittsburgh 
 -------------------------------------------------------
 -------------------------------------------------------
 OpenMP BLAS3 based DFT computing Module                
 Release: version 1.0, May 2013, Q-Chem Inc. Pittsburgh 
 -------------------------------------------------------
 ---------------------------------------
  Cycle       Energy         DIIS Error
 ---------------------------------------
    1    -571.3958133940      3.85E-04
    2    -571.7123994690      4.29E-04
    3    -571.7189508904      1.92E-04
    4    -571.7199744394      1.41E-04
    5    -571.7205755104      1.08E-04
    6    -571.7209078828      8.58E-05
    7    -571.7212040818      5.92E-05
    8    -571.7213772073      3.55E-05
    9    -571.7214579755      1.44E-05
   10    -571.7214727164      3.94E-06
   11    -571.7214738192      9.38E-07
   12    -571.7214738817      1.86E-07
   13    -571.7214738840      2.81E-08
   14    -571.7214738841      8.86E-09 Convergence criterion met
 ---------------------------------------

************** Final PCM Free Energy Summary **************
 G_electrostatic  =      -0.32515195 hartree =    -204.03593019 kcal/mol
 G_cavitation     =       0.00000000 hartree =       0.00000000 kcal/mol
 G_dispersion     =       0.00000000 hartree =       0.00000000 kcal/mol
 G_repulsion      =       0.00000000 hartree =       0.00000000 kcal/mol
 --------------------------------------------------
 Non-electrostatic Free Energy =       0.00000000 hartree =       0.00000000 kcal/mol
 Total                         =      -0.32515195 hartree =    -204.03593019 kcal/mol
 --------------------------------------------------
 SCF Energy (H0 + V/2)                       =    -571.72147388 
 Solute Internal Energy (H0)                 =    -571.39632193 
 Total Free Energy (H0 + V/2 + non-elec)     =    -571.72147388 hartree
                                             = -358760.63963633 kcal/mol
***********************************************************

 SCF time:  CPU 3869.69 s  wall 273.72 s
 SCF   energy in the final basis set = -571.72147388
 Total energy in the final basis set = -571.72147388
 
 --------------------------------------------------------------
 
                    Orbital Energies (a.u.)
 --------------------------------------------------------------
 
 Alpha MOs
 -- Occupied --
-19.208 -19.199 -19.137 -19.137 -19.132 -10.345 -10.338 -10.244
-10.243 -10.241  -1.180  -1.141  -1.115  -1.046  -0.929  -0.882
 -0.824  -0.772  -0.665  -0.605  -0.593  -0.573  -0.563  -0.533
 -0.516  -0.511  -0.507  -0.484  -0.466  -0.455  -0.443  -0.433
 -0.416  -0.404  -0.377  -0.346  -0.333  -0.327  -0.297  -0.270
 -- Virtual --
  0.062   0.072   0.079   0.084   0.100   0.104   0.108   0.115
  0.122   0.138   0.145   0.146   0.149   0.154   0.169   0.174
  0.176   0.184   0.190   0.195   0.205   0.206   0.217   0.219
  0.226   0.229   0.238   0.256   0.258   0.260   0.276   0.285
  0.288   0.289   0.302   0.303   0.308   0.315   0.322   0.327
  0.330   0.338   0.347   0.349   0.356   0.359   0.364   0.373
  0.379   0.381   0.389   0.393   0.394   0.400   0.410   0.413
  0.420   0.422   0.425   0.428   0.444   0.447   0.453   0.455
  0.463   0.468   0.478   0.481   0.486   0.490   0.495   0.502
  0.510   0.520   0.524   0.527   0.541   0.541   0.550   0.559
  0.564   0.573   0.575   0.579   0.584   0.586   0.592   0.602
  0.602   0.613   0.622   0.627   0.635   0.639   0.645   0.665
  0.674   0.684   0.695   0.698   0.705   0.710   0.716   0.720
  0.725   0.733   0.736   0.743   0.750   0.750   0.756   0.764
  0.770   0.778   0.788   0.802   0.804   0.808   0.811   0.826
  0.827   0.838   0.844   0.848   0.851   0.859   0.863   0.870
  0.883   0.889   0.892   0.896   0.903   0.914   0.927   0.936
  0.949   0.954   0.979   0.983   0.993   1.018   1.033   1.041
  1.052   1.054   1.065   1.082   1.098   1.116   1.123   1.140
  1.157   1.161   1.171   1.181   1.197   1.202   1.220   1.225
  1.247   1.266   1.277   1.295   1.303   1.325   1.331   1.341
  1.351   1.381   1.398   1.405   1.425   1.433   1.451   1.468
  1.477   1.490   1.507   1.523   1.538   1.552   1.575   1.590
  1.613   1.631   1.657   1.672   1.705   1.729   1.830   1.837
  1.864   1.893   1.911   1.919   1.929   1.933   1.949   1.960
  1.978   1.983   1.994   1.999   2.006   2.031   2.037   2.062
  2.078   2.096   2.111   2.114   2.123   2.135   2.167   2.171
  2.191   2.224   2.228   2.252   2.262   2.280   2.316   2.324
  2.341   2.359   2.365   2.388   2.399   2.404   2.444   2.448
  2.474   2.481   2.496   2.501   2.507   2.524   2.555   2.604
  2.612   2.627   2.644   2.665   2.700   2.721   2.734   2.774
  2.789   2.799   2.810   2.842   2.858   2.888   2.890   2.904
  2.925   2.937   2.965   2.987   2.997   3.022   3.031   3.074
  3.084   3.112   3.130   3.160   3.186   3.205   3.222   3.232
  3.261   3.272   3.289   3.315   3.319   3.331   3.347   3.356
  3.371   3.402   3.412   3.424   3.434   3.448   3.478   3.491
  3.512   3.520   3.547   3.565   3.578   3.615   3.621   3.647
  3.664   3.666   3.680   3.683   3.712   3.720   3.737   3.741
  3.756   3.771   3.778   3.787   3.826   3.846   3.860   3.868
  3.899   3.916   3.930   3.964   4.032   4.048   4.089   4.123
  4.170   4.194   4.222   4.265   4.290   4.335   4.368   4.383
  4.401   4.445   4.467   4.474   4.616   4.671   4.687   4.730
  4.795   4.822   4.855   4.911   4.930   4.960   4.992   5.035
  5.069   5.134   5.169   5.216   5.252   5.313   5.333   5.356
  5.370   5.374   5.383   5.406   5.411   5.444   5.501   5.507
  5.568   5.624   5.661   5.712   5.720   5.726   5.783   5.865
  5.958   6.001   6.027   6.119   6.262   6.263   6.293   6.307
  6.335   6.340   6.503   6.627   6.643   6.647   6.673   6.711
  6.724   6.749   6.772   6.784   6.788   6.899   6.927   6.954
  6.967   6.991   7.070   7.121   7.174   7.227   7.241   7.354
  7.373   7.387   7.413   7.423   7.528   7.579   8.315  22.790
 22.858  22.965  23.074  23.759  44.211  44.427  44.471  44.520
 44.758
 --------------------------------------------------------------
 
          Ground-State Mulliken Net Atomic Charges

     Atom                 Charge (a.u.)
  ----------------------------------------
      1 C                    -1.162542
      2 C                     0.636044
      3 H                     0.212618
      4 H                     0.310393
      5 H                     0.238938
      6 C                    -0.212890
      7 C                    -0.163251
      8 H                     0.212651
      9 H                     0.157811
     10 H                     0.187880
     11 H                     0.115626
     12 O                    -0.530242
     13 O                    -0.251256
     14 O                    -0.856816
     15 H                     0.387691
     16 C                     0.152965
     17 O                    -0.722925
     18 O                    -0.712694
  ----------------------------------------
  Sum of atomic charges =    -2.000000

 -----------------------------------------------------------------
                    Cartesian Multipole Moments
 -----------------------------------------------------------------
    Charge (ESU x 10^10)
                -9.6064
    Dipole Moment (Debye)
         X      -0.8047      Y       1.0097      Z      -4.9686
       Tot       5.1336
    Quadrupole Moments (Debye-Ang)
        XX     -65.5678     XY      13.8436     YY    -133.9891
        XZ       9.3724     YZ     -12.2819     ZZ     -85.5850
    Octopole Moments (Debye-Ang^2)
       XXX      30.6182    XXY       8.2271    XYY       3.0135
       YYY      17.9565    XXZ      -3.9820    XYZ       7.6179
       YYZ     -35.9566    XZZ      12.2051    YZZ      -9.0958
       ZZZ       2.0656
    Hexadecapole Moments (Debye-Ang^3)
      XXXX    -504.9459   XXXY     181.7558   XXYY    -307.6785
      XYYY     292.6588   YYYY   -1777.9311   XXXZ       4.4089
      XXYZ     -41.1604   XYYZ      38.1299   YYYZ     -77.9826
      XXZZ    -166.5684   XYZZ      93.3010   YYZZ    -400.4629
      XZZZ     -20.3095   YZZZ     -33.3159   ZZZZ    -473.9432
 -----------------------------------------------------------------
 Calculating analytic gradient of the SCF energy
 Gradient of SCF Energy
            1           2           3           4           5           6
    1  -0.0315241  -0.0000758  -0.0226506   0.0752260  -0.0334504   0.0370635
    2  -0.0855904  -0.0423962   0.0585557  -0.0233913   0.0292643   0.0861818
    3  -0.0128140   0.0726565  -0.0751116   0.0052954   0.0764799  -0.1141055
            7           8           9          10          11          12
    1  -0.0053142   0.0010486  -0.0446357  -0.0510443   0.0329569  -0.0261161
    2   0.0603227   0.0319349  -0.0647044   0.0052308  -0.0371563   0.0158841
    3   0.1110524   0.0619707  -0.0024628  -0.0202589  -0.0674262  -0.0047261
           13          14          15          16          17          18
    1  -0.0278298   0.0321037   0.0611239  -0.0096868   0.0209171  -0.0081118
    2  -0.0497244   0.0307176  -0.0242463  -0.0574890   0.0422922   0.0243143
    3  -0.0317050   0.0182742   0.0009843  -0.0412463  -0.0354164   0.0585594
 Max gradient component =       1.141E-01
 RMS gradient           =       4.766E-02
 Computing fast CPCM-ISWIG gradient
 Updating gradient with PCM contributions...
 -- total gradient after adding PCM contribution --
---------------------------------------------------
  Atom         X              Y              Z     
---------------------------------------------------
   1      -0.000098       0.001019      -0.000023
   2      -0.000088      -0.000275      -0.000018
   3       0.000042      -0.000353       0.000255
   4       0.000154      -0.000141       0.000005
   5       0.000043      -0.000164      -0.000176
   6      -0.000011      -0.000008      -0.000002
   7       0.000006      -0.000001       0.000000
   8      -0.000001       0.000001       0.000000
   9       0.000007      -0.000001      -0.000004
  10       0.000002      -0.000004      -0.000005
  11       0.000004       0.000012       0.000002
  12      -0.000031      -0.000055       0.000013
  13      -0.000016      -0.000026      -0.000046
  14      -0.000011      -0.000010       0.000006
  15      -0.000003      -0.000004      -0.000003
  16       0.000001       0.000011       0.000001
  17      -0.000002       0.000002      -0.000008
  18       0.000003      -0.000003       0.000003
---------------------------------------------------
 Number of fixed atoms: 0
 Gradient time:  CPU 974.52 s  wall 68.98 s
 ----------------------------------------------------------------
             Standard Nuclear Orientation (Angstroms)
    I     Atom           X                Y                Z
 ----------------------------------------------------------------
    1      C      -1.8310214522    -0.1968348186    -0.7486908915
    2      C      -0.9103285446     0.9847723850    -0.4513953136
    3      H      -1.7243565447    -0.9776491887     0.0068528374
    4      H      -2.8716328972     0.1450207973    -0.7520132615
    5      H      -1.5927420006    -0.6147295505    -1.7292096772
    6      C       0.5744653544     0.6238115441    -0.5020709115
    7      C       0.9942533886    -0.4383826138     0.5126724987
    8      H       0.8086734225     0.2821889328    -1.5145661707
    9      H       1.1266033858     1.5483869576    -0.3220294983
   10      H       2.0738546566    -0.3479303925     0.6900814270
   11      H       0.5005160546    -0.2593155339     1.4712443461
   12      O      -1.0848044670     1.9839203969    -1.4673172671
   13      O      -1.3363003831     1.4551949788     0.7968854487
   14      O      -0.5111312933     2.5386292614     1.3064790508
   15      H      -2.0111853376     2.2553832625    -1.4359521381
   16      C       0.7707016694    -1.9029593080     0.0979740485
   17      O       0.3858010661    -2.7003222634     0.9965768585
   18      O       1.0286032942    -2.2214150122    -1.0919704735
 ----------------------------------------------------------------
 Nuclear Repulsion Energy =   562.0577751311 hartrees
 There are       40 alpha and       40 beta electrons
 Discretize the solute cavity surface with Lebedev spheres
	Using 110 Lebedev grid points for each H atom
	Using 110 Lebedev grid points for other atoms
	Atomic van der Waals radii will be scaled by 1.20
 Remove points where switching function is < 1.0e-08
 Keep 1042 surface tesserae and discard 938 interior tesserae
 Molecular Surface Area = 183.414 Angst**2
 Requested basis set is def2-TZVPD
 There are 175 shells and 457 basis functions
 A cutoff of  1.0D-14 yielded  14380 shell pairs
 There are     98786 function pairs (    126008 Cartesian)
 Smallest overlap matrix eigenvalue = 2.72E-06
 Guess MOs from SCF MO coefficient file
 Reading MOs from coefficient file
 Reading MOs from coefficient file
 Long-range K will be added via erf
 Coulomb attenuation parameter = 0.3 bohr**(-1)
 A restricted hybrid HF-DFT SCF calculation will be
 performed using Pulay DIIS extrapolation
 Polarizable Continuum solvation model will be applied
 Exchange:     0.1670 Hartree-Fock + 1.0000 wB97X-V + LR-HF
 Correlation:  1.0000 wB97X-V
 Using SG-2 standard quadrature grid
 Nonlocal Correlation:  VV10 with C = 0.0100 and b = 6.00
 Grid used for NLC:  SG-1 standard quadrature
 SCF converges when DIIS error is below 1.0E-08
Using Q-Chem read-in guess as SCF_GUESS READ specified.

 using 16 threads for integral computing
 -------------------------------------------------------
 OpenMP Integral computing Module                
 Release: version 1.0, May 2013, Q-Chem Inc. Pittsburgh 
 -------------------------------------------------------
 using 16 threads for integral computing
 -------------------------------------------------------
 OpenMP Integral computing Module                
 Release: version 1.0, May 2013, Q-Chem Inc. Pittsburgh 
 -------------------------------------------------------
 -------------------------------------------------------
 OpenMP BLAS3 based DFT computing Module                
 Release: version 1.0, May 2013, Q-Chem Inc. Pittsburgh 
 -------------------------------------------------------
 -------------------------------------------------------
 OpenMP BLAS3 based DFT computing Module                
 Release: version 1.0, May 2013, Q-Chem Inc. Pittsburgh 
 -------------------------------------------------------
 -------------------------------------------------------
 OpenMP BLAS3 based DFT computing Module                
 Release: version 1.0, May 2013, Q-Chem Inc. Pittsburgh 
 -------------------------------------------------------
 ---------------------------------------
  Cycle       Energy         DIIS Error
 ---------------------------------------
    1    -571.3968161009      3.85E-04
    2    -571.7123982831      4.29E-04
    3    -571.7189538345      1.92E-04
    4    -571.7199790079      1.41E-04
    5    -571.7205879148      1.08E-04
    6    -571.7209375706      8.36E-05
    7    -571.7212612779      5.26E-05
    8    -571.7214197083      2.66E-05
    9    -571.7214686109      8.34E-06
   10    -571.7214736842      1.82E-06
   11    -571.7214739167      3.15E-07
   12    -571.7214739233      7.15E-08
   13    -571.7214739235      1.92E-08
   14    -571.7214739235      9.33E-09 Convergence criterion met
 ---------------------------------------

************** Final PCM Free Energy Summary **************
 G_electrostatic  =      -0.32514079 hartree =    -204.02892452 kcal/mol
 G_cavitation     =       0.00000000 hartree =       0.00000000 kcal/mol
 G_dispersion     =       0.00000000 hartree =       0.00000000 kcal/mol
 G_repulsion      =       0.00000000 hartree =       0.00000000 kcal/mol
 --------------------------------------------------
 Non-electrostatic Free Energy =       0.00000000 hartree =       0.00000000 kcal/mol
 Total                         =      -0.32514079 hartree =    -204.02892452 kcal/mol
 --------------------------------------------------
 SCF Energy (H0 + V/2)                       =    -571.72147392 
 Solute Internal Energy (H0)                 =    -571.39633313 
 Total Free Energy (H0 + V/2 + non-elec)     =    -571.72147392 hartree
                                             = -358760.63966107 kcal/mol
***********************************************************

 SCF time:  CPU 3806.73 s  wall 269.05 s
 SCF   energy in the final basis set = -571.72147392
 Total energy in the final basis set = -571.72147392
 
 --------------------------------------------------------------
 
                    Orbital Energies (a.u.)
 --------------------------------------------------------------
 
 Alpha MOs
 -- Occupied --
-19.208 -19.199 -19.137 -19.137 -19.132 -10.345 -10.338 -10.244
-10.243 -10.241  -1.180  -1.141  -1.115  -1.046  -0.928  -0.882
 -0.824  -0.772  -0.665  -0.605  -0.593  -0.573  -0.563  -0.533
 -0.516  -0.511  -0.507  -0.484  -0.467  -0.455  -0.443  -0.433
 -0.416  -0.404  -0.377  -0.346  -0.333  -0.327  -0.297  -0.270
 -- Virtual --
  0.062   0.072   0.079   0.084   0.100   0.104   0.108   0.115
  0.122   0.138   0.145   0.146   0.149   0.154   0.169   0.174
  0.176   0.184   0.190   0.195   0.205   0.206   0.217   0.219
  0.226   0.229   0.238   0.256   0.258   0.260   0.276   0.285
  0.288   0.289   0.302   0.303   0.308   0.315   0.322   0.327
  0.330   0.338   0.347   0.349   0.356   0.359   0.364   0.373
  0.379   0.381   0.389   0.393   0.394   0.400   0.410   0.413
  0.420   0.422   0.425   0.428   0.444   0.447   0.453   0.455
  0.463   0.468   0.478   0.481   0.486   0.490   0.494   0.502
  0.510   0.520   0.524   0.527   0.541   0.541   0.550   0.559
  0.564   0.573   0.575   0.579   0.584   0.586   0.592   0.602
  0.602   0.613   0.622   0.627   0.635   0.638   0.645   0.665
  0.674   0.684   0.695   0.698   0.705   0.710   0.716   0.720
  0.725   0.733   0.736   0.743   0.750   0.750   0.756   0.764
  0.770   0.778   0.788   0.802   0.804   0.808   0.811   0.826
  0.827   0.838   0.844   0.848   0.851   0.859   0.863   0.871
  0.883   0.889   0.892   0.896   0.903   0.914   0.927   0.936
  0.949   0.954   0.979   0.983   0.993   1.018   1.033   1.041
  1.052   1.054   1.065   1.082   1.098   1.116   1.123   1.140
  1.157   1.161   1.171   1.181   1.197   1.202   1.220   1.225
  1.247   1.266   1.277   1.295   1.303   1.325   1.331   1.341
  1.351   1.381   1.399   1.405   1.425   1.432   1.451   1.468
  1.477   1.490   1.507   1.523   1.538   1.552   1.575   1.590
  1.613   1.631   1.657   1.672   1.705   1.729   1.830   1.837
  1.863   1.893   1.911   1.919   1.929   1.933   1.949   1.960
  1.978   1.983   1.994   1.999   2.006   2.031   2.037   2.062
  2.078   2.096   2.111   2.114   2.123   2.135   2.167   2.171
  2.191   2.224   2.227   2.252   2.262   2.280   2.316   2.324
  2.341   2.359   2.365   2.388   2.399   2.404   2.444   2.448
  2.474   2.481   2.496   2.501   2.507   2.524   2.555   2.604
  2.613   2.627   2.644   2.665   2.700   2.721   2.734   2.774
  2.789   2.799   2.810   2.842   2.859   2.888   2.890   2.904
  2.926   2.937   2.966   2.987   2.997   3.022   3.031   3.074
  3.084   3.112   3.130   3.160   3.186   3.205   3.222   3.232
  3.261   3.272   3.289   3.315   3.319   3.331   3.347   3.356
  3.371   3.401   3.412   3.424   3.434   3.448   3.478   3.491
  3.513   3.520   3.547   3.565   3.578   3.615   3.621   3.647
  3.664   3.666   3.680   3.683   3.712   3.720   3.737   3.740
  3.755   3.771   3.778   3.786   3.826   3.846   3.860   3.868
  3.899   3.916   3.930   3.964   4.032   4.048   4.088   4.123
  4.169   4.194   4.222   4.265   4.290   4.335   4.368   4.383
  4.400   4.445   4.467   4.474   4.616   4.671   4.687   4.731
  4.796   4.822   4.855   4.911   4.930   4.960   4.992   5.035
  5.069   5.134   5.169   5.216   5.252   5.313   5.333   5.356
  5.369   5.374   5.383   5.406   5.411   5.444   5.501   5.507
  5.568   5.624   5.661   5.712   5.720   5.726   5.783   5.865
  5.958   6.001   6.027   6.119   6.262   6.263   6.293   6.307
  6.335   6.340   6.503   6.627   6.642   6.647   6.673   6.711
  6.724   6.749   6.772   6.784   6.788   6.899   6.927   6.954
  6.967   6.991   7.070   7.121   7.174   7.227   7.241   7.354
  7.373   7.387   7.413   7.423   7.528   7.578   8.315  22.791
 22.858  22.965  23.073  23.759  44.210  44.428  44.471  44.520
 44.758
 --------------------------------------------------------------
 
          Ground-State Mulliken Net Atomic Charges

     Atom                 Charge (a.u.)
  ----------------------------------------
      1 C                    -1.161148
      2 C                     0.633910
      3 H                     0.213639
      4 H                     0.309914
      5 H                     0.238882
      6 C                    -0.212792
      7 C                    -0.163181
      8 H                     0.212543
      9 H                     0.157847
     10 H                     0.187850
     11 H                     0.115650
     12 O                    -0.530104
     13 O                    -0.251277
     14 O                    -0.856763
     15 H                     0.387713
     16 C                     0.152948
     17 O                    -0.722927
     18 O                    -0.712704
  ----------------------------------------
  Sum of atomic charges =    -2.000000

 -----------------------------------------------------------------
                    Cartesian Multipole Moments
 -----------------------------------------------------------------
    Charge (ESU x 10^10)
                -9.6064
    Dipole Moment (Debye)
         X      -0.8037      Y       1.0112      Z      -4.9684
       Tot       5.1336
    Quadrupole Moments (Debye-Ang)
        XX     -65.5768     XY      13.8400     YY    -133.9862
        XZ       9.3707     YZ     -12.2848     ZZ     -85.5809
    Octopole Moments (Debye-Ang^2)
       XXX      30.6510    XXY       8.2445    XYY       3.0106
       YYY      17.9984    XXZ      -3.9728    XYZ       7.6245
       YYZ     -35.9571    XZZ      12.2007    YZZ      -9.0811
       ZZZ       2.0574
    Hexadecapole Moments (Debye-Ang^3)
      XXXX    -505.0913   XXXY     181.6742   XXYY    -307.6865
      XYYY     292.5928   YYYY   -1777.9171   XXXZ       4.3756
      XXYZ     -41.1822   XYYZ      38.1290   YYYZ     -78.0156
      XXZZ    -166.5695   XYZZ      93.2769   YYZZ    -400.4566
      XZZZ     -20.3000   YZZZ     -33.3434   ZZZZ    -473.9094
 -----------------------------------------------------------------
 Calculating analytic gradient of the SCF energy
 Gradient of SCF Energy
            1           2           3           4           5           6
    1  -0.0310888   0.0002165  -0.0228078   0.0748328  -0.0336325   0.0370003
    2  -0.0869566  -0.0420797   0.0592087  -0.0232447   0.0294406   0.0860412
    3  -0.0127355   0.0728801  -0.0758124   0.0053015   0.0768908  -0.1141154
            7           8           9          10          11          12
    1  -0.0053047   0.0010648  -0.0446531  -0.0510626   0.0329614  -0.0260915
    2   0.0602894   0.0319584  -0.0647297   0.0052488  -0.0371608   0.0159897
    3   0.1110261   0.0619767  -0.0024881  -0.0202571  -0.0674129  -0.0047552
           13          14          15          16          17          18
    1  -0.0278223   0.0321115   0.0611176  -0.0096410   0.0209169  -0.0081173
    2  -0.0496597   0.0307064  -0.0241986  -0.0574594   0.0422889   0.0243170
    3  -0.0316810   0.0182755   0.0010014  -0.0412402  -0.0354145   0.0585602
 Max gradient component =       1.141E-01
 RMS gradient           =       4.773E-02
 Computing fast CPCM-ISWIG gradient
 Updating gradient with PCM contributions...
 -- total gradient after adding PCM contribution --
---------------------------------------------------
  Atom         X              Y              Z     
---------------------------------------------------
   1       0.000086      -0.000999       0.000034
   2       0.000100       0.000252       0.000049
   3      -0.000033       0.000349      -0.000260
   4      -0.000148       0.000140       0.000005
   5      -0.000046       0.000159       0.000181
   6      -0.000013      -0.000040      -0.000006
[...]
 O         -0.050 -0.067 -0.028   -0.034 -0.053 -0.030   -0.106 -0.135 -0.060
 H          0.057  0.056 -0.031   -0.008  0.007 -0.015   -0.030 -0.100  0.126
 C          0.150  0.029  0.054    0.071 -0.066 -0.000   -0.069  0.009 -0.018
 O         -0.012  0.028 -0.057   -0.027  0.001  0.036    0.010 -0.010  0.009
 O         -0.046  0.010  0.061    0.002 -0.019 -0.098    0.014  0.001  0.005
 TransDip   0.013  0.191 -0.205    0.061 -0.088  0.023   -0.039 -0.103 -0.067

 Mode:                25                     26                     27
 Frequency:      1073.67                1113.75                1134.00
 Force Cnst:      1.3737                 1.2972                 1.2434
 Red. Mass:       2.0225                 1.7750                 1.6411
 IR Active:          YES                    YES                    YES
 IR Intens:       34.652                213.945                128.164
 Raman Active:       YES                    YES                    YES
               X      Y      Z        X      Y      Z        X      Y      Z
 C         -0.073  0.024 -0.051    0.057 -0.067  0.055    0.006 -0.038 -0.061
 C          0.061  0.019  0.070   -0.077  0.128 -0.103   -0.012  0.114  0.106
 H          0.229  0.165  0.063   -0.316 -0.241 -0.083   -0.046  0.080  0.076
 H         -0.187 -0.331  0.032    0.170  0.303 -0.061    0.022  0.031  0.115
 H          0.028 -0.163  0.053   -0.101  0.147 -0.078   -0.216 -0.225 -0.031
 C          0.026 -0.091  0.157   -0.004 -0.052  0.056   -0.007 -0.036 -0.052
 C          0.012  0.119 -0.138    0.055  0.036 -0.059   -0.005 -0.016  0.108
 H         -0.081 -0.103  0.136    0.208 -0.139  0.129   -0.314  0.447 -0.279
 H          0.272 -0.242  0.150    0.263 -0.228  0.141    0.215 -0.222  0.246
 H         -0.043  0.424 -0.015    0.008  0.324  0.046    0.019 -0.111  0.030
 H         -0.147  0.292 -0.246   -0.103 -0.010 -0.129    0.074  0.475  0.062
 O         -0.001  0.012 -0.032   -0.019 -0.046  0.060   -0.011 -0.032  0.017
 O         -0.001 -0.025 -0.025    0.007 -0.010 -0.002    0.016 -0.032 -0.061
 O          0.007  0.010  0.001    0.002 -0.002  0.001    0.007  0.009  0.004
 H         -0.064 -0.222  0.240    0.085  0.342 -0.355    0.036  0.133 -0.141
 C         -0.036 -0.013 -0.010   -0.053  0.010 -0.014    0.008 -0.003  0.007
 O         -0.008 -0.032  0.025    0.002 -0.019  0.016    0.004  0.019 -0.006
 O          0.010  0.003 -0.017    0.011  0.003 -0.002    0.005 -0.018 -0.040
 TransDip   0.061 -0.069  0.164   -0.107  0.301 -0.343   -0.056  0.251  0.256

 Mode:                28                     29                     30
 Frequency:      1165.25                1222.36                1284.48
 Force Cnst:      1.6437                 1.2373                 1.6177
 Red. Mass:       2.0546                 1.4055                 1.6641
 IR Active:          YES                    YES                    YES
 IR Intens:       15.607                 23.082                 58.036
 Raman Active:       YES                    YES                    YES
               X      Y      Z        X      Y      Z        X      Y      Z
 C         -0.055 -0.043  0.071    0.011 -0.001  0.042    0.019 -0.035 -0.024
 C          0.133  0.153 -0.133   -0.025 -0.020 -0.117    0.010  0.168  0.096
 H         -0.139 -0.288 -0.173   -0.023 -0.079 -0.044   -0.179 -0.044  0.003
 H         -0.101 -0.170 -0.206    0.037  0.075 -0.086    0.001 -0.052  0.051
 H          0.067  0.144  0.005    0.055  0.137 -0.009   -0.193 -0.139 -0.032
 C         -0.079  0.009 -0.037   -0.001 -0.019  0.100   -0.038 -0.051 -0.023
 C          0.038 -0.038  0.064   -0.010  0.017 -0.039    0.002  0.085 -0.048
 H         -0.183  0.259 -0.147   -0.262 -0.007  0.034    0.423 -0.260  0.161
 H          0.048 -0.081  0.065   -0.056  0.048 -0.086   -0.390  0.159  0.019
 H          0.024  0.176  0.022    0.015 -0.600  0.163    0.035 -0.543  0.111
 H          0.000 -0.094  0.054   -0.043  0.643 -0.168   -0.025 -0.165 -0.019
 O          0.043 -0.012 -0.013    0.004  0.007  0.003    0.014 -0.014 -0.011
 O         -0.045 -0.025  0.047    0.005  0.010  0.027   -0.003 -0.027 -0.028
 O          0.011  0.002 -0.008   -0.003 -0.004 -0.000    0.004  0.001 -0.002
 H         -0.084 -0.474  0.508   -0.013 -0.052  0.061   -0.028 -0.163  0.176
 C         -0.040  0.010 -0.011    0.061 -0.024  0.027    0.041  0.010  0.010
 O          0.009  0.004  0.001   -0.005  0.016 -0.016   -0.014 -0.017  0.014
 O          0.007 -0.003 -0.000   -0.009 -0.003 -0.014   -0.004 -0.001 -0.010
 TransDip   0.045  0.008 -0.118   -0.075 -0.098 -0.092   -0.009  0.176  0.169

 Mode:                31                     32                     33
 Frequency:      1339.89                1355.86                1400.32
 Force Cnst:      1.5803                 1.7465                 1.7889
 Red. Mass:       1.4940                 1.6124                 1.5484
 IR Active:          YES                    YES                    YES
 IR Intens:       11.688                101.119                 11.137
 Raman Active:       YES                    YES                    YES
               X      Y      Z        X      Y      Z        X      Y      Z
 C         -0.004 -0.014  0.000    0.013 -0.034 -0.018   -0.029 -0.105 -0.023
 C         -0.076 -0.065 -0.020   -0.118  0.001  0.045   -0.081  0.067 -0.002
 H          0.099  0.098  0.093   -0.014  0.137  0.157    0.105  0.272  0.335
 H          0.058  0.165  0.032    0.071  0.157  0.103    0.111  0.337  0.096
 H          0.118  0.147 -0.032    0.050  0.148 -0.075    0.183  0.396 -0.175
 C         -0.042  0.012 -0.031   -0.059  0.093 -0.046    0.119 -0.080  0.043
 C          0.008  0.110 -0.004    0.026 -0.111  0.017   -0.033  0.023 -0.005
 H         -0.012  0.125 -0.063    0.409 -0.284  0.186   -0.183  0.241 -0.141
 H          0.512 -0.377  0.225    0.231 -0.095  0.027   -0.269  0.212 -0.214
 H          0.036 -0.385  0.107   -0.007  0.185  0.071   -0.026  0.157 -0.116
 H          0.042 -0.393  0.105   -0.011  0.443 -0.097    0.036 -0.149  0.061
 O          0.022  0.013 -0.012    0.045  0.009 -0.023    0.017  0.001 -0.009
 O          0.011  0.008  0.004    0.017 -0.003 -0.014    0.011 -0.006 -0.005
 O         -0.002  0.001  0.002   -0.001  0.000  0.002   -0.001 -0.001  0.000
 H         -0.030 -0.164  0.178   -0.055 -0.333  0.357   -0.031 -0.162  0.173
 C          0.025  0.080  0.011   -0.022 -0.039  0.007   -0.001 -0.017 -0.018
 O         -0.023 -0.048  0.044    0.017  0.034 -0.029    0.000  0.001 -0.001
 O          0.008 -0.016 -0.046   -0.001  0.005  0.014   -0.003  0.007  0.017
 TransDip   0.010  0.108  0.017   -0.090 -0.124  0.283   -0.039  0.099 -0.009

 Mode:                34                     35                     36
 Frequency:      1411.19                1436.95                1453.28
 Force Cnst:      2.1774                 4.1185                 1.3609
 Red. Mass:       1.8557                 3.3854                 1.0937
 IR Active:          YES                    YES                    YES
 IR Intens:       37.502                292.774                 20.924
 Raman Active:       YES                    YES                    YES
               X      Y      Z        X      Y      Z        X      Y      Z
 C         -0.130 -0.090 -0.035   -0.021 -0.028 -0.009   -0.002 -0.010  0.009
 C          0.181  0.026  0.009    0.022  0.026 -0.004    0.011  0.003 -0.002
 H          0.416  0.132  0.118    0.041  0.058  0.071    0.075  0.039  0.044
 H          0.054  0.412  0.160    0.012  0.071  0.045    0.003  0.007 -0.136
 H          0.503  0.143  0.020    0.091  0.085 -0.028   -0.096  0.066 -0.049
 C         -0.103  0.026 -0.020    0.052  0.047 -0.023    0.021  0.009 -0.028
 C          0.025  0.005  0.002    0.003 -0.147  0.001   -0.029  0.003 -0.063
 H          0.165 -0.118  0.095   -0.314 -0.485  0.086   -0.202 -0.234  0.009
 H          0.012 -0.060  0.074   -0.350  0.207  0.327   -0.098  0.006  0.306
 H          0.028 -0.160  0.060   -0.006  0.187 -0.159   -0.127  0.120  0.572
 H         -0.058  0.071 -0.053   -0.133  0.238 -0.151    0.569  0.003  0.260
 O         -0.033 -0.011  0.017   -0.003 -0.003  0.002   -0.002 -0.001  0.001
 O         -0.024  0.000  0.011   -0.002 -0.001  0.001   -0.001  0.000  0.002
 O          0.002 -0.002 -0.005   -0.001 -0.001 -0.001   -0.001 -0.000 -0.000
 H          0.046  0.255 -0.282    0.002  0.016 -0.018    0.002  0.012 -0.014
 C         -0.003 -0.034 -0.000    0.032  0.322  0.085   -0.015 -0.025  0.006
 O          0.006  0.016 -0.014   -0.046 -0.119  0.100    0.006  0.013 -0.012
 O         -0.003  0.005  0.012    0.029 -0.066 -0.152    0.001  0.003  0.005
 TransDip   0.188  0.016 -0.052    0.024  0.530  0.136   -0.010 -0.050  0.137

 Mode:                37                     38                     39
 Frequency:      1460.84                1473.24                1485.54
 Force Cnst:      1.5280                 1.4428                 1.4207
 Red. Mass:       1.2153                 1.1282                 1.0926
 IR Active:          YES                    YES                    YES
 IR Intens:       62.034                 38.764                  2.224
 Raman Active:       YES                    YES                    YES
               X      Y      Z        X      Y      Z        X      Y      Z
 C          0.007 -0.016  0.019   -0.007  0.026 -0.034   -0.031  0.010  0.029
 C         -0.001 -0.005  0.002   -0.048  0.015 -0.026   -0.060  0.022  0.022
 H          0.108  0.103  0.116   -0.247 -0.188 -0.205    0.542 -0.260 -0.336
 H         -0.002 -0.032 -0.278    0.015  0.080  0.563    0.124  0.446 -0.311
 H         -0.237  0.155 -0.117    0.472 -0.257  0.211   -0.064 -0.383  0.176
 C          0.031  0.031 -0.043    0.045  0.005 -0.018    0.025 -0.010  0.001
 C          0.027  0.042  0.042    0.001  0.022  0.004   -0.004 -0.004  0.002
 H         -0.324 -0.367  0.017   -0.241 -0.185 -0.018    0.004  0.008 -0.011
 H         -0.075 -0.023  0.514   -0.075  0.013  0.281   -0.038  0.035 -0.023
 H          0.095 -0.107 -0.326    0.011  0.003 -0.032   -0.002  0.040 -0.036
 H         -0.336 -0.097 -0.124   -0.013 -0.061  0.012   -0.012 -0.004 -0.002
 O          0.001 -0.001  0.000    0.010  0.000 -0.002    0.012  0.001 -0.006
 O          0.002  0.000 -0.000    0.005 -0.001  0.001    0.008 -0.002 -0.007
 O         -0.001  0.000 -0.000   -0.001 -0.000  0.001   -0.001 -0.000  0.001
 H          0.000 -0.004  0.004   -0.011 -0.067  0.077   -0.017 -0.094  0.096
 C         -0.006 -0.076 -0.021   -0.007 -0.041 -0.006   -0.001  0.004 -0.005
 O          0.011  0.027 -0.022    0.006  0.016 -0.013   -0.000 -0.002  0.002
 O         -0.007  0.015  0.036   -0.002  0.007  0.016    0.000  0.000  0.002
 TransDip  -0.110 -0.214 -0.076   -0.082 -0.161  0.083    0.048 -0.002 -0.003

 Mode:                40                     41                     42
 Frequency:      1581.92                3050.51                3057.58
 Force Cnst:     14.0977                 5.8533                 5.7135
 Red. Mass:       9.5615                 1.0676                 1.0373
 IR Active:          YES                    YES                    YES
 IR Intens:     1226.697                 40.974                 24.682
 Raman Active:       YES                    YES                    YES
               X      Y      Z        X      Y      Z        X      Y      Z
 C          0.000 -0.003  0.003   -0.002  0.000 -0.000   -0.043 -0.027 -0.010
 C         -0.008  0.002  0.001    0.001 -0.000 -0.000    0.001  0.002  0.000
 H          0.042  0.003 -0.000   -0.000  0.002 -0.002   -0.057  0.346 -0.341
 H          0.006  0.017 -0.044    0.021 -0.007 -0.000    0.672 -0.229 -0.000
 H         -0.027  0.003 -0.004   -0.002  0.003  0.008   -0.119  0.188  0.450
 C          0.019 -0.009  0.015    0.005  0.006 -0.002   -0.001 -0.001  0.002
 C          0.018  0.041 -0.050   -0.062 -0.011 -0.037    0.001  0.000  0.001
 H          0.012  0.088 -0.010   -0.010  0.018  0.047    0.007 -0.009 -0.027
 H         -0.012  0.040 -0.113   -0.055 -0.092 -0.022    0.011  0.022  0.005
 H          0.016  0.034 -0.104    0.916  0.084  0.139   -0.016 -0.001 -0.003
 H         -0.175 -0.456 -0.035   -0.168  0.051  0.290    0.002 -0.000 -0.003
 O          0.000  0.000 -0.001   -0.000  0.000 -0.000   -0.000 -0.000  0.000
 O          0.001 -0.000 -0.001   -0.000 -0.000  0.000    0.000  0.000  0.000
 O          0.000  0.000  0.000   -0.000  0.000  0.000    0.000 -0.000 -0.000
 H         -0.002 -0.006  0.005   -0.001  0.000 -0.000    0.002 -0.003  0.001
 C         -0.215 -0.137  0.701   -0.001  0.001 -0.000    0.000 -0.000 -0.000
 O          0.084  0.157 -0.200   -0.000 -0.000  0.000    0.000 -0.000  0.000
 O          0.062 -0.060 -0.282    0.000 -0.000  0.000    0.000 -0.000  0.000
 TransDip  -0.338 -0.238  1.043   -0.157  0.039 -0.126   -0.140 -0.067 -0.034

 Mode:                43                     44                     45
 Frequency:      3088.98                3118.38                3132.54
 Force Cnst:      5.9742                 6.2704                 6.3639
 Red. Mass:       1.0627                 1.0944                 1.1007
 IR Active:          YES                    YES                    YES
 IR Intens:       28.811                 43.246                 38.694
 Raman Active:       YES                    YES                    YES
               X      Y      Z        X      Y      Z        X      Y      Z
 C         -0.002 -0.002  0.001   -0.001 -0.000  0.002   -0.066  0.063  0.010
 C         -0.001  0.001 -0.001    0.000  0.001 -0.001   -0.002  0.000 -0.000
 H         -0.003  0.023 -0.022   -0.002  0.007 -0.007    0.039 -0.345  0.348
 H          0.024 -0.007  0.001    0.008 -0.003  0.001    0.655 -0.213  0.003
 H         -0.002  0.003  0.007    0.003 -0.005 -0.012    0.105 -0.190 -0.472
 C          0.037  0.015 -0.056    0.010  0.010 -0.005   -0.001 -0.005 -0.004
 C         -0.004  0.003  0.015    0.061 -0.010 -0.061    0.000  0.000  0.000
 H         -0.171  0.266  0.764   -0.016  0.028  0.084   -0.008  0.012  0.037
 H         -0.261 -0.440 -0.098   -0.094 -0.153 -0.033    0.031  0.052  0.010
 H         -0.037 -0.001 -0.005   -0.334 -0.034 -0.063   -0.004 -0.000 -0.001
 H          0.089 -0.032 -0.170   -0.413  0.145  0.801    0.001 -0.000 -0.002
 O          0.000 -0.000  0.000   -0.000 -0.000  0.000    0.000 -0.000  0.000
 O          0.000  0.000  0.000    0.000 -0.000  0.000    0.000 -0.000 -0.000
 O         -0.000  0.000  0.000    0.000 -0.000  0.000    0.000 -0.000 -0.000
 H          0.000 -0.001  0.002   -0.000 -0.000 -0.000   -0.001 -0.003  0.002
 C         -0.000 -0.001 -0.001    0.001  0.001 -0.002   -0.000 -0.000  0.000
 O          0.000  0.000 -0.000   -0.000 -0.000  0.001   -0.000  0.000 -0.000
 O          0.000 -0.000  0.001   -0.000 -0.000  0.000   -0.000  0.000 -0.000
 TransDip   0.083  0.083 -0.125    0.121  0.006 -0.172   -0.154  0.125  0.017

 Mode:                46                     47                     48
 Frequency:      3140.94                3151.35                3815.20
 Force Cnst:      6.4001                 6.4569                 9.1396
 Red. Mass:       1.1011                 1.1035                 1.0657
 IR Active:          YES                    YES                    YES
 IR Intens:       28.797                 32.083                 52.263
 Raman Active:       YES                    YES                    YES
               X      Y      Z        X      Y      Z        X      Y      Z
 C          0.005 -0.006  0.007    0.006  0.020 -0.091    0.000 -0.000  0.000
 C         -0.001 -0.002 -0.001    0.000  0.000 -0.002   -0.002  0.000 -0.000
 H         -0.009  0.066 -0.064    0.076 -0.514  0.488   -0.000 -0.003  0.002
 H         -0.051  0.016  0.001    0.004  0.002 -0.015   -0.001  0.002  0.000
 H          0.006 -0.009 -0.018   -0.156  0.270  0.616    0.000 -0.000 -0.001
 C         -0.025 -0.071 -0.051   -0.001 -0.005 -0.005    0.000 -0.000 -0.000
 C          0.002 -0.002 -0.010    0.001 -0.000 -0.001   -0.000 -0.000  0.000
 H         -0.119  0.162  0.497   -0.014  0.019  0.056    0.001 -0.001  0.000
 H          0.422  0.693  0.136    0.029  0.047  0.010    0.001 -0.000  0.000
 H          0.027  0.003  0.005   -0.008 -0.001 -0.001    0.001  0.000 -0.000
 H         -0.055  0.017  0.105   -0.009  0.003  0.018   -0.000  0.000  0.000
 O         -0.000  0.000  0.000    0.000 -0.000  0.000   -0.059  0.018  0.001
 O         -0.000 -0.000  0.000   -0.000 -0.000  0.000    0.000 -0.000  0.000
 O          0.001 -0.000 -0.000    0.000  0.000  0.000   -0.000 -0.000  0.000
 H          0.000  0.001  0.001   -0.002 -0.000 -0.000    0.955 -0.289 -0.021
 C          0.000  0.001 -0.001   -0.000 -0.000 -0.000   -0.000  0.000  0.000
 O         -0.000 -0.000  0.000   -0.000  0.000  0.000    0.000 -0.000  0.000
 O         -0.000 -0.000  0.000    0.000 -0.000  0.000    0.000 -0.000 -0.000
 TransDip  -0.053 -0.138 -0.088    0.012  0.017 -0.180    0.203 -0.102  0.043

 STANDARD THERMODYNAMIC QUANTITIES AT   298.15 K  AND     1.00 ATM

   This Molecule has  0 Imaginary Frequencies
   Zero point vibrational energy:       84.567 kcal/mol

   Atom    1 Element C  Has Mass   12.00000
   Atom    2 Element C  Has Mass   12.00000
   Atom    3 Element H  Has Mass    1.00783
   Atom    4 Element H  Has Mass    1.00783
   Atom    5 Element H  Has Mass    1.00783
   Atom    6 Element C  Has Mass   12.00000
   Atom    7 Element C  Has Mass   12.00000
   Atom    8 Element H  Has Mass    1.00783
   Atom    9 Element H  Has Mass    1.00783
   Atom   10 Element H  Has Mass    1.00783
   Atom   11 Element H  Has Mass    1.00783
   Atom   12 Element O  Has Mass   15.99491
   Atom   13 Element O  Has Mass   15.99491
   Atom   14 Element O  Has Mass   15.99491
   Atom   15 Element H  Has Mass    1.00783
   Atom   16 Element C  Has Mass   12.00000
   Atom   17 Element O  Has Mass   15.99491
   Atom   18 Element O  Has Mass   15.99491
   Molecular Mass:   148.037190 amu
   Principal axes and moments of inertia in amu*Bohr^2:
                             1           2           3
    Eigenvalues --      794.53074  2218.80366  2418.73671
          X              -0.39906     0.31344     0.86169
          Y               0.91691     0.14231     0.37287
          Z              -0.00576     0.93888    -0.34419
   Rotational Symmetry Number is   1
   The Molecule is an Asymmetric Top
   Translational Enthalpy:        0.889 kcal/mol
   Rotational Enthalpy:           0.889 kcal/mol
   Vibrational Enthalpy:         89.404 kcal/mol
   gas constant (RT):             0.592 kcal/mol
   Translational Entropy:        40.887  cal/mol.K
   Rotational Entropy:           29.834  cal/mol.K
   Vibrational Entropy:          29.844  cal/mol.K

   Total Enthalpy:               91.773 kcal/mol
   Total Entropy:               100.566  cal/mol.K
Archival summary:
1\1\c5-88\FREQ\ProcedureUnspecified\BasisUnspecified\558(2-,1)\leeping\TueApr705:25:052020TueApr705:25:052020\0\\#,FREQ,ProcedureUnspecified,BasisUnspecified,\\-2,1\O\C,1,1.40034\O,2,1.43556,1,111.104\H,3,0.965845,2,106.811,1,-54.4482,0\O,1,1.4541,2,112.959,3,-66.5354,0\C,2,1.5264,1,104.476,3,-117.506,0\H,6,1.09245,2,111.096,1,-61.1157,0\H,6,1.09255,2,109.865,1,178.236,0\H,6,1.09502,2,109.453,1,58.7087,0\C,2,1.52888,1,113.846,3,118.294,0\H,10,1.09184,2,106.602,1,-63.3502,0\H,10,1.09394,2,108.2,1,-179.277,0\C,10,1.5278,2,114.14,1,58.1644,0\H,13,1.09302,10,110.149,2,-40.9227,0\H,13,1.09781,10,108.679,2,-157.602,0\C,13,1.53848,10,116.288,2,83.7862,0\O,16,1.25853,13,117.773,10,40.6215,0\O,16,1.26152,13,117.003,10,-141.784,0\\\@

 Total job time:  39239.32s(wall), 554121.53s(cpu) 
 Tue Apr  7 05:25:05 2020

        *************************************************************
        *                                                           *
        *  Thank you very much for using Q-Chem.  Have a nice day.  *
        *                                                           *
        *************************************************************


