
Running Job 1 of 1 qc-3-tshess.in
qchem qc-3-tshess.in_97170.0 ./qc-3-tshess.d/ 1
/home/leeping/opt/qchem/5.0.2-openmp/exe/qcprog.exe_s qc-3-tshess.in_97170.0 ./qc-3-tshess.d/
Check license passed

                  Welcome to Q-Chem
     A Quantum Leap Into The Future Of Chemistry


 Q-Chem 5.0, Q-Chem, Inc., Pleasanton, CA (2017)

 Yihan Shao,  Zhengting Gan,  E. Epifanovsky,  A. T. B. Gilbert,  M. Wormit,  
 J. Kussmann,  A. W. Lange,  A. Behn,  Jia Deng,  Xintian Feng,  D. Ghosh,  
 M. Goldey,  P. R. Horn,  L. D. Jacobson,  I. Kaliman,  T. Kus,  A. Landau,  
 Jie Liu,  E. I. Proynov,  R. M. Richard,  R. P. Steele,  E. J. Sundstrom,  
 H. L. Woodcock III,  P. M. Zimmerman,  D. Zuev,  B. Albrecht,  E. Alguire,  
 S. A. Baeppler,  D. Barton,  Z. Benda,  Y. A. Bernard,  E. J. Berquist,  
 K. B. Bravaya,  H. Burton,  D. Casanova,  Chun-Min Chang,  Yunqing Chen,  
 A. Chien,  K. D. Closser,  M. P. Coons,  S. Dasgupta,  A. L. Dempwolff,  
 M. Diedenhofen,  Hainam Do,  R. G. Edgar,  Po-Tung Fang,  S. Fatehi,  
 Qingguo Feng,  J. Fosso-Tande,  Qinghui Ge,  A. Ghysels,  G. Gidofalvi,  
 J. Gomes,  J. Gonthier,  A. Gunina,  M. W. D. Hanson-Heine,  
 P. H. P. Harbach,  A. W. Hauser,  J. E. Herr,  E. G. Hohenstein,  
 Z. C. Holden,  Kerwin Hui,  T.-C. Jagau,  Hyunjun Ji,  B. Kaduk,  
 K. Khistyaev,  Jaehoon Kim,  P. Klunzinger,  K. Koh,  D. Kosenkov,  
 L. Koulias,  T. Kowalczyk,  C. M. Krauter,  A. Kunitsa,  Ka Un Lao,  
 A. Laurent,  K. V. Lawler,  Joonho Lee,  D. Lefrancois,  S. Lehtola,  
 D. S. Levine,  Yi-Pei Li,  You-Sheng Lin,  Fenglai Liu,  E. Livshits,  
 A. Luenser,  P. Manohar,  E. Mansoor,  S. F. Manzer,  Shan-Ping Mao,  
 Yuezhi Mao,  N. Mardirossian,  A. V. Marenich,  T. Markovich,  
 L. A. Martinez-Martinez,  S. A. Maurer,  N. J. Mayhall,  S. C. McKenzie,  
 J.-M. Mewes,  A. F. Morrison,  J. W. Mullinax,  K. Nanda,  
 T. S. Nguyen-Beck,  R. Olivares-Amaya,  J. A. Parkhill,  T. M. Perrine,  
 F. Plasser,  S. Prager,  A. Prociuk,  E. Ramos,  D. R. Rehn,  F. Rob,  
 M. Schneider,  N. Sergueev,  S. M. Sharada,  S. Sharma,  D. W. Small,  
 T. Stauch,  T. Stein,  Yu-Chuan Su,  A. J. W. Thom,  A. Tkatchenko,  
 T. Tsuchimochi,  L. Vogt,  O. Vydrov,  M. A. Watson,  J. Wenzel,  
 M. de Wergifosse,  T. A. Wesolowski,  A. White,  J. Witte,  A. Yamada,  
 Jun Yang,  K. Yao,  S. Yeganeh,  S. R. Yost,  Zhi-Qiang You,  A. Zech,  
 Igor Ying Zhang,  Xing Zhang,  Yan Zhao,  Ying Zhu,  B. R. Brooks,  
 G. K. L. Chan,  C. J. Cramer,  M. S. Gordon,  W. J. Hehre,  A. Klamt,  
 M. W. Schmidt,  C. D. Sherrill,  D. G. Truhlar,  A. Aspuru-Guzik,  R. Baer,  
 A. T. Bell,  N. A. Besley,  Jeng-Da Chai,  R. A. DiStasio Jr.,  A. Dreuw,  
 B. D. Dunietz,  T. R. Furlani,  Chao-Ping Hsu,  Yousung Jung,  Jing Kong,  
 D. S. Lambrecht,  WanZhen Liang,  C. Ochsenfeld,  V. A. Rassolov,  
 L. V. Slipchenko,  J. E. Subotnik,  T. Van Voorhis,  J. M. Herbert,  
 A. I. Krylov,  P. M. W. Gill,  M. Head-Gordon

 Contributors to earlier versions of Q-Chem not listed above: 
 R. D. Adamson,  B. Austin,  J. Baker,  G. J. O. Beran,  K. Brandhorst,  
 S. T. Brown,  E. F. C. Byrd,  A. K. Chakraborty,  C.-L. Cheng,  
 Siu Hung Chien,  D. M. Chipman,  D. L. Crittenden,  H. Dachsel,  
 R. J. Doerksen,  A. D. Dutoi,  L. Fusti-Molnar,  W. A. Goddard III,  
 A. Golubeva-Zadorozhnaya,  S. R. Gwaltney,  G. Hawkins,  A. Heyden,  
 S. Hirata,  G. Kedziora,  F. J. Keil,  C. Kelley,  Jihan Kim,  R. A. King,  
 R. Z. Khaliullin,  P. P. Korambath,  W. Kurlancheek,  A. M. Lee,  M. S. Lee,  
 S. V. Levchenko,  Ching Yeh Lin,  D. Liotard,  R. C. Lochan,  I. Lotan,  
 P. E. Maslen,  N. Nair,  D. P. O'Neill,  D. Neuhauser,  E. Neuscamman,  
 C. M. Oana,  R. Olson,  B. Peters,  R. Peverati,  P. A. Pieniazek,  
 Y. M. Rhee,  J. Ritchie,  M. A. Rohrdanz,  E. Rosta,  N. J. Russ,  
 H. F. Schaefer III,  N. E. Schultz,  N. Shenvi,  A. C. Simmonett,  A. Sodt,  
 D. Stuck,  K. S. Thanthiriwatte,  V. Vanovschi,  Tao Wang,  A. Warshel,  
 C. F. Williams,  Q. Wu,  X. Xu,  W. Zhang

 Please cite Q-Chem as follows:
 Y. Shao et al., Mol. Phys. 113, 184-215 (2015)
 DOI: 10.1080/00268976.2014.952696

 Q-Chem 5.0.2 for Intel X86 EM64T Linux

 Parts of Q-Chem use Armadillo 5.200.1 (Boston Tea Smuggler).
 http://arma.sourceforge.net/

 Q-Chem begins on Sat Jun 23 16:24:43 2018  

Host: 
0

     Scratch files written to ./qc-3-tshess.d//
 Dec517 15110_ 26548  26544 5633   
Processing $rem in /home/leeping/opt/qchem/5.0.2-openmp/config/preferences.
 MEM_STATIC 2000
 MEM_TOTAL  8000
 SYMMETRY   OFF
 SYM_IGNORE TRUE 
Symmetry turned off for PCM/SM12/SMD calculation

Checking the input file for inconsistencies... 	...done.

--------------------------------------------------------------
User input:
--------------------------------------------------------------
$molecule
-2 1
C       -1.9184795806   -0.0468847562   -1.0057660185
C       -0.9473415160    1.0211630889   -0.4883860692
H       -1.8189836252   -0.9442044694   -0.3930781492
H       -2.9498702270    0.3172261984   -0.9575925233
H       -1.6710053756   -0.2878792059   -2.0428213631
C        0.5810088305    0.3719256103   -0.5636990657
C        0.8940676310   -0.6884984188    0.3549054581
H        0.6489185973    0.0616764388   -1.6106055685
H        1.1523825288    1.2864865970   -0.3905173703
H        1.2229980474   -0.4564635167    1.3648092446
H        0.3279918205    1.0047767760    2.0352132715
O       -0.8702647141    2.1253290129   -1.4107473678
O       -1.3063096785    1.4001330959    0.7169650186
O        0.1324282741    1.9091517413    1.7612181498
H       -1.6852541268    2.6325105711   -1.3064064810
C        0.8649734907   -2.1103540959    0.0217223555
O        1.1929060794   -2.9455306353    0.9412188270
O        0.5364825440   -2.4870190325   -1.1544543484
$end

$rem
jobtype               freq
method                wb97x-v
basis                 def2-tzvpd
symmetry              off
sym_ignore            true
incdft                false
incfock               0
!scf_algorithm        diis_gdm
scf_convergence       8
thresh                14
!purecart             112
max_scf_cycles        1000
geom_opt_max_cycles   500
geom_opt_dmax         100
geom_opt_tol_gradient 10
solvent_method        pcm
ideriv                1
rpath_tol_displacement 1000
rpath_max_cycles      100
rpath_direction       1
!scf_guess            read
scf_guess             read
$end

$pcm
theory              cosmo
method              iswig
Radii               bondi
vdwScale            1.20
hpoints             110
heavypoints         110
$end

$solvent
dielectric 78.400000
$end

--------------------------------------------------------------
 ----------------------------------------------------------------
             Standard Nuclear Orientation (Angstroms)
    I     Atom           X                Y                Z
 ----------------------------------------------------------------
    1      C      -1.9184795806    -0.0468847562    -1.0057660185
    2      C      -0.9473415160     1.0211630889    -0.4883860692
    3      H      -1.8189836252    -0.9442044694    -0.3930781492
    4      H      -2.9498702270     0.3172261984    -0.9575925233
    5      H      -1.6710053756    -0.2878792059    -2.0428213631
    6      C       0.5810088305     0.3719256103    -0.5636990657
    7      C       0.8940676310    -0.6884984188     0.3549054581
    8      H       0.6489185973     0.0616764388    -1.6106055685
    9      H       1.1523825288     1.2864865970    -0.3905173703
   10      H       1.2229980474    -0.4564635167     1.3648092446
   11      H       0.3279918205     1.0047767760     2.0352132715
   12      O      -0.8702647141     2.1253290129    -1.4107473678
   13      O      -1.3063096785     1.4001330959     0.7169650186
   14      O       0.1324282741     1.9091517413     1.7612181498
   15      H      -1.6852541268     2.6325105711    -1.3064064810
   16      C       0.8649734907    -2.1103540959     0.0217223555
   17      O       1.1929060794    -2.9455306353     0.9412188270
   18      O       0.5364825440    -2.4870190325    -1.1544543484
 ----------------------------------------------------------------
 Nuclear Repulsion Energy =   550.1317075951 hartrees
 There are       40 alpha and       40 beta electrons
 Requested basis set is def2-TZVPD
 There are 175 shells and 457 basis functions

 Total QAlloc Memory Limit   8000 MB
 Mega-Array Size      1956 MB
 MEM_STATIC part      2000 MB
 Discretize the solute cavity surface with Lebedev spheres
	Using 110 Lebedev grid points for each H atom
	Using 110 Lebedev grid points for other atoms
	Atomic van der Waals radii will be scaled by 1.20
 Remove points where switching function is < 1.0e-08
 Keep 1050 surface tesserae and discard 930 interior tesserae
 Molecular Surface Area = 186.437 Angst**2
 A cutoff of  1.0D-14 yielded  14243 shell pairs
 There are     97657 function pairs (    124453 Cartesian)
 
 -------------------------------------------------------
 OpenMP Integral Computing Module                       
 Release: version 1.0, May 2013, Q-Chem Inc. Pittsburgh 
 -------------------------------------------------------
 Integral Job Info:
 Integral job number is                      11
 Integral operator is                         1
 short-range coefficients              16700000
 long-range coefficients              100000000
 Omega coefficients                         300
 if combine SR and LR in K                    1
 Integral screening is                        0
 Integral computing path is                   2
 max size of driver memory is            800000
 size of driver memory is                776718
 size of scratch memory is              4473992
 max col of scratch BK array              10000
 max len of scratch array in speh3          662
 max len of scratch index in speh4           32
 max int batch size is                      520
 min int batch size is                       52
 fixed nKL is                                52
 max L of basis functions is                  3
 order of int derivative is                   0
 number of shells is                        175
 number of basis is                         517
 number of cartesian basis is               517
 number of contracted shell pairs         14243
 number of primitive shell pairs          28912
 maxK2 (contraction) of shell pair           36
 max number of K2 of shell pair               1
 max number of CS2 of shell pair           2336
 max number of PS2 of shell pair           3318
 mem total for path MDJ                  787516
 -------------------------------------------------------
 Smallest overlap matrix eigenvalue = 2.15E-06
 Guess MOs from SCF MO coefficient file
 Reading MOs from coefficient file
 Reading MOs from coefficient file
 Long-range K will be added via erf
 Coulomb attenuation parameter = 0.3 bohr**(-1)
 A restricted hybrid HF-DFT SCF calculation will be
 performed using Pulay DIIS extrapolation
 Polarizable Continuum solvation model will be applied
 Exchange:     0.1670 Hartree-Fock + 1.0000 wB97X-V + LR-HF
 Correlation:  1.0000 wB97X-V
 Using SG-2 standard quadrature grid
 Nonlocal Correlation:  VV10 with C = 0.0100 and b = 6.00
 Grid used for NLC:  SG-1 standard quadrature
 SCF converges when DIIS error is below 1.0E-08
Using Q-Chem read-in guess as SCF_GUESS READ specified.

 using 16 threads for integral computing
 -------------------------------------------------------
 OpenMP Integral computing Module                
 Release: version 1.0, May 2013, Q-Chem Inc. Pittsburgh 
 -------------------------------------------------------
 using 16 threads for integral computing
 -------------------------------------------------------
 OpenMP Integral computing Module                
 Release: version 1.0, May 2013, Q-Chem Inc. Pittsburgh 
 -------------------------------------------------------
 -------------------------------------------------------
 OpenMP BLAS3 based DFT computing Module                
 Release: version 1.0, May 2013, Q-Chem Inc. Pittsburgh 
 -------------------------------------------------------
 -------------------------------------------------------
 OpenMP BLAS3 based DFT computing Module                
 Release: version 1.0, May 2013, Q-Chem Inc. Pittsburgh 
 -------------------------------------------------------
 -------------------------------------------------------
 OpenMP BLAS3 based DFT computing Module                
 Release: version 1.0, May 2013, Q-Chem Inc. Pittsburgh 
 -------------------------------------------------------
 ---------------------------------------
  Cycle       Energy         DIIS Error
 ---------------------------------------
    1    -571.2980634194      3.93E-04
    2    -571.6107900902      4.76E-04
    3    -571.6191918287      2.18E-04
    4    -571.6205249958      1.54E-04
    5    -571.6212421477      1.17E-04
    6    -571.6218522667      8.41E-05
    7    -571.6221309377      6.48E-05
    8    -571.6223005075      5.07E-05
    9    -571.6223798140      4.33E-05
   10    -571.6224334070      3.77E-05
   11    -571.6224792958      3.24E-05
   12    -571.6225251880      2.60E-05
   13    -571.6225654078      1.86E-05
   14    -571.6225812025      1.47E-05
   15    -571.6225906486      1.18E-05
   16    -571.6225970210      9.31E-06
   17    -571.6226075432      8.78E-08
   18    -571.6226075435      1.71E-08
   19    -571.6226075435      1.14E-08
   20    -571.6226075435      3.41E-09 Convergence criterion met
 ---------------------------------------

************** Final PCM Free Energy Summary **************
 G_electrostatic  =      -0.32454403 hartree =    -203.65445195 kcal/mol
 G_cavitation     =       0.00000000 hartree =       0.00000000 kcal/mol
 G_dispersion     =       0.00000000 hartree =       0.00000000 kcal/mol
 G_repulsion      =       0.00000000 hartree =       0.00000000 kcal/mol
 --------------------------------------------------
 Non-electrostatic Free Energy =       0.00000000 hartree =       0.00000000 kcal/mol
 Total                         =      -0.32454403 hartree =    -203.65445195 kcal/mol
 --------------------------------------------------
 SCF Energy (H0 + V/2)                       =    -571.62260754 
 Solute Internal Energy (H0)                 =    -571.29806351 
 Total Free Energy (H0 + V/2 + non-elec)     =    -571.62260754 hartree
                                             = -358698.60007129 kcal/mol
***********************************************************

 SCF time:  CPU 5255.39 s  wall 385.23 s
 SCF   energy in the final basis set = -571.62260754
 Total energy in the final basis set = -571.62260754
 
 --------------------------------------------------------------
 
                    Orbital Energies (a.u.)
 --------------------------------------------------------------
 
 Alpha MOs
 -- Occupied --
-19.221 -19.199 -19.183 -19.117 -19.117 -10.349 -10.318 -10.250
-10.249 -10.209  -1.178  -1.113  -1.102  -1.031  -1.016  -0.880
 -0.832  -0.744  -0.666  -0.608  -0.580  -0.561  -0.555  -0.531
 -0.514  -0.503  -0.501  -0.482  -0.473  -0.464  -0.459  -0.429
 -0.404  -0.377  -0.366  -0.364  -0.327  -0.326  -0.307  -0.223
 -- Virtual --
 -0.021   0.060   0.073   0.081   0.090   0.098   0.109   0.111
  0.117   0.122   0.132   0.145   0.147   0.149   0.160   0.164
  0.176   0.181   0.184   0.190   0.203   0.208   0.217   0.223
  0.230   0.233   0.245   0.248   0.253   0.255   0.264   0.280
  0.292   0.293   0.300   0.307   0.312   0.320   0.328   0.333
  0.337   0.342   0.346   0.354   0.362   0.364   0.372   0.374
  0.380   0.381   0.388   0.398   0.400   0.401   0.405   0.412
  0.415   0.426   0.427   0.432   0.438   0.445   0.446   0.452
  0.461   0.468   0.469   0.479   0.484   0.490   0.495   0.500
  0.509   0.514   0.519   0.526   0.532   0.542   0.549   0.553
  0.561   0.571   0.574   0.581   0.586   0.592   0.600   0.603
  0.617   0.632   0.635   0.637   0.641   0.647   0.651   0.656
  0.663   0.672   0.683   0.688   0.695   0.699   0.708   0.719
  0.722   0.727   0.732   0.742   0.746   0.764   0.766   0.770
  0.780   0.786   0.791   0.795   0.800   0.805   0.811   0.816
  0.828   0.829   0.837   0.842   0.851   0.856   0.861   0.867
  0.873   0.884   0.888   0.897   0.898   0.918   0.920   0.930
  0.935   0.953   0.970   0.986   0.994   1.003   1.006   1.017
  1.043   1.058   1.073   1.076   1.089   1.108   1.115   1.130
  1.139   1.141   1.153   1.168   1.181   1.203   1.206   1.223
  1.234   1.260   1.271   1.280   1.286   1.296   1.323   1.337
  1.363   1.374   1.386   1.405   1.408   1.422   1.435   1.442
  1.450   1.483   1.505   1.511   1.530   1.556   1.562   1.569
  1.603   1.644   1.657   1.671   1.734   1.781   1.804   1.814
  1.840   1.867   1.880   1.886   1.893   1.916   1.938   1.954
  1.959   1.966   1.979   1.993   2.008   2.019   2.045   2.048
  2.066   2.082   2.100   2.108   2.113   2.125   2.145   2.156
  2.171   2.208   2.212   2.224   2.270   2.275   2.290   2.326
  2.331   2.335   2.362   2.381   2.396   2.414   2.423   2.437
  2.458   2.468   2.473   2.487   2.492   2.519   2.540   2.557
  2.591   2.610   2.625   2.665   2.677   2.711   2.717   2.746
  2.758   2.782   2.790   2.815   2.838   2.865   2.883   2.901
  2.915   2.939   2.948   2.970   2.989   3.026   3.035   3.051
  3.064   3.077   3.100   3.120   3.134   3.142   3.160   3.178
  3.215   3.225   3.240   3.255   3.265   3.301   3.321   3.351
  3.371   3.379   3.399   3.420   3.434   3.455   3.467   3.480
  3.492   3.504   3.547   3.559   3.565   3.586   3.596   3.616
  3.623   3.643   3.650   3.659   3.681   3.698   3.713   3.717
  3.742   3.751   3.771   3.777   3.803   3.811   3.827   3.836
  3.866   3.879   3.899   3.937   3.986   4.009   4.040   4.090
  4.125   4.132   4.156   4.200   4.207   4.282   4.303   4.310
  4.370   4.427   4.483   4.533   4.614   4.636   4.650   4.749
  4.792   4.808   4.884   4.942   4.969   4.976   5.004   5.048
  5.103   5.126   5.236   5.277   5.298   5.325   5.343   5.373
  5.382   5.404   5.420   5.440   5.453   5.491   5.494   5.540
  5.573   5.625   5.632   5.643   5.725   5.736   5.738   5.806
  5.835   5.969   6.008   6.058   6.196   6.200   6.286   6.332
  6.394   6.399   6.405   6.504   6.576   6.613   6.658   6.681
  6.710   6.732   6.735   6.762   6.775   6.797   6.857   6.927
  6.973   6.986   7.002   7.045   7.077   7.219   7.232   7.293
  7.326   7.378   7.389   7.397   7.408   7.450   7.586  22.738
 22.966  23.015  23.211  23.659  44.102  44.392  44.448  44.481
 44.545
 --------------------------------------------------------------
 
          Ground-State Mulliken Net Atomic Charges

     Atom                 Charge (a.u.)
  ----------------------------------------
      1 C                    -1.134646
      2 C                     0.744246
      3 H                     0.238606
      4 H                     0.274657
      5 H                     0.222495
      6 C                    -0.011792
      7 C                    -0.627871
      8 H                     0.263774
      9 H                     0.137451
     10 H                     0.371197
     11 H                     0.295982
     12 O                    -0.518962
     13 O                    -0.435653
     14 O                    -0.639957
     15 H                     0.373323
     16 C                    -0.018800
     17 O                    -0.782580
     18 O                    -0.751469
  ----------------------------------------
  Sum of atomic charges =    -2.000000

 -----------------------------------------------------------------
                    Cartesian Multipole Moments
 -----------------------------------------------------------------
    Charge (ESU x 10^10)
                -9.6064
    Dipole Moment (Debye)
         X      -6.1195      Y      10.6804      Z      -2.9964
       Tot      12.6688
    Quadrupole Moments (Debye-Ang)
        XX     -71.5543     XY      15.1348     YY    -131.3626
        XZ       1.1732     YZ      -7.7536     ZZ     -84.1883
    Octopole Moments (Debye-Ang^2)
       XXX      -3.8776    XXY      35.5243    XYY     -53.0528
       YYY     164.6364    XXZ      -8.4132    XYZ      14.1064
       YYZ     -18.6683    XZZ       0.0102    YZZ      12.9915
       ZZZ      13.7596
    Hexadecapole Moments (Debye-Ang^3)
      XXXX    -540.5437   XXXY     215.4682   XXYY    -340.0752
      XYYY     330.7371   YYYY   -1820.3288   XXXZ     -73.7192
      XXYZ      -9.1212   XYYZ     -38.3587   YYYZ     -37.3842
      XXZZ    -182.5034   XYZZ      92.8785   YYZZ    -427.9825
      XZZZ     -78.6096   YZZZ     -36.4996   ZZZZ    -546.4915
 -----------------------------------------------------------------
 Calculating analytic gradient of the SCF energy
 Gradient of SCF Energy
            1           2           3           4           5           6
    1  -0.0051963  -0.0208783  -0.0273957   0.0697937  -0.0336604   0.0345260
    2  -0.0778906  -0.0515874   0.0712109  -0.0247516   0.0148883   0.0662872
    3   0.0116809  -0.0113823  -0.0690590  -0.0002986   0.0679563  -0.0191984
            7           8           9          10          11          12
    1  -0.0122522   0.0121428  -0.0571755   0.0515982  -0.0147065  -0.0266167
    2   0.0314931   0.0282799  -0.0688477  -0.0127018   0.0622333   0.0289395
    3   0.0056314   0.0726883  -0.0233068  -0.0770988  -0.0132654   0.0012105
           13          14          15          16          17          18
    1  -0.0206989   0.0398680   0.0410735  -0.0379941  -0.0100932   0.0176656
    2  -0.0071890  -0.0458384  -0.0286956  -0.0414739   0.0385601   0.0170836
    3  -0.0230542   0.0356360  -0.0012515   0.0247683  -0.0318209   0.0501642
 Max gradient component =       7.789E-02
 RMS gradient           =       3.990E-02
 Computing fast CPCM-ISWIG gradient
 Updating gradient with PCM contributions...
 -- total gradient after adding PCM contribution --
---------------------------------------------------
  Atom         X              Y              Z     
---------------------------------------------------
   1       0.000002      -0.000007      -0.000003
   2      -0.000002       0.000000      -0.000007
   3       0.000004      -0.000005      -0.000001
   4       0.000001      -0.000011      -0.000005
   5       0.000004      -0.000008      -0.000002
   6      -0.000007       0.000002       0.000003
   7       0.000012       0.000003       0.000002
   8       0.000003      -0.000001       0.000002
   9      -0.000003       0.000004       0.000000
  10      -0.000007       0.000009       0.000007
  11      -0.000007       0.000009      -0.000003
  12      -0.000001      -0.000001      -0.000001
  13      -0.000002      -0.000006      -0.000003
  14      -0.000012       0.000011      -0.000004
  15      -0.000009      -0.000011      -0.000014
  16       0.000006       0.000005       0.000008
  17       0.000006       0.000007       0.000012
  18       0.000012      -0.000000       0.000008
---------------------------------------------------
 Number of fixed atoms: 0
 Gradient time:  CPU 931.45 s  wall 67.29 s
 ######################################################
 ######################################################
 # Starting finite difference calculation for IDERIV  #
 Finite diff step size:  1.88973e-03 a.u.
 ----------------------------------------------------------------
             Standard Nuclear Orientation (Angstroms)
    I     Atom           X                Y                Z
 ----------------------------------------------------------------
    1      C      -1.9174795806    -0.0468847562    -1.0057660185
    2      C      -0.9473415160     1.0211630889    -0.4883860692
    3      H      -1.8189836252    -0.9442044694    -0.3930781492
    4      H      -2.9498702270     0.3172261984    -0.9575925233
    5      H      -1.6710053756    -0.2878792059    -2.0428213631
    6      C       0.5810088305     0.3719256103    -0.5636990657
    7      C       0.8940676310    -0.6884984188     0.3549054581
    8      H       0.6489185973     0.0616764388    -1.6106055685
    9      H       1.1523825288     1.2864865970    -0.3905173703
   10      H       1.2229980474    -0.4564635167     1.3648092446
   11      H       0.3279918205     1.0047767760     2.0352132715
   12      O      -0.8702647141     2.1253290129    -1.4107473678
   13      O      -1.3063096785     1.4001330959     0.7169650186
   14      O       0.1324282741     1.9091517413     1.7612181498
   15      H      -1.6852541268     2.6325105711    -1.3064064810
   16      C       0.8649734907    -2.1103540959     0.0217223555
   17      O       1.1929060794    -2.9455306353     0.9412188270
   18      O       0.5364825440    -2.4870190325    -1.1544543484
 ----------------------------------------------------------------
 Nuclear Repulsion Energy =   550.1479237211 hartrees
 There are       40 alpha and       40 beta electrons
 Discretize the solute cavity surface with Lebedev spheres
	Using 110 Lebedev grid points for each H atom
	Using 110 Lebedev grid points for other atoms
	Atomic van der Waals radii will be scaled by 1.20
 Remove points where switching function is < 1.0e-08
 Keep 1050 surface tesserae and discard 930 interior tesserae
 Molecular Surface Area = 186.432 Angst**2
 Requested basis set is def2-TZVPD
 There are 175 shells and 457 basis functions
 A cutoff of  1.0D-14 yielded  14243 shell pairs
 There are     97657 function pairs (    124453 Cartesian)
 Smallest overlap matrix eigenvalue = 2.15E-06
 Guess MOs from SCF MO coefficient file
 Reading MOs from coefficient file
 Reading MOs from coefficient file
 Long-range K will be added via erf
 Coulomb attenuation parameter = 0.3 bohr**(-1)
 A restricted hybrid HF-DFT SCF calculation will be
 performed using Pulay DIIS extrapolation
 Polarizable Continuum solvation model will be applied
 Exchange:     0.1670 Hartree-Fock + 1.0000 wB97X-V + LR-HF
 Correlation:  1.0000 wB97X-V
 Using SG-2 standard quadrature grid
 Nonlocal Correlation:  VV10 with C = 0.0100 and b = 6.00
 Grid used for NLC:  SG-1 standard quadrature
 SCF converges when DIIS error is below 1.0E-08
Using Q-Chem read-in guess as SCF_GUESS READ specified.

 using 16 threads for integral computing
 -------------------------------------------------------
 OpenMP Integral computing Module                
 Release: version 1.0, May 2013, Q-Chem Inc. Pittsburgh 
 -------------------------------------------------------
 using 16 threads for integral computing
 -------------------------------------------------------
 OpenMP Integral computing Module                
 Release: version 1.0, May 2013, Q-Chem Inc. Pittsburgh 
 -------------------------------------------------------
 -------------------------------------------------------
 OpenMP BLAS3 based DFT computing Module                
 Release: version 1.0, May 2013, Q-Chem Inc. Pittsburgh 
 -------------------------------------------------------
 -------------------------------------------------------
 OpenMP BLAS3 based DFT computing Module                
 Release: version 1.0, May 2013, Q-Chem Inc. Pittsburgh 
 -------------------------------------------------------
 -------------------------------------------------------
 OpenMP BLAS3 based DFT computing Module                
 Release: version 1.0, May 2013, Q-Chem Inc. Pittsburgh 
 -------------------------------------------------------
 ---------------------------------------
  Cycle       Energy         DIIS Error
 ---------------------------------------
    1    -571.2978461895      3.94E-04
    2    -571.6107608157      4.77E-04
    3    -571.6191883949      2.19E-04
    4    -571.6205248663      1.54E-04
    5    -571.6212467482      1.17E-04
    6    -571.6218606698      8.36E-05
    7    -571.6221413831      6.39E-05
    8    -571.6223121037      4.95E-05
    9    -571.6223967755      4.13E-05
   10    -571.6224616085      3.42E-05
   11    -571.6225299061      2.49E-05
   12    -571.6225786293      1.50E-05
   13    -571.6226013317      6.57E-06
   14    -571.6226054672      3.07E-06
   15    -571.6226064330      1.19E-06
   16    -571.6226065908      2.78E-07
   17    -571.6226066006      1.63E-08
   18    -571.6226066006      5.93E-09 Convergence criterion met
 ---------------------------------------

************** Final PCM Free Energy Summary **************
 G_electrostatic  =      -0.32452806 hartree =    -203.64442968 kcal/mol
 G_cavitation     =       0.00000000 hartree =       0.00000000 kcal/mol
 G_dispersion     =       0.00000000 hartree =       0.00000000 kcal/mol
 G_repulsion      =       0.00000000 hartree =       0.00000000 kcal/mol
 --------------------------------------------------
 Non-electrostatic Free Energy =       0.00000000 hartree =       0.00000000 kcal/mol
 Total                         =      -0.32452806 hartree =    -203.64442968 kcal/mol
 --------------------------------------------------
 SCF Energy (H0 + V/2)                       =    -571.62260660 
 Solute Internal Energy (H0)                 =    -571.29807854 
 Total Free Energy (H0 + V/2 + non-elec)     =    -571.62260660 hartree
                                             = -358698.59947961 kcal/mol
***********************************************************

 SCF time:  CPU 4727.04 s  wall 346.32 s
 SCF   energy in the final basis set = -571.62260660
 Total energy in the final basis set = -571.62260660
 
 --------------------------------------------------------------
 
                    Orbital Energies (a.u.)
 --------------------------------------------------------------
 
 Alpha MOs
 -- Occupied --
-19.221 -19.199 -19.183 -19.117 -19.117 -10.349 -10.318 -10.250
-10.249 -10.209  -1.178  -1.113  -1.102  -1.031  -1.016  -0.880
 -0.832  -0.744  -0.666  -0.608  -0.580  -0.561  -0.555  -0.531
 -0.514  -0.503  -0.501  -0.482  -0.473  -0.464  -0.459  -0.429
 -0.404  -0.377  -0.366  -0.364  -0.327  -0.326  -0.307  -0.223
 -- Virtual --
 -0.021   0.060   0.073   0.081   0.090   0.098   0.109   0.111
  0.117   0.122   0.132   0.145   0.147   0.149   0.160   0.164
  0.176   0.181   0.184   0.190   0.203   0.208   0.217   0.223
  0.230   0.233   0.245   0.248   0.253   0.255   0.264   0.280
  0.292   0.293   0.300   0.307   0.312   0.320   0.328   0.333
  0.337   0.342   0.346   0.354   0.362   0.364   0.372   0.374
  0.380   0.381   0.388   0.398   0.400   0.401   0.405   0.412
  0.415   0.426   0.427   0.432   0.438   0.445   0.446   0.452
  0.461   0.468   0.469   0.479   0.484   0.490   0.495   0.500
  0.509   0.514   0.519   0.526   0.532   0.542   0.549   0.553
  0.561   0.571   0.574   0.581   0.586   0.592   0.600   0.603
  0.617   0.632   0.635   0.637   0.641   0.647   0.651   0.656
  0.663   0.672   0.683   0.688   0.695   0.699   0.708   0.719
  0.722   0.727   0.732   0.742   0.746   0.764   0.767   0.770
  0.780   0.786   0.791   0.795   0.800   0.805   0.811   0.816
  0.828   0.829   0.837   0.842   0.851   0.856   0.861   0.867
  0.873   0.884   0.888   0.897   0.898   0.918   0.920   0.930
  0.935   0.953   0.970   0.986   0.994   1.003   1.006   1.017
  1.043   1.058   1.073   1.076   1.089   1.108   1.115   1.130
  1.139   1.141   1.153   1.168   1.181   1.204   1.206   1.223
  1.234   1.260   1.271   1.280   1.286   1.296   1.323   1.337
  1.363   1.374   1.386   1.405   1.408   1.422   1.435   1.442
  1.450   1.483   1.505   1.512   1.530   1.556   1.562   1.569
  1.603   1.644   1.657   1.671   1.734   1.781   1.804   1.814
  1.840   1.867   1.880   1.886   1.893   1.916   1.938   1.954
  1.959   1.966   1.979   1.993   2.008   2.019   2.045   2.048
  2.066   2.082   2.100   2.107   2.113   2.125   2.145   2.156
  2.171   2.208   2.212   2.224   2.270   2.275   2.290   2.326
  2.331   2.335   2.363   2.381   2.397   2.414   2.423   2.437
  2.458   2.468   2.473   2.487   2.492   2.519   2.540   2.556
  2.591   2.611   2.625   2.665   2.677   2.711   2.717   2.747
  2.758   2.782   2.790   2.814   2.838   2.865   2.883   2.900
  2.915   2.938   2.948   2.970   2.989   3.026   3.035   3.051
  3.064   3.077   3.100   3.120   3.134   3.142   3.160   3.178
  3.215   3.225   3.240   3.255   3.265   3.302   3.321   3.351
  3.371   3.379   3.399   3.420   3.434   3.454   3.467   3.480
  3.492   3.504   3.547   3.559   3.566   3.586   3.596   3.616
  3.623   3.643   3.650   3.659   3.681   3.699   3.713   3.717
  3.742   3.751   3.771   3.777   3.803   3.811   3.827   3.836
  3.866   3.879   3.899   3.937   3.986   4.009   4.040   4.090
  4.125   4.132   4.156   4.200   4.207   4.282   4.304   4.310
  4.370   4.427   4.483   4.533   4.615   4.636   4.649   4.750
  4.792   4.809   4.884   4.942   4.969   4.976   5.004   5.048
  5.103   5.126   5.236   5.277   5.298   5.325   5.343   5.373
  5.382   5.404   5.420   5.440   5.453   5.491   5.494   5.540
  5.573   5.625   5.632   5.643   5.725   5.736   5.738   5.806
  5.835   5.969   6.008   6.058   6.196   6.200   6.286   6.332
  6.394   6.399   6.405   6.504   6.576   6.613   6.658   6.681
  6.710   6.732   6.735   6.762   6.775   6.797   6.857   6.927
  6.973   6.986   7.002   7.045   7.077   7.219   7.232   7.293
  7.326   7.378   7.389   7.397   7.408   7.450   7.586  22.738
 22.966  23.015  23.211  23.659  44.102  44.392  44.449  44.481
 44.545
 --------------------------------------------------------------
 
          Ground-State Mulliken Net Atomic Charges

     Atom                 Charge (a.u.)
  ----------------------------------------
      1 C                    -1.135514
      2 C                     0.745472
      3 H                     0.238808
      4 H                     0.274005
      5 H                     0.222869
      6 C                    -0.012250
      7 C                    -0.627712
      8 H                     0.263949
      9 H                     0.137310
     10 H                     0.371226
     11 H                     0.295975
     12 O                    -0.518999
     13 O                    -0.435748
     14 O                    -0.639997
     15 H                     0.373352
     16 C                    -0.018758
     17 O                    -0.782553
     18 O                    -0.751434
  ----------------------------------------
  Sum of atomic charges =    -2.000000

 -----------------------------------------------------------------
                    Cartesian Multipole Moments
 -----------------------------------------------------------------
    Charge (ESU x 10^10)
                -9.6064
    Dipole Moment (Debye)
         X      -6.1172      Y      10.6771      Z      -2.9970
       Tot      12.6651
    Quadrupole Moments (Debye-Ang)
        XX     -71.5599     XY      15.1368     YY    -131.3609
        XZ       1.1728     YZ      -7.7548     ZZ     -84.1879
    Octopole Moments (Debye-Ang^2)
       XXX      -3.8610    XXY      35.5096    XYY     -53.0540
       YYY     164.6191    XXZ      -8.4095    XYZ      14.1023
       YYZ     -18.6715    XZZ       0.0049    YZZ      12.9837
       ZZZ      13.7513
    Hexadecapole Moments (Debye-Ang^3)
      XXXX    -540.5373   XXXY     215.4966   XXYY    -340.0561
      XYYY     330.7332   YYYY   -1820.2945   XXXZ     -73.7234
      XXYZ      -9.1141   XYYZ     -38.3542   YYYZ     -37.3933
      XXZZ    -182.4866   XYZZ      92.8820   YYZZ    -427.9821
      XZZZ     -78.5892   YZZZ     -36.5052   ZZZZ    -546.4849
 -----------------------------------------------------------------
 Calculating analytic gradient of the SCF energy
 Gradient of SCF Energy
            1           2           3           4           5           6
    1  -0.0043179  -0.0210652  -0.0273905   0.0692073  -0.0337148   0.0343943
    2  -0.0780913  -0.0517015   0.0712798  -0.0245536   0.0149280   0.0663119
    3   0.0116618  -0.0114672  -0.0691027  -0.0003096   0.0681136  -0.0191922
            7           8           9          10          11          12
    1  -0.0121693   0.0121667  -0.0572063   0.0515693  -0.0147062  -0.0266200
    2   0.0314917   0.0282563  -0.0688656  -0.0126940   0.0622301   0.0289292
    3   0.0056200   0.0726965  -0.0233155  -0.0770932  -0.0132639   0.0012254
           13          14          15          16          17          18
    1  -0.0206933   0.0398610   0.0410728  -0.0379607  -0.0100944   0.0176673
    2  -0.0071799  -0.0458347  -0.0286939  -0.0414492   0.0385549   0.0170819
    3  -0.0230534   0.0356288  -0.0012571   0.0247686  -0.0318169   0.0501570
 Max gradient component =       7.809E-02
 RMS gradient           =       3.990E-02
 Computing fast CPCM-ISWIG gradient
 Updating gradient with PCM contributions...
 -- total gradient after adding PCM contribution --
---------------------------------------------------
  Atom         X              Y              Z     
---------------------------------------------------
   1       0.000996      -0.000111      -0.000045
   2      -0.000182      -0.000114      -0.000079
   3      -0.000085       0.000033      -0.000026
   4      -0.000529       0.000151       0.000021
   5      -0.000110       0.000020       0.000110
   6      -0.000081      -0.000003      -0.000018
   7       0.000014      -0.000023       0.000011
   8       0.000006      -0.000002      -0.000001
   9      -0.000008       0.000005      -0.000003
  10      -0.000006       0.000009       0.000007
  11      -0.000007       0.000006      -0.000003
  12      -0.000002      -0.000001       0.000002
  13       0.000012       0.000009       0.000028
  14      -0.000033       0.000008      -0.000020
  15      -0.000007      -0.000009      -0.000015
  16       0.000008       0.000028       0.000016
  17       0.000008      -0.000002       0.000015
  18       0.000008      -0.000005       0.000000
---------------------------------------------------
 Number of fixed atoms: 0
 Gradient time:  CPU 919.58 s  wall 66.51 s
 ----------------------------------------------------------------
             Standard Nuclear Orientation (Angstroms)
    I     Atom           X                Y                Z
 ----------------------------------------------------------------
    1      C      -1.9194795806    -0.0468847562    -1.0057660185
    2      C      -0.9473415160     1.0211630889    -0.4883860692
    3      H      -1.8189836252    -0.9442044694    -0.3930781492
    4      H      -2.9498702270     0.3172261984    -0.9575925233
    5      H      -1.6710053756    -0.2878792059    -2.0428213631
    6      C       0.5810088305     0.3719256103    -0.5636990657
    7      C       0.8940676310    -0.6884984188     0.3549054581
    8      H       0.6489185973     0.0616764388    -1.6106055685
    9      H       1.1523825288     1.2864865970    -0.3905173703
   10      H       1.2229980474    -0.4564635167     1.3648092446
   11      H       0.3279918205     1.0047767760     2.0352132715
   12      O      -0.8702647141     2.1253290129    -1.4107473678
   13      O      -1.3063096785     1.4001330959     0.7169650186
   14      O       0.1324282741     1.9091517413     1.7612181498
   15      H      -1.6852541268     2.6325105711    -1.3064064810
   16      C       0.8649734907    -2.1103540959     0.0217223555
   17      O       1.1929060794    -2.9455306353     0.9412188270
   18      O       0.5364825440    -2.4870190325    -1.1544543484
 ----------------------------------------------------------------
 Nuclear Repulsion Energy =   550.1154935336 hartrees
 There are       40 alpha and       40 beta electrons
 Discretize the solute cavity surface with Lebedev spheres
	Using 110 Lebedev grid points for each H atom
	Using 110 Lebedev grid points for other atoms
	Atomic van der Waals radii will be scaled by 1.20
 Remove points where switching function is < 1.0e-08
 Keep 1050 surface tesserae and discard 930 interior tesserae
 Molecular Surface Area = 186.442 Angst**2
 Requested basis set is def2-TZVPD
 There are 175 shells and 457 basis functions
 A cutoff of  1.0D-14 yielded  14243 shell pairs
 There are     97657 function pairs (    124453 Cartesian)
 Smallest overlap matrix eigenvalue = 2.15E-06
 Guess MOs from SCF MO coefficient file
 Reading MOs from coefficient file
 Reading MOs from coefficient file
 Long-range K will be added via erf
 Coulomb attenuation parameter = 0.3 bohr**(-1)
 A restricted hybrid HF-DFT SCF calculation will be
 performed using Pulay DIIS extrapolation
 Polarizable Continuum solvation model will be applied
 Exchange:     0.1670 Hartree-Fock + 1.0000 wB97X-V + LR-HF
 Correlation:  1.0000 wB97X-V
 Using SG-2 standard quadrature grid
 Nonlocal Correlation:  VV10 with C = 0.0100 and b = 6.00
 Grid used for NLC:  SG-1 standard quadrature
 SCF converges when DIIS error is below 1.0E-08
Using Q-Chem read-in guess as SCF_GUESS READ specified.

 using 16 threads for integral computing
 -------------------------------------------------------
 OpenMP Integral computing Module                
 Release: version 1.0, May 2013, Q-Chem Inc. Pittsburgh 
 -------------------------------------------------------
 using 16 threads for integral computing
 -------------------------------------------------------
 OpenMP Integral computing Module                
 Release: version 1.0, May 2013, Q-Chem Inc. Pittsburgh 
 -------------------------------------------------------
 -------------------------------------------------------
 OpenMP BLAS3 based DFT computing Module                
 Release: version 1.0, May 2013, Q-Chem Inc. Pittsburgh 
 -------------------------------------------------------
 -------------------------------------------------------
 OpenMP BLAS3 based DFT computing Module                
 Release: version 1.0, May 2013, Q-Chem Inc. Pittsburgh 
 -------------------------------------------------------
 -------------------------------------------------------
 OpenMP BLAS3 based DFT computing Module                
 Release: version 1.0, May 2013, Q-Chem Inc. Pittsburgh 
 -------------------------------------------------------
 ---------------------------------------
  Cycle       Energy         DIIS Error
 ---------------------------------------
    1    -571.2985138418      3.93E-04
    2    -571.6108528293      4.73E-04
    3    -571.6192033901      2.18E-04
    4    -571.6205312479      1.54E-04
    5    -571.6212494353      1.17E-04
    6    -571.6218693490      8.28E-05
    7    -571.6221652080      6.18E-05
    8    -571.6223424691      4.64E-05
    9    -571.6224382841      3.65E-05
   10    -571.6225154251      2.66E-05
   11    -571.6225799535      1.44E-05
   12    -571.6226015569      6.25E-06
   13    -571.6226062309      1.73E-06
   14    -571.6226065675      5.67E-07
   15    -571.6226066023      1.36E-07
   16    -571.6226066042      3.82E-08
   17    -571.6226066044      1.17E-08
   18    -571.6226066044      5.41E-09 Convergence criterion met
 ---------------------------------------

************** Final PCM Free Energy Summary **************
 G_electrostatic  =      -0.32455988 hartree =    -203.66439917 kcal/mol
 G_cavitation     =       0.00000000 hartree =       0.00000000 kcal/mol
 G_dispersion     =       0.00000000 hartree =       0.00000000 kcal/mol
 G_repulsion      =       0.00000000 hartree =       0.00000000 kcal/mol
 --------------------------------------------------
 Non-electrostatic Free Energy =       0.00000000 hartree =       0.00000000 kcal/mol
 Total                         =      -0.32455988 hartree =    -203.66439917 kcal/mol
 --------------------------------------------------
 SCF Energy (H0 + V/2)                       =    -571.62260660 
 Solute Internal Energy (H0)                 =    -571.29804672 
 Total Free Energy (H0 + V/2 + non-elec)     =    -571.62260660 hartree
                                             = -358698.59948196 kcal/mol
***********************************************************

 SCF time:  CPU 4729.69 s  wall 347.50 s
 SCF   energy in the final basis set = -571.62260660
 Total energy in the final basis set = -571.62260660
 
 --------------------------------------------------------------
 
                    Orbital Energies (a.u.)
 --------------------------------------------------------------
 
 Alpha MOs
 -- Occupied --
-19.221 -19.199 -19.183 -19.117 -19.117 -10.349 -10.318 -10.250
-10.249 -10.209  -1.178  -1.113  -1.102  -1.031  -1.016  -0.880
 -0.832  -0.744  -0.666  -0.608  -0.580  -0.561  -0.555  -0.531
 -0.514  -0.503  -0.501  -0.482  -0.474  -0.464  -0.459  -0.429
 -0.404  -0.377  -0.366  -0.364  -0.327  -0.326  -0.307  -0.223
 -- Virtual --
 -0.021   0.060   0.073   0.081   0.090   0.098   0.109   0.111
  0.117   0.122   0.132   0.145   0.147   0.149   0.160   0.164
  0.176   0.181   0.184   0.190   0.203   0.208   0.217   0.223
  0.230   0.233   0.245   0.248   0.253   0.255   0.264   0.280
  0.292   0.293   0.300   0.307   0.312   0.320   0.328   0.333
  0.337   0.342   0.346   0.354   0.362   0.364   0.372   0.374
  0.380   0.381   0.388   0.398   0.400   0.401   0.405   0.412
  0.415   0.426   0.427   0.432   0.438   0.445   0.446   0.452
  0.461   0.468   0.469   0.479   0.484   0.490   0.495   0.500
  0.509   0.514   0.519   0.526   0.532   0.542   0.549   0.553
  0.561   0.571   0.574   0.581   0.586   0.592   0.600   0.603
  0.617   0.632   0.635   0.636   0.641   0.647   0.651   0.656
  0.663   0.672   0.683   0.688   0.695   0.699   0.708   0.719
  0.722   0.727   0.732   0.742   0.746   0.764   0.766   0.770
  0.780   0.786   0.791   0.795   0.800   0.805   0.811   0.816
  0.828   0.829   0.837   0.842   0.851   0.856   0.861   0.867
  0.873   0.884   0.888   0.897   0.898   0.918   0.920   0.930
  0.935   0.953   0.970   0.986   0.994   1.003   1.006   1.017
  1.043   1.058   1.073   1.076   1.089   1.108   1.115   1.130
  1.139   1.141   1.153   1.168   1.181   1.203   1.206   1.223
  1.234   1.260   1.271   1.280   1.286   1.296   1.322   1.337
  1.363   1.374   1.386   1.404   1.408   1.422   1.435   1.442
  1.450   1.483   1.505   1.511   1.530   1.556   1.562   1.569
  1.603   1.644   1.657   1.671   1.734   1.781   1.804   1.814
  1.840   1.867   1.880   1.886   1.893   1.916   1.938   1.954
  1.959   1.966   1.979   1.993   2.008   2.019   2.045   2.048
  2.066   2.082   2.101   2.108   2.113   2.125   2.145   2.156
  2.171   2.208   2.212   2.224   2.270   2.275   2.289   2.326
  2.331   2.335   2.362   2.381   2.396   2.414   2.423   2.437
  2.458   2.468   2.473   2.487   2.492   2.519   2.540   2.557
  2.591   2.610   2.626   2.665   2.677   2.711   2.717   2.746
  2.758   2.782   2.790   2.815   2.838   2.865   2.883   2.901
  2.915   2.939   2.948   2.970   2.989   3.026   3.035   3.051
  3.064   3.077   3.100   3.120   3.134   3.142   3.160   3.178
  3.215   3.225   3.240   3.255   3.265   3.301   3.322   3.351
  3.371   3.379   3.399   3.420   3.434   3.455   3.467   3.480
  3.492   3.504   3.547   3.559   3.565   3.586   3.596   3.615
  3.623   3.643   3.650   3.659   3.681   3.698   3.713   3.717
  3.741   3.751   3.771   3.777   3.803   3.811   3.827   3.836
  3.866   3.879   3.899   3.937   3.986   4.009   4.040   4.090
  4.125   4.132   4.156   4.200   4.207   4.281   4.303   4.309
  4.370   4.427   4.483   4.533   4.614   4.636   4.651   4.749
  4.792   4.808   4.884   4.942   4.969   4.976   5.004   5.048
  5.103   5.126   5.236   5.277   5.298   5.325   5.343   5.373
  5.382   5.404   5.420   5.440   5.452   5.491   5.494   5.540
  5.573   5.625   5.632   5.643   5.725   5.736   5.738   5.806
  5.834   5.969   6.008   6.058   6.195   6.200   6.286   6.332
  6.394   6.399   6.405   6.504   6.576   6.613   6.658   6.681
  6.710   6.732   6.735   6.762   6.775   6.797   6.857   6.927
  6.973   6.986   7.002   7.045   7.077   7.219   7.232   7.293
  7.326   7.378   7.389   7.397   7.408   7.450   7.586  22.738
 22.966  23.015  23.210  23.659  44.102  44.392  44.448  44.481
 44.545
 --------------------------------------------------------------
 
          Ground-State Mulliken Net Atomic Charges

     Atom                 Charge (a.u.)
  ----------------------------------------
      1 C                    -1.133782
      2 C                     0.743018
      3 H                     0.238403
      4 H                     0.275313
      5 H                     0.222121
      6 C                    -0.011337
      7 C                    -0.628028
      8 H                     0.263598
      9 H                     0.137592
     10 H                     0.371170
     11 H                     0.295990
     12 O                    -0.518925
     13 O                    -0.435557
     14 O                    -0.639918
     15 H                     0.373295
     16 C                    -0.018841
     17 O                    -0.782606
     18 O                    -0.751504
  ----------------------------------------
  Sum of atomic charges =    -2.000000

 -----------------------------------------------------------------
                    Cartesian Multipole Moments
 -----------------------------------------------------------------
    Charge (ESU x 10^10)
                -9.6064
    Dipole Moment (Debye)
         X      -6.1219      Y      10.6836      Z      -2.9957
       Tot      12.6725
    Quadrupole Moments (Debye-Ang)
        XX     -71.5488     XY      15.1327     YY    -131.3643
        XZ       1.1736     YZ      -7.7525     ZZ     -84.1888
    Octopole Moments (Debye-Ang^2)
       XXX      -3.8941    XXY      35.5389    XYY     -53.0514
       YYY     164.6535    XXZ      -8.4169    XYZ      14.1104
       YYZ     -18.6650    XZZ       0.0156    YZZ      12.9992
       ZZZ      13.7679
    Hexadecapole Moments (Debye-Ang^3)
      XXXX    -540.5506   XXXY     215.4398   XXYY    -340.0942
      XYYY     330.7407   YYYY   -1820.3625   XXXZ     -73.7151
      XXYZ      -9.1283   XYYZ     -38.3633   YYYZ     -37.3751
      XXZZ    -182.5205   XYZZ      92.8750   YYZZ    -427.9829
      XZZZ     -78.6301   YZZZ     -36.4940   ZZZZ    -546.4980
 -----------------------------------------------------------------
 Calculating analytic gradient of the SCF energy
 Gradient of SCF Energy
            1           2           3           4           5           6
    1  -0.0060773  -0.0206915  -0.0274006   0.0703827  -0.0336057   0.0346570
    2  -0.0776875  -0.0514734   0.0711414  -0.0249508   0.0148484   0.0662625
    3   0.0117000  -0.0112980  -0.0690147  -0.0002876   0.0677988  -0.0192043
            7           8           9          10          11          12
    1  -0.0123345   0.0121188  -0.0571446   0.0516269  -0.0147069  -0.0266135
    2   0.0314944   0.0283034  -0.0688300  -0.0127096   0.0622364   0.0289498
    3   0.0056424   0.0726803  -0.0232981  -0.0771044  -0.0132669   0.0011956
           13          14          15          16          17          18
    1  -0.0207046   0.0398748   0.0410742  -0.0380274  -0.0100919   0.0176639
    2  -0.0071979  -0.0458420  -0.0286972  -0.0414983   0.0385653   0.0170853
    3  -0.0230547   0.0356430  -0.0012459   0.0247680  -0.0318249   0.0501714
 Max gradient component =       7.769E-02
 RMS gradient           =       3.991E-02
 Computing fast CPCM-ISWIG gradient
 Updating gradient with PCM contributions...
 -- total gradient after adding PCM contribution --
---------------------------------------------------
  Atom         X              Y              Z     
---------------------------------------------------
   1      -0.000996       0.000099       0.000040
   2       0.000177       0.000114       0.000065
   3       0.000094      -0.000044       0.000025
   4       0.000534      -0.000175      -0.000031
   5       0.000119      -0.000037      -0.000114
   6       0.000068       0.000007       0.000024
   7       0.000009       0.000029      -0.000007
   8      -0.000001      -0.000000       0.000005
   9       0.000002       0.000004       0.000003
  10      -0.000008       0.000009       0.000006
  11      -0.000007       0.000011      -0.000002
  12       0.000001      -0.000001      -0.000005
  13      -0.000016      -0.000020      -0.000033
  14       0.000009       0.000013       0.000011
  15      -0.000011      -0.000013      -0.000013
  16       0.000005      -0.000017       0.000000
  17       0.000005       0.000016       0.000009
  18       0.000016       0.000005       0.000016
---------------------------------------------------
 Number of fixed atoms: 0
 Gradient time:  CPU 936.92 s  wall 68.02 s
 ----------------------------------------------------------------
             Standard Nuclear Orientation (Angstroms)
    I     Atom           X                Y                Z
 ----------------------------------------------------------------
    1      C      -1.9184795806    -0.0458847562    -1.0057660185
    2      C      -0.9473415160     1.0211630889    -0.4883860692
    3      H      -1.8189836252    -0.9442044694    -0.3930781492
    4      H      -2.9498702270     0.3172261984    -0.9575925233
    5      H      -1.6710053756    -0.2878792059    -2.0428213631
    6      C       0.5810088305     0.3719256103    -0.5636990657
    7      C       0.8940676310    -0.6884984188     0.3549054581
    8      H       0.6489185973     0.0616764388    -1.6106055685
    9      H       1.1523825288     1.2864865970    -0.3905173703
   10      H       1.2229980474    -0.4564635167     1.3648092446
   11      H       0.3279918205     1.0047767760     2.0352132715
   12      O      -0.8702647141     2.1253290129    -1.4107473678
   13      O      -1.3063096785     1.4001330959     0.7169650186
   14      O       0.1324282741     1.9091517413     1.7612181498
   15      H      -1.6852541268     2.6325105711    -1.3064064810
   16      C       0.8649734907    -2.1103540959     0.0217223555
   17      O       1.1929060794    -2.9455306353     0.9412188270
   18      O       0.5364825440    -2.4870190325    -1.1544543484
 ----------------------------------------------------------------
 Nuclear Repulsion Energy =   550.1405626409 hartrees
 There are       40 alpha and       40 beta electrons
 Discretize the solute cavity surface with Lebedev spheres
	Using 110 Lebedev grid points for each H atom
	Using 110 Lebedev grid points for other atoms
	Atomic van der Waals radii will be scaled by 1.20
 Remove points where switching function is < 1.0e-08
 Keep 1050 surface tesserae and discard 930 interior tesserae
 Molecular Surface Area = 186.434 Angst**2
 Requested basis set is def2-TZVPD
 There are 175 shells and 457 basis functions
 A cutoff of  1.0D-14 yielded  14243 shell pairs
 There are     97657 function pairs (    124453 Cartesian)
 Smallest overlap matrix eigenvalue = 2.15E-06
 Guess MOs from SCF MO coefficient file
 Reading MOs from coefficient file
 Reading MOs from coefficient file
 Long-range K will be added via erf
 Coulomb attenuation parameter = 0.3 bohr**(-1)
 A restricted hybrid HF-DFT SCF calculation will be
 performed using Pulay DIIS extrapolation
 Polarizable Continuum solvation model will be applied
 Exchange:     0.1670 Hartree-Fock + 1.0000 wB97X-V + LR-HF
 Correlation:  1.0000 wB97X-V
 Using SG-2 standard quadrature grid
 Nonlocal Correlation:  VV10 with C = 0.0100 and b = 6.00
 Grid used for NLC:  SG-1 standard quadrature
 SCF converges when DIIS error is below 1.0E-08
Using Q-Chem read-in guess as SCF_GUESS READ specified.

 using 16 threads for integral computing
 -------------------------------------------------------
 OpenMP Integral computing Module                
 Release: version 1.0, May 2013, Q-Chem Inc. Pittsburgh 
 -------------------------------------------------------
 using 16 threads for integral computing
 -------------------------------------------------------
 OpenMP Integral computing Module                
 Release: version 1.0, May 2013, Q-Chem Inc. Pittsburgh 
 -------------------------------------------------------
 -------------------------------------------------------
 OpenMP BLAS3 based DFT computing Module                
 Release: version 1.0, May 2013, Q-Chem Inc. Pittsburgh 
 -------------------------------------------------------
 -------------------------------------------------------
 OpenMP BLAS3 based DFT computing Module                
 Release: version 1.0, May 2013, Q-Chem Inc. Pittsburgh 
 -------------------------------------------------------
 -------------------------------------------------------
 OpenMP BLAS3 based DFT computing Module                
 Release: version 1.0, May 2013, Q-Chem Inc. Pittsburgh 
 -------------------------------------------------------
 ---------------------------------------
  Cycle       Energy         DIIS Error
 ---------------------------------------
    1    -571.2976269321      3.94E-04
    2    -571.6107731885      4.76E-04
    3    -571.6191911818      2.19E-04
    4    -571.6205268626      1.54E-04
    5    -571.6212492725      1.17E-04
    6    -571.6218668561      8.32E-05
    7    -571.6221533165      6.29E-05
    8    -571.6223264266      4.81E-05
    9    -571.6224163461      3.91E-05
   10    -571.6224882634      3.06E-05
   11    -571.6225602739      1.92E-05
   12    -571.6225951780      9.53E-06
   13    -571.6226054236      3.11E-06
   14    -571.6226064626      1.15E-06
   15    -571.6226066031      3.75E-07
   16    -571.6226066186      8.47E-08
   17    -571.6226066194      1.32E-08
   18    -571.6226066194      5.64E-09 Convergence criterion met
 ---------------------------------------

************** Final PCM Free Energy Summary **************
 G_electrostatic  =      -0.32454386 hartree =    -203.65434806 kcal/mol
 G_cavitation     =       0.00000000 hartree =       0.00000000 kcal/mol
 G_dispersion     =       0.00000000 hartree =       0.00000000 kcal/mol
 G_repulsion      =       0.00000000 hartree =       0.00000000 kcal/mol
 --------------------------------------------------
 Non-electrostatic Free Energy =       0.00000000 hartree =       0.00000000 kcal/mol
 Total                         =      -0.32454386 hartree =    -203.65434806 kcal/mol
 --------------------------------------------------
 SCF Energy (H0 + V/2)                       =    -571.62260662 
 Solute Internal Energy (H0)                 =    -571.29806276 
 Total Free Energy (H0 + V/2 + non-elec)     =    -571.62260662 hartree
                                             = -358698.59949137 kcal/mol
***********************************************************

 SCF time:  CPU 4713.84 s  wall 348.09 s
 SCF   energy in the final basis set = -571.62260662
 Total energy in the final basis set = -571.62260662
 
 --------------------------------------------------------------
 
                    Orbital Energies (a.u.)
 --------------------------------------------------------------
 
 Alpha MOs
 -- Occupied --
-19.221 -19.199 -19.183 -19.117 -19.117 -10.349 -10.318 -10.250
-10.249 -10.209  -1.178  -1.113  -1.102  -1.031  -1.016  -0.880
 -0.832  -0.744  -0.666  -0.608  -0.580  -0.561  -0.555  -0.531
 -0.514  -0.503  -0.501  -0.482  -0.473  -0.464  -0.459  -0.429
 -0.404  -0.377  -0.366  -0.364  -0.327  -0.326  -0.307  -0.223
 -- Virtual --
 -0.021   0.060   0.073   0.081   0.090   0.098   0.109   0.111
  0.117   0.122   0.132   0.145   0.147   0.149   0.160   0.164
  0.176   0.181   0.184   0.190   0.203   0.208   0.217   0.223
  0.230   0.233   0.245   0.248   0.253   0.255   0.264   0.280
  0.292   0.293   0.300   0.307   0.312   0.320   0.328   0.333
  0.337   0.342   0.346   0.354   0.362   0.364   0.372   0.374
  0.380   0.381   0.388   0.398   0.400   0.401   0.405   0.412
  0.415   0.426   0.427   0.432   0.438   0.445   0.446   0.452
  0.461   0.468   0.469   0.479   0.484   0.490   0.495   0.500
  0.509   0.514   0.519   0.526   0.532   0.542   0.549   0.553
  0.561   0.571   0.574   0.581   0.586   0.592   0.600   0.603
  0.617   0.632   0.635   0.637   0.641   0.647   0.651   0.656
  0.663   0.672   0.683   0.687   0.695   0.699   0.708   0.718
  0.722   0.727   0.732   0.742   0.746   0.764   0.767   0.770
  0.780   0.786   0.791   0.795   0.800   0.805   0.811   0.816
  0.828   0.829   0.837   0.842   0.851   0.856   0.861   0.867
  0.873   0.884   0.888   0.897   0.898   0.918   0.920   0.930
  0.935   0.953   0.970   0.986   0.994   1.004   1.006   1.017
  1.043   1.058   1.073   1.076   1.089   1.108   1.115   1.130
  1.139   1.141   1.153   1.168   1.181   1.204   1.206   1.223
  1.234   1.260   1.271   1.280   1.286   1.296   1.323   1.337
  1.363   1.374   1.386   1.405   1.408   1.422   1.435   1.442
  1.450   1.483   1.505   1.511   1.530   1.556   1.562   1.569
  1.603   1.644   1.657   1.671   1.734   1.781   1.804   1.814
  1.840   1.867   1.880   1.886   1.893   1.916   1.938   1.954
  1.959   1.966   1.979   1.993   2.008   2.019   2.045   2.048
  2.066   2.082   2.100   2.107   2.113   2.125   2.145   2.156
  2.171   2.209   2.212   2.224   2.270   2.275   2.290   2.326
  2.331   2.335   2.363   2.381   2.396   2.414   2.423   2.437
  2.458   2.468   2.473   2.487   2.492   2.519   2.540   2.557
  2.591   2.610   2.625   2.665   2.677   2.711   2.717   2.747
  2.758   2.782   2.790   2.814   2.838   2.865   2.883   2.900
  2.915   2.938   2.948   2.970   2.989   3.026   3.035   3.051
  3.064   3.077   3.100   3.120   3.135   3.142   3.160   3.178
  3.215   3.225   3.240   3.255   3.265   3.302   3.322   3.351
  3.371   3.379   3.399   3.420   3.434   3.454   3.467   3.480
  3.492   3.504   3.547   3.559   3.565   3.586   3.596   3.616
  3.623   3.643   3.649   3.659   3.681   3.699   3.713   3.717
  3.742   3.751   3.771   3.777   3.803   3.811   3.827   3.836
  3.867   3.879   3.899   3.937   3.986   4.009   4.040   4.090
  4.125   4.132   4.157   4.200   4.207   4.282   4.304   4.310
  4.370   4.427   4.483   4.533   4.614   4.636   4.651   4.748
  4.792   4.808   4.884   4.942   4.969   4.976   5.004   5.048
  5.103   5.126   5.236   5.277   5.298   5.325   5.343   5.373
  5.382   5.404   5.420   5.440   5.453   5.491   5.494   5.540
  5.573   5.625   5.632   5.643   5.725   5.736   5.738   5.806
  5.835   5.969   6.008   6.058   6.196   6.200   6.286   6.332
  6.394   6.399   6.405   6.504   6.576   6.613   6.658   6.681
  6.710   6.732   6.735   6.762   6.775   6.797   6.857   6.927
  6.973   6.986   7.002   7.045   7.077   7.219   7.232   7.293
  7.326   7.378   7.389   7.397   7.408   7.450   7.586  22.738
 22.966  23.015  23.211  23.659  44.102  44.392  44.448  44.481
 44.545
 --------------------------------------------------------------
 
          Ground-State Mulliken Net Atomic Charges

     Atom                 Charge (a.u.)
  ----------------------------------------
      1 C                    -1.135166
      2 C                     0.745090
      3 H                     0.238044
      4 H                     0.274942
      5 H                     0.222447
      6 C                    -0.011709
      7 C                    -0.627913
      8 H                     0.263797
      9 H                     0.137380
     10 H                     0.371211
     11 H                     0.296016
     12 O                    -0.519029
     13 O                    -0.435691
     14 O                    -0.639854
     15 H                     0.373301
     16 C                    -0.018827
     17 O                    -0.782569
     18 O                    -0.751472
  ----------------------------------------
  Sum of atomic charges =    -2.000000

 -----------------------------------------------------------------
                    Cartesian Multipole Moments
 -----------------------------------------------------------------
    Charge (ESU x 10^10)
                -9.6064
    Dipole Moment (Debye)
         X      -6.1190      Y      10.6812      Z      -2.9944
       Tot      12.6687
    Quadrupole Moments (Debye-Ang)
        XX     -71.5519     XY      15.1355     YY    -131.3627
        XZ       1.1737     YZ      -7.7489     ZZ     -84.1877
    Octopole Moments (Debye-Ang^2)
       XXX      -3.8880    XXY      35.5193    XYY     -53.0487
       YYY     164.6234    XXZ      -8.4148    XYZ      14.1038
       YYZ     -18.6593    XZZ       0.0136    YZZ      12.9889
       ZZZ      13.7740
    Hexadecapole Moments (Debye-Ang^3)
      XXXX    -540.4858   XXXY     215.5024   XXYY    -340.0768
      XYYY     330.7689   YYYY   -1820.3310   XXXZ     -73.7036
      XXYZ      -9.1060   XYYZ     -38.3586   YYYZ     -37.3447
      XXZZ    -182.5005   XYZZ      92.8953   YYZZ    -427.9742
      XZZZ     -78.6132   YZZZ     -36.4605   ZZZZ    -546.4890
 -----------------------------------------------------------------
 Calculating analytic gradient of the SCF energy
 Gradient of SCF Energy
            1           2           3           4           5           6
    1  -0.0054054  -0.0210342  -0.0273240   0.0700168  -0.0335879   0.0346245
    2  -0.0771936  -0.0516578   0.0707639  -0.0248447   0.0148713   0.0663045
    3   0.0115043  -0.0114663  -0.0687080  -0.0002854   0.0678605  -0.0191557
            7           8           9          10          11          12
    1  -0.0122862   0.0121354  -0.0571683   0.0515921  -0.0147045  -0.0266366
    2   0.0314909   0.0282648  -0.0688223  -0.0127037   0.0622348   0.0288989
    3   0.0056122   0.0726866  -0.0233002  -0.0770927  -0.0132681   0.0012161
           13          14          15          16          17          18
    1  -0.0207205   0.0398803   0.0410726  -0.0380258  -0.0100941   0.0176657
    2  -0.0072278  -0.0458344  -0.0287116  -0.0414771   0.0385604   0.0170836
    3  -0.0231005   0.0356441  -0.0012578   0.0247626  -0.0318186   0.0501671
 Max gradient component =       7.719E-02
 RMS gradient           =       3.986E-02
 Computing fast CPCM-ISWIG gradient
 Updating gradient with PCM contributions...
 -- total gradient after adding PCM contribution --
---------------------------------------------------
  Atom         X              Y              Z     
---------------------------------------------------
   1      -0.000103       0.000985      -0.000072
   2      -0.000113      -0.000200      -0.000025
   3       0.000050      -0.000443       0.000245
   4       0.000164      -0.000159      -0.000014
   5       0.000032      -0.000118      -0.000106
   6       0.000008      -0.000002       0.000005
   7       0.000014       0.000007       0.000000
   8       0.000004      -0.000000       0.000003
   9      -0.000003       0.000005       0.000001
  10      -0.000008       0.000009       0.000007
  11      -0.000008       0.000011      -0.000004
  12      -0.000039      -0.000070       0.000005
  13      -0.000025      -0.000047      -0.000078
  14       0.000012       0.000021       0.000016
  15      -0.000010      -0.000011      -0.000014
  16       0.000007       0.000005       0.000007
  17       0.000006       0.000007       0.000013
  18       0.000012       0.000000       0.000008
---------------------------------------------------
 Number of fixed atoms: 0
 Gradient time:  CPU 922.91 s  wall 66.57 s
 ----------------------------------------------------------------
             Standard Nuclear Orientation (Angstroms)
    I     Atom           X                Y                Z
 ----------------------------------------------------------------
    1      C      -1.9184795806    -0.0478847562    -1.0057660185
    2      C      -0.9473415160     1.0211630889    -0.4883860692
    3      H      -1.8189836252    -0.9442044694    -0.3930781492
    4      H      -2.9498702270     0.3172261984    -0.9575925233
    5      H      -1.6710053756    -0.2878792059    -2.0428213631
    6      C       0.5810088305     0.3719256103    -0.5636990657
    7      C       0.8940676310    -0.6884984188     0.3549054581
    8      H       0.6489185973     0.0616764388    -1.6106055685
    9      H       1.1523825288     1.2864865970    -0.3905173703
   10      H       1.2229980474    -0.4564635167     1.3648092446
   11      H       0.3279918205     1.0047767760     2.0352132715
   12      O      -0.8702647141     2.1253290129    -1.4107473678
   13      O      -1.3063096785     1.4001330959     0.7169650186
   14      O       0.1324282741     1.9091517413     1.7612181498
   15      H      -1.6852541268     2.6325105711    -1.3064064810
   16      C       0.8649734907    -2.1103540959     0.0217223555
   17      O       1.1929060794    -2.9455306353     0.9412188270
   18      O       0.5364825440    -2.4870190325    -1.1544543484
 ----------------------------------------------------------------
 Nuclear Repulsion Energy =   550.1228551382 hartrees
 There are       40 alpha and       40 beta electrons
 Discretize the solute cavity surface with Lebedev spheres
	Using 110 Lebedev grid points for each H atom
	Using 110 Lebedev grid points for other atoms
	Atomic van der Waals radii will be scaled by 1.20
 Remove points where switching function is < 1.0e-08
 Keep 1050 surface tesserae and discard 930 interior tesserae
 Molecular Surface Area = 186.440 Angst**2
 Requested basis set is def2-TZVPD
 There are 175 shells and 457 basis functions
 A cutoff of  1.0D-14 yielded  14243 shell pairs
 There are     97657 function pairs (    124453 Cartesian)
 Smallest overlap matrix eigenvalue = 2.15E-06
 Guess MOs from SCF MO coefficient file
 Reading MOs from coefficient file
 Reading MOs from coefficient file
 Long-range K will be added via erf
 Coulomb attenuation parameter = 0.3 bohr**(-1)
 A restricted hybrid HF-DFT SCF calculation will be
 performed using Pulay DIIS extrapolation
 Polarizable Continuum solvation model will be applied
 Exchange:     0.1670 Hartree-Fock + 1.0000 wB97X-V + LR-HF
 Correlation:  1.0000 wB97X-V
 Using SG-2 standard quadrature grid
 Nonlocal Correlation:  VV10 with C = 0.0100 and b = 6.00
 Grid used for NLC:  SG-1 standard quadrature
 SCF converges when DIIS error is below 1.0E-08
Using Q-Chem read-in guess as SCF_GUESS READ specified.

 using 16 threads for integral computing
 -------------------------------------------------------
 OpenMP Integral computing Module                
 Release: version 1.0, May 2013, Q-Chem Inc. Pittsburgh 
 -------------------------------------------------------
 using 16 threads for integral computing
 -------------------------------------------------------
 OpenMP Integral computing Module                
 Release: version 1.0, May 2013, Q-Chem Inc. Pittsburgh 
 -------------------------------------------------------
 -------------------------------------------------------
 OpenMP BLAS3 based DFT computing Module                
 Release: version 1.0, May 2013, Q-Chem Inc. Pittsburgh 
 -------------------------------------------------------
 -------------------------------------------------------
 OpenMP BLAS3 based DFT computing Module                
 Release: version 1.0, May 2013, Q-Chem Inc. Pittsburgh 
 -------------------------------------------------------
 -------------------------------------------------------
 OpenMP BLAS3 based DFT computing Module                
 Release: version 1.0, May 2013, Q-Chem Inc. Pittsburgh 
 -------------------------------------------------------
 ---------------------------------------
  Cycle       Energy         DIIS Error
 ---------------------------------------
    1    -571.2984763302      3.95E-04
    2    -571.6107459097      4.77E-04
    3    -571.6191876575      2.19E-04
    4    -571.6205267210      1.54E-04
    5    -571.6212563583      1.17E-04
    6    -571.6218795829      8.23E-05
    7    -571.6221705106      6.15E-05
    8    -571.6223462234      4.60E-05
    9    -571.6224426456      3.59E-05
   10    -571.6225205724      2.58E-05
   11    -571.6225826746      1.36E-05
   12    -571.6226021806      5.83E-06
   13    -571.6226062591      1.63E-06
   14    -571.6226065490      6.00E-07
   15    -571.6226065874      1.83E-07
   16    -571.6226065911      4.70E-08
   17    -571.6226065913      1.18E-08
   18    -571.6226065913      5.46E-09 Convergence criterion met
 ---------------------------------------

************** Final PCM Free Energy Summary **************
 G_electrostatic  =      -0.32454412 hartree =    -203.65451066 kcal/mol
 G_cavitation     =       0.00000000 hartree =       0.00000000 kcal/mol
 G_dispersion     =       0.00000000 hartree =       0.00000000 kcal/mol
 G_repulsion      =       0.00000000 hartree =       0.00000000 kcal/mol
 --------------------------------------------------
 Non-electrostatic Free Energy =       0.00000000 hartree =       0.00000000 kcal/mol
 Total                         =      -0.32454412 hartree =    -203.65451066 kcal/mol
 --------------------------------------------------
 SCF Energy (H0 + V/2)                       =    -571.62260659 
 Solute Internal Energy (H0)                 =    -571.29806247 
 Total Free Energy (H0 + V/2 + non-elec)     =    -571.62260659 hartree
                                             = -358698.59947377 kcal/mol
***********************************************************

 SCF time:  CPU 4721.72 s  wall 346.75 s
 SCF   energy in the final basis set = -571.62260659
 Total energy in the final basis set = -571.62260659
 
 --------------------------------------------------------------
 
                    Orbital Energies (a.u.)
 --------------------------------------------------------------
 
 Alpha MOs
 -- Occupied --
-19.221 -19.199 -19.183 -19.117 -19.117 -10.349 -10.318 -10.250
-10.249 -10.209  -1.178  -1.113  -1.102  -1.031  -1.016  -0.880
 -0.832  -0.744  -0.666  -0.608  -0.580  -0.561  -0.555  -0.531
 -0.514  -0.503  -0.501  -0.482  -0.473  -0.464  -0.459  -0.429
 -0.404  -0.376  -0.366  -0.364  -0.327  -0.326  -0.307  -0.223
 -- Virtual --
 -0.021   0.060   0.073   0.081   0.090   0.098   0.109   0.111
  0.117   0.122   0.132   0.145   0.147   0.149   0.160   0.164
  0.176   0.181   0.184   0.190   0.203   0.208   0.217   0.223
  0.230   0.233   0.245   0.248   0.253   0.255   0.264   0.280
  0.292   0.293   0.300   0.307   0.312   0.320   0.328   0.333
  0.337   0.342   0.346   0.354   0.362   0.364   0.372   0.374
  0.380   0.381   0.388   0.398   0.400   0.401   0.405   0.412
  0.415   0.426   0.427   0.432   0.438   0.445   0.446   0.452
  0.461   0.468   0.469   0.479   0.484   0.490   0.495   0.500
  0.509   0.514   0.519   0.526   0.532   0.542   0.549   0.553
  0.561   0.571   0.574   0.581   0.586   0.592   0.600   0.603
  0.617   0.632   0.635   0.637   0.641   0.647   0.651   0.656
  0.663   0.672   0.683   0.688   0.695   0.699   0.708   0.719
  0.722   0.727   0.732   0.742   0.746   0.764   0.766   0.770
  0.780   0.786   0.791   0.795   0.800   0.805   0.811   0.816
  0.828   0.829   0.837   0.842   0.851   0.856   0.861   0.867
  0.873   0.884   0.888   0.897   0.898   0.918   0.920   0.930
  0.935   0.953   0.970   0.986   0.994   1.003   1.006   1.017
  1.043   1.058   1.073   1.076   1.089   1.108   1.115   1.130
  1.139   1.141   1.153   1.168   1.181   1.203   1.206   1.223
  1.234   1.260   1.271   1.280   1.286   1.296   1.323   1.337
  1.363   1.374   1.386   1.404   1.408   1.422   1.435   1.442
  1.450   1.483   1.505   1.511   1.529   1.556   1.562   1.569
  1.603   1.644   1.656   1.671   1.734   1.781   1.804   1.814
  1.840   1.867   1.880   1.886   1.893   1.916   1.938   1.954
  1.959   1.966   1.979   1.993   2.008   2.019   2.045   2.048
  2.065   2.082   2.100   2.108   2.113   2.125   2.145   2.156
  2.171   2.208   2.212   2.224   2.270   2.275   2.290   2.326
  2.331   2.335   2.362   2.381   2.397   2.414   2.423   2.437
  2.458   2.468   2.472   2.487   2.492   2.519   2.540   2.557
  2.591   2.610   2.625   2.665   2.677   2.711   2.717   2.746
  2.758   2.782   2.790   2.815   2.838   2.865   2.883   2.901
  2.915   2.939   2.948   2.970   2.989   3.026   3.035   3.051
  3.064   3.077   3.100   3.120   3.134   3.142   3.160   3.178
  3.215   3.225   3.240   3.255   3.265   3.301   3.321   3.351
  3.371   3.379   3.399   3.420   3.434   3.455   3.467   3.480
  3.492   3.504   3.547   3.559   3.565   3.586   3.596   3.615
  3.623   3.643   3.650   3.659   3.681   3.698   3.713   3.717
  3.741   3.751   3.771   3.777   3.803   3.811   3.827   3.836
  3.866   3.878   3.899   3.937   3.986   4.009   4.039   4.090
  4.125   4.132   4.156   4.200   4.207   4.282   4.303   4.309
  4.370   4.427   4.483   4.533   4.614   4.636   4.649   4.751
  4.792   4.808   4.884   4.942   4.969   4.976   5.004   5.048
  5.103   5.126   5.236   5.277   5.298   5.325   5.343   5.373
  5.382   5.404   5.420   5.440   5.452   5.491   5.494   5.540
  5.573   5.625   5.632   5.643   5.725   5.736   5.738   5.806
  5.834   5.969   6.008   6.058   6.195   6.200   6.286   6.332
  6.394   6.399   6.405   6.504   6.576   6.613   6.658   6.681
  6.710   6.732   6.735   6.762   6.775   6.797   6.857   6.927
  6.973   6.986   7.002   7.045   7.077   7.219   7.232   7.293
  7.326   7.378   7.389   7.397   7.408   7.450   7.586  22.738
 22.966  23.015  23.210  23.659  44.102  44.392  44.448  44.481
 44.545
 --------------------------------------------------------------
 
          Ground-State Mulliken Net Atomic Charges

     Atom                 Charge (a.u.)
  ----------------------------------------
      1 C                    -1.134130
      2 C                     0.743401
      3 H                     0.239169
      4 H                     0.274372
      5 H                     0.222542
      6 C                    -0.011879
      7 C                    -0.627827
      8 H                     0.263750
      9 H                     0.137522
     10 H                     0.371185
     11 H                     0.295948
     12 O                    -0.518895
     13 O                    -0.435615
     14 O                    -0.640061
     15 H                     0.373346
     16 C                    -0.018772
     17 O                    -0.782591
     18 O                    -0.751466
  ----------------------------------------
  Sum of atomic charges =    -2.000000

 -----------------------------------------------------------------
                    Cartesian Multipole Moments
 -----------------------------------------------------------------
    Charge (ESU x 10^10)
                -9.6064
    Dipole Moment (Debye)
         X      -6.1201      Y      10.6796      Z      -2.9984
       Tot      12.6688
    Quadrupole Moments (Debye-Ang)
        XX     -71.5567     XY      15.1341     YY    -131.3625
        XZ       1.1727     YZ      -7.7584     ZZ     -84.1889
    Octopole Moments (Debye-Ang^2)
       XXX      -3.8671    XXY      35.5292    XYY     -53.0567
       YYY     164.6492    XXZ      -8.4117    XYZ      14.1089
       YYZ     -18.6772    XZZ       0.0068    YZZ      12.9940
       ZZZ      13.7453
    Hexadecapole Moments (Debye-Ang^3)
      XXXX    -540.6018   XXXY     215.4340   XXYY    -340.0735
      XYYY     330.7050   YYYY   -1820.3262   XXXZ     -73.7348
      XXYZ      -9.1365   XYYZ     -38.3589   YYYZ     -37.4236
      XXZZ    -182.5064   XYZZ      92.8617   YYZZ    -427.9908
      XZZZ     -78.6060   YZZZ     -36.5386   ZZZZ    -546.4939
 -----------------------------------------------------------------
 Calculating analytic gradient of the SCF energy
 Gradient of SCF Energy
            1           2           3           4           5           6
    1  -0.0049864  -0.0207232  -0.0274673   0.0695705  -0.0337326   0.0344274
    2  -0.0785888  -0.0515165   0.0716593  -0.0246582   0.0149048   0.0662695
    3   0.0118600  -0.0112994  -0.0694113  -0.0003118   0.0680518  -0.0192407
            7           8           9          10          11          12
    1  -0.0122177   0.0121500  -0.0571827   0.0516041  -0.0147085  -0.0265969
    2   0.0314953   0.0282951  -0.0688733  -0.0126999   0.0622317   0.0289800
    3   0.0056502   0.0726902  -0.0233135  -0.0771048  -0.0132627   0.0012049
           13          14          15          16          17          18
    1  -0.0206775   0.0398555   0.0410745  -0.0379623  -0.0100922   0.0176656
    2  -0.0071502  -0.0458423  -0.0286796  -0.0414703   0.0385597   0.0170836
    3  -0.0230076   0.0356277  -0.0012452   0.0247740  -0.0318231   0.0501614
[...]
 O         -0.035 -0.013 -0.020   -0.039  0.013 -0.012   -0.004  0.003  0.004
 H          0.032  0.012 -0.046    0.031 -0.010 -0.057    0.097  0.053 -0.074
 C          0.681  0.082 -0.200   -0.085  0.061  0.039    0.006 -0.130 -0.032
 O         -0.189 -0.004  0.001   -0.007  0.025 -0.092    0.045 -0.056  0.144
 O         -0.159 -0.032  0.092    0.044 -0.023  0.063   -0.044  0.018 -0.136
 TransDip   0.271  0.021 -0.125   -0.153  0.003 -0.218   -0.079  0.164 -0.260

 Mode:                25                     26                     27
 Frequency:       950.95                1009.63                1043.74
 Force Cnst:      1.3317                 1.5249                 0.9096
 Red. Mass:       2.4993                 2.5390                 1.4171
 IR Active:          YES                    YES                    YES
 IR Intens:      779.529                 44.087                 64.392
 Raman Active:       YES                    YES                    YES
               X      Y      Z        X      Y      Z        X      Y      Z
 C          0.062 -0.018  0.115   -0.017  0.051  0.037   -0.107  0.038  0.095
 C         -0.077 -0.098  0.147    0.020 -0.075 -0.024    0.040 -0.001 -0.024
 H         -0.336 -0.296 -0.236    0.155  0.027 -0.026    0.162 -0.110 -0.168
 H          0.168  0.302 -0.030   -0.101 -0.179 -0.124   -0.275 -0.400 -0.373
 H          0.187  0.409  0.047    0.242  0.113  0.083    0.535  0.352  0.168
 C          0.009  0.039  0.036   -0.027 -0.049 -0.149    0.010  0.039  0.018
 C         -0.040  0.092 -0.001    0.048  0.115  0.181   -0.007 -0.046 -0.030
 H         -0.340 -0.047  0.045    0.579  0.099 -0.153   -0.001 -0.045  0.036
 H         -0.269  0.236 -0.134   -0.387  0.118  0.191    0.159 -0.032 -0.094
 H         -0.016  0.120 -0.014    0.049  0.330  0.133    0.004 -0.163 -0.006
 H         -0.070 -0.028 -0.101    0.057  0.008  0.010    0.021  0.010  0.042
 O          0.016  0.073 -0.027    0.009  0.022 -0.023    0.005 -0.002  0.001
 O          0.117 -0.029 -0.117   -0.053  0.024  0.043   -0.016 -0.024 -0.057
 O         -0.061 -0.014 -0.038    0.018  0.001  0.014    0.017  0.003  0.011
 H         -0.014  0.031 -0.043   -0.035 -0.069  0.082   -0.040 -0.090  0.089
 C          0.012 -0.082 -0.019   -0.022 -0.046 -0.006    0.002  0.023  0.003
 O          0.012 -0.028  0.044    0.027 -0.026  0.071   -0.004  0.005 -0.012
 O         -0.016  0.003 -0.041   -0.037 -0.046 -0.146    0.008  0.010  0.030
 TransDip   0.122 -0.882 -0.082    0.073  0.049  0.194   -0.108  0.231  0.033

 Mode:                28                     29                     30
 Frequency:      1082.80                1138.89                1210.21
 Force Cnst:      1.2964                 1.5165                 1.2777
 Red. Mass:       1.8767                 1.9844                 1.4807
 IR Active:          YES                    YES                    YES
 IR Intens:      722.108                157.079                 31.773
 Raman Active:       YES                    YES                    YES
               X      Y      Z        X      Y      Z        X      Y      Z
 C          0.025 -0.113  0.085   -0.080 -0.043 -0.040   -0.014 -0.019 -0.013
 C          0.012  0.169 -0.115    0.120  0.162  0.106    0.045  0.065  0.039
 H         -0.434 -0.393 -0.273    0.002 -0.020 -0.011   -0.022 -0.013 -0.002
 H          0.154  0.300 -0.105   -0.137 -0.194 -0.064   -0.017 -0.022 -0.010
 H          0.012  0.313 -0.024   -0.051 -0.108 -0.022   -0.043 -0.035 -0.017
 C         -0.041 -0.011 -0.031   -0.004 -0.063  0.045    0.019  0.009 -0.096
 C          0.027 -0.011  0.037    0.010  0.093  0.013    0.014 -0.082  0.120
 H          0.194  0.023 -0.028   -0.385  0.231 -0.056   -0.398  0.529 -0.274
 H          0.139 -0.140  0.090    0.230 -0.244  0.240   -0.351  0.257 -0.150
 H          0.006  0.006  0.041   -0.179  0.589 -0.047    0.082 -0.430  0.186
 H          0.044  0.016  0.052    0.017 -0.011 -0.075   -0.011  0.006  0.029
 O         -0.021 -0.042  0.056    0.002 -0.027 -0.006   -0.000 -0.011  0.001
 O         -0.025 -0.012 -0.003    0.029 -0.029 -0.040    0.002 -0.011 -0.023
 O          0.016 -0.002  0.010   -0.023 -0.013 -0.022   -0.001 -0.000 -0.002
 H          0.144  0.289 -0.294   -0.083 -0.197  0.174   -0.009 -0.030  0.024
 C         -0.000  0.032  0.005    0.011 -0.030  0.006    0.001 -0.011 -0.008
 O          0.004 -0.007  0.013    0.002 -0.006  0.009   -0.007  0.028 -0.018
 O         -0.007 -0.012 -0.027   -0.015 -0.018 -0.048    0.006  0.007  0.024
 TransDip  -0.234  0.792 -0.243    0.086 -0.384 -0.081   -0.118  0.124 -0.058

 Mode:                31                     32                     33
 Frequency:      1227.85                1264.55                1300.61
 Force Cnst:      1.2178                 1.6857                 3.7591
 Red. Mass:       1.3710                 1.7892                 3.7717
 IR Active:          YES                    YES                    YES
 IR Intens:      126.881                128.115               1065.430
 Raman Active:       YES                    YES                    YES
               X      Y      Z        X      Y      Z        X      Y      Z
 C          0.006  0.037 -0.004   -0.051 -0.004 -0.047   -0.007 -0.009 -0.029
 C         -0.044 -0.126  0.007    0.129  0.023  0.171   -0.022  0.015  0.086
 H          0.125  0.092  0.061    0.087  0.068  0.050    0.033  0.073  0.088
 H          0.007  0.013  0.041   -0.081 -0.115  0.056    0.014  0.029  0.085
 H          0.084 -0.000  0.028    0.027 -0.132  0.003    0.010 -0.002 -0.018
 C         -0.010  0.020 -0.021   -0.043  0.010 -0.025    0.012 -0.051 -0.020
 C          0.027 -0.029  0.067   -0.004  0.023 -0.024   -0.016  0.076 -0.054
 H         -0.257  0.373 -0.142    0.413 -0.272  0.091   -0.164 -0.049 -0.018
 H          0.516 -0.321  0.033   -0.164  0.082  0.021    0.062 -0.156  0.298
 H         -0.090  0.159  0.062    0.081 -0.186 -0.001    0.081 -0.757  0.096
 H          0.022  0.001 -0.005   -0.006  0.001  0.004   -0.031 -0.011 -0.004
 O         -0.032  0.011  0.023   -0.059 -0.013  0.033    0.006  0.006 -0.013
 O          0.002  0.005 -0.036    0.012 -0.006 -0.069    0.002 -0.015 -0.049
 O          0.012  0.004  0.011   -0.011 -0.005 -0.011    0.010  0.007  0.006
 H          0.154  0.374 -0.366    0.205  0.496 -0.510   -0.042 -0.085  0.084
 C          0.014  0.023  0.016   -0.009 -0.037 -0.016   -0.020  0.363 -0.013
 O         -0.003  0.007 -0.003   -0.001  0.004 -0.004    0.053 -0.174  0.145
 O         -0.008 -0.014 -0.025    0.007  0.012  0.024   -0.028 -0.058 -0.104
 TransDip  -0.026  0.281  0.225    0.192 -0.276 -0.137   -0.277  1.007  0.038

 Mode:                34                     35                     36
 Frequency:      1310.84                1376.62                1416.82
 Force Cnst:      1.7087                 1.4110                 1.6988
 Red. Mass:       1.6877                 1.2637                 1.4364
 IR Active:          YES                    YES                    YES
 IR Intens:      829.520                104.583                359.754
 Raman Active:       YES                    YES                    YES
               X      Y      Z        X      Y      Z        X      Y      Z
 C          0.013 -0.014 -0.011   -0.079 -0.109 -0.047   -0.033 -0.023  0.009
 C         -0.094  0.046  0.086   -0.004  0.021  0.014    0.044 -0.033 -0.072
 H         -0.053  0.034  0.070    0.364  0.248  0.390    0.222  0.023  0.030
 H          0.032  0.042  0.068    0.150  0.488  0.139    0.040  0.181 -0.101
 H         -0.021  0.047 -0.028    0.329  0.430 -0.062    0.057  0.086 -0.003
 C         -0.087  0.061 -0.088    0.002  0.002  0.011    0.032  0.010 -0.050
 C          0.025  0.044  0.050    0.001 -0.037  0.000    0.001  0.103  0.001
 H          0.389 -0.012 -0.039    0.089  0.031  0.006   -0.495 -0.326  0.021
 H          0.515 -0.352  0.103   -0.046  0.061 -0.128   -0.041 -0.085  0.625
 H          0.082 -0.403  0.149   -0.014  0.134 -0.036    0.023 -0.289  0.091
 H         -0.032  0.002  0.009    0.009  0.001  0.001   -0.013  0.001  0.005
 O          0.036 -0.005 -0.018    0.005 -0.000 -0.004   -0.009  0.000  0.007
 O          0.039 -0.014 -0.032   -0.000 -0.001 -0.002   -0.009  0.016  0.047
 O         -0.021 -0.003 -0.014    0.002 -0.001 -0.000   -0.006 -0.001 -0.004
 H         -0.112 -0.289  0.284   -0.019 -0.046  0.040    0.032  0.077 -0.075
 C          0.002 -0.088 -0.026    0.003  0.013  0.019   -0.006 -0.086 -0.039
 O         -0.008  0.027 -0.019   -0.001  0.004 -0.005   -0.003  0.012 -0.006
 O          0.009  0.017  0.035   -0.002 -0.004 -0.009    0.009  0.016  0.032
 TransDip   0.226 -0.891 -0.072   -0.101  0.305  0.063    0.124 -0.525 -0.280

 Mode:                37                     38                     39
 Frequency:      1450.86                1460.72                1471.66
 Force Cnst:      4.5115                 1.3433                 1.3674
 Red. Mass:       3.6376                 1.0686                 1.0716
 IR Active:          YES                    YES                    YES
 IR Intens:      878.793                 43.239                 12.173
 Raman Active:       YES                    YES                    YES
               X      Y      Z        X      Y      Z        X      Y      Z
 C          0.016  0.009 -0.011    0.051 -0.023 -0.011   -0.010  0.012 -0.053
 C         -0.034  0.027  0.061    0.014 -0.016 -0.005    0.003  0.008 -0.033
 H         -0.119 -0.005 -0.011   -0.384  0.259  0.464   -0.398 -0.008 -0.003
 H         -0.018 -0.090  0.078   -0.109 -0.406 -0.106   -0.033 -0.170  0.690
 H         -0.021 -0.057  0.001   -0.229  0.518 -0.194    0.548 -0.057  0.111
 C          0.009  0.144 -0.109    0.005  0.009 -0.009    0.007  0.002 -0.005
 C          0.016 -0.169  0.020    0.004 -0.010  0.008    0.001  0.003  0.006
 H         -0.201 -0.628  0.118   -0.055 -0.058  0.008   -0.079 -0.037 -0.002
 H         -0.099  0.088  0.504   -0.019  0.008  0.073   -0.017  0.001  0.074
 H         -0.002  0.107 -0.022   -0.009  0.052 -0.003   -0.007  0.016  0.005
 H          0.011 -0.003 -0.006    0.004 -0.000 -0.001    0.003  0.001  0.003
 O          0.011 -0.004 -0.005   -0.004  0.001  0.002    0.001 -0.001  0.002
 O          0.006 -0.012 -0.038   -0.003  0.002 -0.001   -0.003  0.002  0.009
 O          0.004  0.001  0.004    0.002  0.000  0.002    0.000 -0.000  0.000
 H         -0.024 -0.069  0.070    0.014  0.034 -0.030    0.000 -0.002  0.006
 C          0.096  0.039  0.330   -0.009  0.002 -0.030   -0.008 -0.009 -0.029
 O         -0.029  0.065 -0.083    0.002 -0.004  0.006    0.001 -0.002  0.005
 O         -0.040 -0.047 -0.142    0.003  0.004  0.013    0.004  0.005  0.014
 TransDip   0.070  0.257  0.911   -0.143  0.124 -0.093   -0.083 -0.019 -0.073

 Mode:                40                     41                     42
 Frequency:      1498.55                3051.64                3067.36
 Force Cnst:      4.0383                 5.6781                 5.8562
 Red. Mass:       3.0522                 1.0349                 1.0564
 IR Active:          YES                    YES                    YES
 IR Intens:      553.926                 74.061                 78.006
 Raman Active:       YES                    YES                    YES
               X      Y      Z        X      Y      Z        X      Y      Z
 C          0.003 -0.008 -0.007   -0.039 -0.022 -0.021   -0.001 -0.001  0.001
 C          0.041 -0.025 -0.057    0.001  0.001 -0.000    0.002  0.000 -0.002
 H         -0.141  0.072  0.131   -0.047  0.367 -0.256   -0.002  0.010 -0.007
 H         -0.037 -0.122  0.072    0.645 -0.237 -0.038    0.010 -0.004  0.000
 H          0.064  0.162 -0.030   -0.140  0.121  0.535    0.000  0.002  0.005
 C          0.004 -0.128  0.096   -0.000 -0.001  0.001    0.030  0.030 -0.051
 C         -0.043  0.204 -0.098   -0.000  0.001 -0.000    0.000 -0.002 -0.000
 H          0.089  0.431 -0.063   -0.000 -0.003 -0.009   -0.038  0.216  0.716
 H          0.043 -0.071 -0.326    0.006  0.011  0.003   -0.342 -0.551 -0.116
 H          0.071 -0.628  0.068    0.001  0.000  0.001    0.006  0.005  0.014
 H         -0.029  0.001  0.027    0.000  0.001  0.000   -0.001  0.001  0.000
 O         -0.011  0.004  0.004    0.000 -0.000  0.000   -0.000 -0.000  0.000
 O         -0.008  0.010  0.032   -0.000  0.000  0.000    0.000  0.000  0.001
 O         -0.002  0.001 -0.003   -0.000 -0.000 -0.000   -0.001 -0.000  0.000
 H          0.023  0.066 -0.065    0.000 -0.002  0.000   -0.001 -0.001  0.000
 C          0.084 -0.095  0.247   -0.000 -0.001 -0.000   -0.000 -0.001 -0.001
 O         -0.023  0.046 -0.065   -0.000  0.000 -0.000    0.000  0.000  0.000
 O         -0.028 -0.016 -0.092    0.000  0.000  0.000    0.000 -0.000  0.000
 TransDip   0.312 -0.415  0.547   -0.245  0.005 -0.127    0.051  0.012 -0.278

 Mode:                43                     44                     45
 Frequency:      3128.46                3137.53                3160.63
 Force Cnst:      6.3628                 6.4121                 6.4927
 Red. Mass:       1.1034                 1.1055                 1.1031
 IR Active:          YES                    YES                    YES
 IR Intens:       18.107                  5.050                 35.114
 Raman Active:       YES                    YES                    YES
               X      Y      Z        X      Y      Z        X      Y      Z
 C          0.066 -0.043 -0.048    0.008 -0.006 -0.004    0.014 -0.057  0.072
 C          0.001 -0.000 -0.001   -0.002 -0.001 -0.001    0.000 -0.001  0.002
 H         -0.004  0.143 -0.112   -0.002  0.032 -0.023   -0.079  0.718 -0.487
 H         -0.638  0.228  0.026   -0.085  0.030  0.005   -0.192  0.063  0.021
 H         -0.152  0.143  0.663   -0.015  0.016  0.073    0.104 -0.101 -0.403
 C          0.004  0.008  0.008   -0.027 -0.064 -0.060    0.001  0.003  0.003
 C         -0.000  0.000 -0.001    0.005  0.004  0.017    0.002  0.001  0.006
 H          0.002 -0.022 -0.075   -0.039  0.179  0.609    0.002 -0.008 -0.029
 H         -0.049 -0.078 -0.013    0.380  0.604  0.118   -0.013 -0.022 -0.005
 H          0.004  0.003  0.014   -0.060 -0.051 -0.205   -0.024 -0.018 -0.075
 H          0.000 -0.001  0.001   -0.000  0.001  0.000   -0.000  0.000 -0.001
 O         -0.000  0.000  0.000    0.000 -0.000  0.000   -0.000  0.000 -0.000
 O         -0.000  0.000 -0.000   -0.000  0.000  0.000    0.000  0.000 -0.000
 O          0.000  0.000  0.000    0.000 -0.000 -0.001   -0.000 -0.000 -0.000
 H         -0.000  0.002 -0.001    0.001  0.001  0.001    0.001  0.000 -0.000
 C         -0.000 -0.000 -0.000   -0.000 -0.001 -0.000    0.000  0.000  0.000
 O         -0.000  0.000 -0.000    0.000  0.000 -0.000   -0.000 -0.000  0.000
 O          0.000  0.000  0.000    0.000  0.000  0.000    0.000 -0.000 -0.000
 TransDip   0.115 -0.016 -0.072    0.023 -0.058 -0.036    0.047 -0.113  0.145

 Mode:                46                     47                     48
 Frequency:      3165.70                3821.52                3840.04
 Force Cnst:      6.4266                 9.1718                 9.2643
 Red. Mass:       1.0884                 1.0659                 1.0663
 IR Active:          YES                    YES                    YES
 IR Intens:       59.409                116.943                213.764
 Raman Active:       YES                    YES                    YES
               X      Y      Z        X      Y      Z        X      Y      Z
 C          0.002 -0.005  0.006    0.000 -0.000  0.000   -0.000  0.000  0.000
 C         -0.000 -0.000  0.000   -0.001  0.001 -0.000    0.002 -0.001 -0.001
 H         -0.007  0.063 -0.043   -0.001 -0.002  0.000    0.000 -0.000  0.000
 H         -0.026  0.009  0.002   -0.001  0.001  0.000   -0.002 -0.000 -0.000
 H          0.007 -0.007 -0.028    0.000  0.000  0.001    0.000  0.001  0.001
 C         -0.006 -0.017 -0.011    0.000  0.000 -0.000   -0.001  0.001 -0.000
 C         -0.024 -0.017 -0.077    0.000 -0.000  0.000   -0.000 -0.002 -0.000
 H         -0.009  0.036  0.124    0.001 -0.000  0.001    0.002  0.000 -0.001
 H          0.087  0.143  0.026    0.001 -0.000 -0.000    0.002 -0.000 -0.002
 H          0.287  0.216  0.900    0.000  0.000  0.000    0.009 -0.005  0.002
 H          0.001 -0.003  0.007   -0.003  0.012 -0.004   -0.204  0.934 -0.285
 O         -0.000  0.000 -0.000   -0.052  0.034  0.006    0.001 -0.000 -0.000
 O         -0.001 -0.000 -0.001    0.000 -0.000  0.000    0.001  0.001  0.002
 O          0.001 -0.000  0.000   -0.000 -0.001  0.000    0.011 -0.059  0.017
 H         -0.000  0.000  0.000    0.838 -0.533 -0.100   -0.011  0.007  0.000
 C         -0.001  0.003 -0.002   -0.000  0.000  0.000   -0.000  0.001  0.001
 O          0.000 -0.000  0.001    0.000 -0.000  0.000    0.000 -0.000  0.000
 O          0.000 -0.000  0.001   -0.000 -0.000 -0.000   -0.000 -0.000 -0.000
 TransDip  -0.124  0.083 -0.197    0.232 -0.257  0.005    0.083 -0.344 -0.307

 STANDARD THERMODYNAMIC QUANTITIES AT   298.15 K  AND     1.00 ATM

   This Molecule has  1 Imaginary Frequencies
   Zero point vibrational energy:       80.549 kcal/mol

   Atom    1 Element C  Has Mass   12.00000
   Atom    2 Element C  Has Mass   12.00000
   Atom    3 Element H  Has Mass    1.00783
   Atom    4 Element H  Has Mass    1.00783
   Atom    5 Element H  Has Mass    1.00783
   Atom    6 Element C  Has Mass   12.00000
   Atom    7 Element C  Has Mass   12.00000
   Atom    8 Element H  Has Mass    1.00783
   Atom    9 Element H  Has Mass    1.00783
   Atom   10 Element H  Has Mass    1.00783
   Atom   11 Element H  Has Mass    1.00783
   Atom   12 Element O  Has Mass   15.99491
   Atom   13 Element O  Has Mass   15.99491
   Atom   14 Element O  Has Mass   15.99491
   Atom   15 Element H  Has Mass    1.00783
   Atom   16 Element C  Has Mass   12.00000
   Atom   17 Element O  Has Mass   15.99491
   Atom   18 Element O  Has Mass   15.99491
   Molecular Mass:   148.037190 amu
   Principal axes and moments of inertia in amu*Bohr^2:
                             1           2           3
    Eigenvalues --      886.94722  2209.62844  2669.26047
          X              -0.40488     0.41683     0.81383
          Y               0.91373     0.21769     0.34308
          Z              -0.03416     0.88253    -0.46901
   Rotational Symmetry Number is   1
   The Molecule is an Asymmetric Top
   Translational Enthalpy:        0.889 kcal/mol
   Rotational Enthalpy:           0.889 kcal/mol
   Vibrational Enthalpy:         86.000 kcal/mol
   gas constant (RT):             0.592 kcal/mol
   Translational Entropy:        40.887  cal/mol.K
   Rotational Entropy:           30.037  cal/mol.K
   Vibrational Entropy:          34.350  cal/mol.K

   Total Enthalpy:               88.370 kcal/mol
   Total Entropy:               105.274  cal/mol.K
Archival summary:
1\1\c4-82\FREQ\ProcedureUnspecified\BasisUnspecified\558(2-,1)\leeping\SunJun2405:01:062018SunJun2405:01:062018\0\\#,FREQ,ProcedureUnspecified,BasisUnspecified,\\-2,1\O\C,1,1.31352\O,2,1.44079,1,112.394\H,3,0.965571,2,106.751,1,-48.1081,0\C,2,1.53347,1,109.724,3,-123.488,0\H,5,1.09109,2,109.002,1,-65.9318,0\H,5,1.09307,2,109.286,1,174.652,0\H,5,1.09484,2,110.495,1,54.5078,0\C,2,1.66224,1,113.925,3,116.389,0\H,9,1.09219,2,98.4395,1,-70.3772,0\H,9,1.09402,2,102.192,1,175.981,0\C,9,1.43748,2,117.35,1,51.954,0\H,12,1.08717,9,120.137,2,-84.1779,0\C,12,1.46066,9,124.61,2,98.7556,0\O,14,1.27796,12,120.13,9,-0.43495,0\O,14,1.28473,12,117.676,9,178.784,0\H,13,1.84003,12,111.148,9,37.4807,0\O,17,0.964994,13,137.679,12,-51.3957,0\\\@

 Total job time:  45382.79s(wall), 620066.08s(cpu) 
 Sun Jun 24 05:01:06 2018

        *************************************************************
        *                                                           *
        *  Thank you very much for using Q-Chem.  Have a nice day.  *
        *                                                           *
        *************************************************************


