
Running Job 1 of 1 qc-freq1.in
qchem qc-freq1.in_16312.0 /scratch/leeping/1940488/qc-freq1.d/ 1
/home/leeping/opt/qchem/5.0.2-openmp/exe/qcprog.exe_s qc-freq1.in_16312.0 /scratch/leeping/1940488/qc-freq1.d/
Check license passed

                  Welcome to Q-Chem
     A Quantum Leap Into The Future Of Chemistry


 Q-Chem 5.0, Q-Chem, Inc., Pleasanton, CA (2017)

 Yihan Shao,  Zhengting Gan,  E. Epifanovsky,  A. T. B. Gilbert,  M. Wormit,  
 J. Kussmann,  A. W. Lange,  A. Behn,  Jia Deng,  Xintian Feng,  D. Ghosh,  
 M. Goldey,  P. R. Horn,  L. D. Jacobson,  I. Kaliman,  T. Kus,  A. Landau,  
 Jie Liu,  E. I. Proynov,  R. M. Richard,  R. P. Steele,  E. J. Sundstrom,  
 H. L. Woodcock III,  P. M. Zimmerman,  D. Zuev,  B. Albrecht,  E. Alguire,  
 S. A. Baeppler,  D. Barton,  Z. Benda,  Y. A. Bernard,  E. J. Berquist,  
 K. B. Bravaya,  H. Burton,  D. Casanova,  Chun-Min Chang,  Yunqing Chen,  
 A. Chien,  K. D. Closser,  M. P. Coons,  S. Dasgupta,  A. L. Dempwolff,  
 M. Diedenhofen,  Hainam Do,  R. G. Edgar,  Po-Tung Fang,  S. Fatehi,  
 Qingguo Feng,  J. Fosso-Tande,  Qinghui Ge,  A. Ghysels,  G. Gidofalvi,  
 J. Gomes,  J. Gonthier,  A. Gunina,  M. W. D. Hanson-Heine,  
 P. H. P. Harbach,  A. W. Hauser,  J. E. Herr,  E. G. Hohenstein,  
 Z. C. Holden,  Kerwin Hui,  T.-C. Jagau,  Hyunjun Ji,  B. Kaduk,  
 K. Khistyaev,  Jaehoon Kim,  P. Klunzinger,  K. Koh,  D. Kosenkov,  
 L. Koulias,  T. Kowalczyk,  C. M. Krauter,  A. Kunitsa,  Ka Un Lao,  
 A. Laurent,  K. V. Lawler,  Joonho Lee,  D. Lefrancois,  S. Lehtola,  
 D. S. Levine,  Yi-Pei Li,  You-Sheng Lin,  Fenglai Liu,  E. Livshits,  
 A. Luenser,  P. Manohar,  E. Mansoor,  S. F. Manzer,  Shan-Ping Mao,  
 Yuezhi Mao,  N. Mardirossian,  A. V. Marenich,  T. Markovich,  
 L. A. Martinez-Martinez,  S. A. Maurer,  N. J. Mayhall,  S. C. McKenzie,  
 J.-M. Mewes,  A. F. Morrison,  J. W. Mullinax,  K. Nanda,  
 T. S. Nguyen-Beck,  R. Olivares-Amaya,  J. A. Parkhill,  T. M. Perrine,  
 F. Plasser,  S. Prager,  A. Prociuk,  E. Ramos,  D. R. Rehn,  F. Rob,  
 M. Schneider,  N. Sergueev,  S. M. Sharada,  S. Sharma,  D. W. Small,  
 T. Stauch,  T. Stein,  Yu-Chuan Su,  A. J. W. Thom,  A. Tkatchenko,  
 T. Tsuchimochi,  L. Vogt,  O. Vydrov,  M. A. Watson,  J. Wenzel,  
 M. de Wergifosse,  T. A. Wesolowski,  A. White,  J. Witte,  A. Yamada,  
 Jun Yang,  K. Yao,  S. Yeganeh,  S. R. Yost,  Zhi-Qiang You,  A. Zech,  
 Igor Ying Zhang,  Xing Zhang,  Yan Zhao,  Ying Zhu,  B. R. Brooks,  
 G. K. L. Chan,  C. J. Cramer,  M. S. Gordon,  W. J. Hehre,  A. Klamt,  
 M. W. Schmidt,  C. D. Sherrill,  D. G. Truhlar,  A. Aspuru-Guzik,  R. Baer,  
 A. T. Bell,  N. A. Besley,  Jeng-Da Chai,  R. A. DiStasio Jr.,  A. Dreuw,  
 B. D. Dunietz,  T. R. Furlani,  Chao-Ping Hsu,  Yousung Jung,  Jing Kong,  
 D. S. Lambrecht,  WanZhen Liang,  C. Ochsenfeld,  V. A. Rassolov,  
 L. V. Slipchenko,  J. E. Subotnik,  T. Van Voorhis,  J. M. Herbert,  
 A. I. Krylov,  P. M. W. Gill,  M. Head-Gordon

 Contributors to earlier versions of Q-Chem not listed above: 
 R. D. Adamson,  B. Austin,  J. Baker,  G. J. O. Beran,  K. Brandhorst,  
 S. T. Brown,  E. F. C. Byrd,  A. K. Chakraborty,  C.-L. Cheng,  
 Siu Hung Chien,  D. M. Chipman,  D. L. Crittenden,  H. Dachsel,  
 R. J. Doerksen,  A. D. Dutoi,  L. Fusti-Molnar,  W. A. Goddard III,  
 A. Golubeva-Zadorozhnaya,  S. R. Gwaltney,  G. Hawkins,  A. Heyden,  
 S. Hirata,  G. Kedziora,  F. J. Keil,  C. Kelley,  Jihan Kim,  R. A. King,  
 R. Z. Khaliullin,  P. P. Korambath,  W. Kurlancheek,  A. M. Lee,  M. S. Lee,  
 S. V. Levchenko,  Ching Yeh Lin,  D. Liotard,  R. C. Lochan,  I. Lotan,  
 P. E. Maslen,  N. Nair,  D. P. O'Neill,  D. Neuhauser,  E. Neuscamman,  
 C. M. Oana,  R. Olson,  B. Peters,  R. Peverati,  P. A. Pieniazek,  
 Y. M. Rhee,  J. Ritchie,  M. A. Rohrdanz,  E. Rosta,  N. J. Russ,  
 H. F. Schaefer III,  N. E. Schultz,  N. Shenvi,  A. C. Simmonett,  A. Sodt,  
 D. Stuck,  K. S. Thanthiriwatte,  V. Vanovschi,  Tao Wang,  A. Warshel,  
 C. F. Williams,  Q. Wu,  X. Xu,  W. Zhang

 Please cite Q-Chem as follows:
 Y. Shao et al., Mol. Phys. 113, 184-215 (2015)
 DOI: 10.1080/00268976.2014.952696

 Q-Chem 5.0.2 for Intel X86 EM64T Linux

 Parts of Q-Chem use Armadillo 5.200.1 (Boston Tea Smuggler).
 http://arma.sourceforge.net/

 Q-Chem begins on Mon Apr  6 18:07:51 2020  

Host: 
0

     Scratch files written to /scratch/leeping/1940488/qc-freq1.d//
 Dec517 15110_ 26548  26544 5633   
Processing $rem in /home/leeping/opt/qchem/5.0.2-openmp/config/preferences.
 MEM_STATIC 2000
 MEM_TOTAL  8000
 SYMMETRY   OFF
 SYM_IGNORE TRUE 
Symmetry turned off for PCM/SM12/SMD calculation

Checking the input file for inconsistencies... 	...done.

--------------------------------------------------------------
User input:
--------------------------------------------------------------
$molecule
-2 1
C       -2.5985751481   -0.2802614065   -0.5691083054
C       -1.8438262691    0.5904719730    0.4306506328
H       -3.1600616071   -1.0692754136   -0.0659475400
H       -3.2722605941    0.3295485689   -1.1761551439
H       -1.8708508083   -0.7430200473   -1.2445544593
C        1.8742925828   -0.2179715888   -1.0340355699
C        1.3159236921   -1.1255862853   -0.2413023520
H        1.7937462980   -0.3019689508   -2.1144194862
H        2.4204461754    0.6306794016   -0.6310804823
H        1.3930505596   -1.0382758514    0.8407489626
H        0.5385238806    2.2302382662    2.3794398379
O       -1.3865390352    1.6892572786   -0.0093452909
O       -1.6991818917    0.1723710764    1.6029133066
O        0.5267281512    2.7342003959    1.5585916363
H       -0.2061527394    2.3261567691    1.0233659991
C        0.5362334187   -2.3254113289   -0.7482514667
O        0.0684317686   -3.0869189234    0.1398996359
O        0.4105964040   -2.4741530322   -1.9896542694
$end

$rem
jobtype               freq
method                wb97x-v
basis                 def2-tzvpd
symmetry              off
sym_ignore            true
incdft                false
incfock               0
!scf_algorithm        diis_gdm
scf_convergence       8
thresh                14
!purecart             112
max_scf_cycles        1000
geom_opt_max_cycles   500
geom_opt_dmax         100
geom_opt_tol_gradient 10
solvent_method        pcm
ideriv                1
rpath_tol_displacement 1000
rpath_max_cycles      100
rpath_direction       1
!scf_guess            read
scf_guess             read
$end

$pcm
theory              cosmo
method              iswig
Radii               bondi
vdwScale            1.20
hpoints             110
heavypoints         110
$end

$solvent
dielectric 78.400000
$end

--------------------------------------------------------------
 ----------------------------------------------------------------
             Standard Nuclear Orientation (Angstroms)
    I     Atom           X                Y                Z
 ----------------------------------------------------------------
    1      C      -2.5985751481    -0.2802614065    -0.5691083054
    2      C      -1.8438262691     0.5904719730     0.4306506328
    3      H      -3.1600616071    -1.0692754136    -0.0659475400
    4      H      -3.2722605941     0.3295485689    -1.1761551439
    5      H      -1.8708508083    -0.7430200473    -1.2445544593
    6      C       1.8742925828    -0.2179715888    -1.0340355699
    7      C       1.3159236921    -1.1255862853    -0.2413023520
    8      H       1.7937462980    -0.3019689508    -2.1144194862
    9      H       2.4204461754     0.6306794016    -0.6310804823
   10      H       1.3930505596    -1.0382758514     0.8407489626
   11      H       0.5385238806     2.2302382662     2.3794398379
   12      O      -1.3865390352     1.6892572786    -0.0093452909
   13      O      -1.6991818917     0.1723710764     1.6029133066
   14      O       0.5267281512     2.7342003959     1.5585916363
   15      H      -0.2061527394     2.3261567691     1.0233659991
   16      C       0.5362334187    -2.3254113289    -0.7482514667
   17      O       0.0684317686    -3.0869189234     0.1398996359
   18      O       0.4105964040    -2.4741530322    -1.9896542694
 ----------------------------------------------------------------
 Nuclear Repulsion Energy =   505.4989123704 hartrees
 There are       40 alpha and       40 beta electrons
 Requested basis set is def2-TZVPD
 There are 175 shells and 457 basis functions

 Total QAlloc Memory Limit   8000 MB
 Mega-Array Size      1956 MB
 MEM_STATIC part      2000 MB
 Discretize the solute cavity surface with Lebedev spheres
	Using 110 Lebedev grid points for each H atom
	Using 110 Lebedev grid points for other atoms
	Atomic van der Waals radii will be scaled by 1.20
 Remove points where switching function is < 1.0e-08
 Keep 1206 surface tesserae and discard 774 interior tesserae
 Molecular Surface Area = 226.831 Angst**2
 A cutoff of  1.0D-14 yielded  13825 shell pairs
 There are     94883 function pairs (    120792 Cartesian)
 
 -------------------------------------------------------
 OpenMP Integral Computing Module                       
 Release: version 1.0, May 2013, Q-Chem Inc. Pittsburgh 
 -------------------------------------------------------
 Integral Job Info:
 Integral job number is                      11
 Integral operator is                         1
 short-range coefficients              16700000
 long-range coefficients              100000000
 Omega coefficients                         300
 if combine SR and LR in K                    1
 Integral screening is                        0
 Integral computing path is                   2
 max size of driver memory is            800000
 size of driver memory is                776718
 size of scratch memory is              4473992
 max col of scratch BK array              10000
 max len of scratch array in speh3          662
 max len of scratch index in speh4           32
 max int batch size is                      520
 min int batch size is                       52
 fixed nKL is                                52
 max L of basis functions is                  3
 order of int derivative is                   0
 number of shells is                        175
 number of basis is                         517
 number of cartesian basis is               517
 number of contracted shell pairs         13825
 number of primitive shell pairs          27327
 maxK2 (contraction) of shell pair           36
 max number of K2 of shell pair               1
 max number of CS2 of shell pair           2334
 max number of PS2 of shell pair           3102
 mem total for path MDJ                  777156
 -------------------------------------------------------
 Smallest overlap matrix eigenvalue = 5.42E-06
 Guess MOs from SCF MO coefficient file
 Reading MOs from coefficient file
 Reading MOs from coefficient file
 Long-range K will be added via erf
 Coulomb attenuation parameter = 0.3 bohr**(-1)
 A restricted hybrid HF-DFT SCF calculation will be
 performed using Pulay DIIS extrapolation
 Polarizable Continuum solvation model will be applied
 Exchange:     0.1670 Hartree-Fock + 1.0000 wB97X-V + LR-HF
 Correlation:  1.0000 wB97X-V
 Using SG-2 standard quadrature grid
 Nonlocal Correlation:  VV10 with C = 0.0100 and b = 6.00
 Grid used for NLC:  SG-1 standard quadrature
 SCF converges when DIIS error is below 1.0E-08
Using Q-Chem read-in guess as SCF_GUESS READ specified.

 using 16 threads for integral computing
 -------------------------------------------------------
 OpenMP Integral computing Module                
 Release: version 1.0, May 2013, Q-Chem Inc. Pittsburgh 
 -------------------------------------------------------
 using 16 threads for integral computing
 -------------------------------------------------------
 OpenMP Integral computing Module                
 Release: version 1.0, May 2013, Q-Chem Inc. Pittsburgh 
 -------------------------------------------------------
 -------------------------------------------------------
 OpenMP BLAS3 based DFT computing Module                
 Release: version 1.0, May 2013, Q-Chem Inc. Pittsburgh 
 -------------------------------------------------------
 -------------------------------------------------------
 OpenMP BLAS3 based DFT computing Module                
 Release: version 1.0, May 2013, Q-Chem Inc. Pittsburgh 
 -------------------------------------------------------
 -------------------------------------------------------
 OpenMP BLAS3 based DFT computing Module                
 Release: version 1.0, May 2013, Q-Chem Inc. Pittsburgh 
 -------------------------------------------------------
 ---------------------------------------
  Cycle       Energy         DIIS Error
 ---------------------------------------
    1    -571.5275044226      4.18E-04
    2    -571.8295833849      4.53E-04
    3    -571.8371691822      2.03E-04
    4    -571.8384221294      1.50E-04
    5    -571.8391095209      1.15E-04
    6    -571.8394662683      9.34E-05
    7    -571.8397341138      7.31E-05
    8    -571.8399047542      5.67E-05
    9    -571.8400187909      4.23E-05
   10    -571.8400755491      3.30E-05
   11    -571.8401225767      2.24E-05
   12    -571.8401386670      1.73E-05
   13    -571.8401468989      1.41E-05
   14    -571.8401533295      1.08E-05
   15    -571.8401564543      8.83E-06
   16    -571.8401588574      6.93E-06
   17    -571.8401626916      3.83E-09 Convergence criterion met
 ---------------------------------------

************** Final PCM Free Energy Summary **************
 G_electrostatic  =      -0.31265948 hartree =    -196.19678633 kcal/mol
 G_cavitation     =       0.00000000 hartree =       0.00000000 kcal/mol
 G_dispersion     =       0.00000000 hartree =       0.00000000 kcal/mol
 G_repulsion      =       0.00000000 hartree =       0.00000000 kcal/mol
 --------------------------------------------------
 Non-electrostatic Free Energy =       0.00000000 hartree =       0.00000000 kcal/mol
 Total                         =      -0.31265948 hartree =    -196.19678633 kcal/mol
 --------------------------------------------------
 SCF Energy (H0 + V/2)                       =    -571.84016269 
 Solute Internal Energy (H0)                 =    -571.52750321 
 Total Free Energy (H0 + V/2 + non-elec)     =    -571.84016269 hartree
                                             = -358835.11798714 kcal/mol
***********************************************************

 SCF time:  CPU 3907.85 s  wall 285.26 s
 SCF   energy in the final basis set = -571.84016269
 Total energy in the final basis set = -571.84016269
 
 --------------------------------------------------------------
 
                    Orbital Energies (a.u.)
 --------------------------------------------------------------
 
 Alpha MOs
 -- Occupied --
-19.183 -19.149 -19.147 -19.144 -19.142 -10.350 -10.346 -10.260
-10.258 -10.244  -1.154  -1.147  -1.105  -1.057  -1.053  -0.892
 -0.836  -0.719  -0.630  -0.611  -0.596  -0.563  -0.543  -0.540
 -0.537  -0.533  -0.507  -0.500  -0.484  -0.476  -0.462  -0.455
 -0.405  -0.365  -0.356  -0.350  -0.346  -0.344  -0.338  -0.335
 -- Virtual --
  0.058   0.063   0.073   0.080   0.085   0.102   0.105   0.108
  0.114   0.122   0.136   0.141   0.142   0.144   0.149   0.150
  0.159   0.168   0.177   0.184   0.187   0.194   0.199   0.209
  0.214   0.220   0.223   0.235   0.239   0.245   0.254   0.258
  0.271   0.274   0.286   0.288   0.290   0.298   0.303   0.305
  0.315   0.326   0.333   0.337   0.339   0.345   0.350   0.355
  0.360   0.364   0.367   0.371   0.375   0.377   0.389   0.392
  0.396   0.403   0.411   0.417   0.423   0.425   0.428   0.436
  0.443   0.446   0.457   0.458   0.467   0.471   0.476   0.479
  0.482   0.490   0.499   0.501   0.503   0.513   0.519   0.527
  0.529   0.536   0.536   0.543   0.546   0.554   0.564   0.569
  0.575   0.579   0.588   0.595   0.609   0.611   0.616   0.625
  0.630   0.631   0.639   0.651   0.662   0.666   0.671   0.677
  0.688   0.695   0.696   0.703   0.706   0.710   0.728   0.733
  0.739   0.743   0.755   0.760   0.769   0.777   0.785   0.787
  0.795   0.797   0.804   0.811   0.815   0.828   0.832   0.838
  0.844   0.850   0.854   0.862   0.873   0.881   0.895   0.901
  0.914   0.920   0.929   0.933   0.952   0.961   0.967   0.969
  0.988   0.996   1.003   1.011   1.035   1.037   1.055   1.059
  1.060   1.079   1.102   1.123   1.129   1.139   1.143   1.158
  1.181   1.197   1.203   1.234   1.238   1.260   1.266   1.283
  1.298   1.305   1.333   1.339   1.345   1.363   1.372   1.392
  1.401   1.412   1.428   1.441   1.462   1.473   1.509   1.529
  1.537   1.579   1.600   1.645   1.692   1.695   1.736   1.780
  1.787   1.821   1.850   1.880   1.884   1.894   1.915   1.923
  1.926   1.934   1.941   1.951   1.965   1.976   1.979   1.991
  1.996   2.003   2.018   2.032   2.047   2.068   2.076   2.097
  2.115   2.123   2.137   2.163   2.180   2.198   2.208   2.218
  2.235   2.268   2.286   2.291   2.298   2.319   2.329   2.363
  2.378   2.404   2.408   2.430   2.449   2.460   2.481   2.509
  2.515   2.526   2.540   2.569   2.611   2.621   2.631   2.653
  2.669   2.683   2.686   2.712   2.742   2.769   2.775   2.810
  2.825   2.848   2.874   2.883   2.896   2.910   2.932   2.953
  2.974   2.984   3.008   3.041   3.073   3.098   3.113   3.118
  3.137   3.155   3.175   3.181   3.219   3.253   3.267   3.278
  3.290   3.301   3.313   3.337   3.349   3.358   3.377   3.386
  3.395   3.411   3.415   3.423   3.434   3.444   3.458   3.464
  3.477   3.518   3.543   3.556   3.580   3.599   3.613   3.625
  3.627   3.650   3.663   3.668   3.684   3.696   3.720   3.744
  3.766   3.785   3.790   3.797   3.818   3.876   3.883   3.889
  3.977   4.005   4.049   4.084   4.107   4.197   4.206   4.222
  4.237   4.277   4.376   4.388   4.523   4.548   4.602   4.634
  4.682   4.754   4.772   4.841   4.857   4.877   4.928   4.976
  5.020   5.039   5.223   5.238   5.310   5.312   5.340   5.353
  5.359   5.360   5.383   5.385   5.398   5.489   5.503   5.549
  5.599   5.627   5.697   5.707   5.713   5.749   5.769   5.788
  5.989   6.041   6.197   6.241   6.263   6.301   6.306   6.335
  6.359   6.450   6.606   6.623   6.624   6.637   6.646   6.679
  6.684   6.711   6.734   6.753   6.757   6.770   6.850   6.971
  6.974   6.980   6.991   7.037   7.045   7.148   7.232   7.253
  7.280   7.359   7.373   7.410   7.421   7.449   7.485  22.595
 22.654  23.048  23.703  23.733  44.087  44.385  44.415  44.421
 44.451
 --------------------------------------------------------------
 
          Ground-State Mulliken Net Atomic Charges

     Atom                 Charge (a.u.)
  ----------------------------------------
      1 C                    -0.501874
      2 C                     0.514289
      3 H                     0.186024
      4 H                     0.235598
      5 H                     0.036508
      6 C                    -0.807336
      7 C                     0.118579
      8 H                     0.241199
      9 H                     0.239250
     10 H                     0.317650
     11 H                     0.323954
     12 O                    -0.795221
     13 O                    -0.679280
     14 O                    -0.692019
     15 H                     0.359094
     16 C                     0.328590
     17 O                    -0.709950
     18 O                    -0.715056
  ----------------------------------------
  Sum of atomic charges =    -2.000000

 -----------------------------------------------------------------
                    Cartesian Multipole Moments
 -----------------------------------------------------------------
    Charge (ESU x 10^10)
                -9.6064
    Dipole Moment (Debye)
         X       4.0311      Y       6.7625      Z      -0.0515
       Tot       7.8730
    Quadrupole Moments (Debye-Ang)
        XX     -73.0015     XY       3.9802     YY    -131.0987
        XZ       8.4662     YZ     -16.1010     ZZ     -83.7269
    Octopole Moments (Debye-Ang^2)
       XXX      57.9192    XXY      19.0962    XYY      15.9520
       YYY     147.6339    XXZ      -8.0252    XYZ      -9.1339
       YYZ      17.6810    XZZ      32.3666    YZZ      56.7202
       ZZZ      37.8645
    Hexadecapole Moments (Debye-Ang^3)
      XXXX    -946.1553   XXXY     107.9879   XXYY    -408.8968
      XYYY      84.8743   YYYY   -1983.4111   XXXZ     102.5340
      XXYZ     -85.5802   XYYZ      21.4848   YYYZ    -380.2200
      XXZZ    -273.1349   XYZZ      44.7586   YYZZ    -430.4619
      XZZZ     119.5621   YZZZ    -288.2145   ZZZZ    -592.9294
 -----------------------------------------------------------------
 Calculating analytic gradient of the SCF energy
 Gradient of SCF Energy
            1           2           3           4           5           6
    1  -0.0495077   0.0671044   0.0410746   0.0479780  -0.0620274  -0.0943957
    2  -0.0730781   0.0341520   0.0642352  -0.0372705   0.0409713   0.0484625
    3  -0.0525001   0.0499711  -0.0400447   0.0448386   0.0557276   0.0122260
            7           8           9          10          11          12
    1   0.1028589   0.0106477  -0.0327622   0.0173064  -0.0066852  -0.0344579
    2   0.0625267   0.0018634  -0.0626386  -0.0260897   0.0317954  -0.0453091
    3   0.0087725   0.0717259  -0.0297037  -0.0588087  -0.0545151  -0.0060632
           13          14          15          16          17          18
    1  -0.0184996  -0.0291262   0.0470767  -0.0460855   0.0283928   0.0111079
    2   0.0074973  -0.0463204   0.0155415  -0.0795903   0.0509293   0.0123222
    3  -0.0658278   0.0155962   0.0492355  -0.0301689  -0.0355830   0.0651217
 Max gradient component =       1.029E-01
 RMS gradient           =       4.728E-02
 Computing fast CPCM-ISWIG gradient
 Updating gradient with PCM contributions...
 -- total gradient after adding PCM contribution --
---------------------------------------------------
  Atom         X              Y              Z     
---------------------------------------------------
   1       0.000002      -0.000004       0.000001
   2      -0.000000       0.000012      -0.000004
   3      -0.000002       0.000000       0.000004
   4       0.000003      -0.000002      -0.000005
   5       0.000003      -0.000005       0.000003
   6       0.000002      -0.000000       0.000001
   7      -0.000001      -0.000001      -0.000000
   8       0.000000       0.000001       0.000002
   9      -0.000001      -0.000001       0.000002
  10      -0.000001       0.000000       0.000001
  11      -0.000006       0.000006      -0.000003
  12       0.000002      -0.000009       0.000009
  13      -0.000005       0.000003      -0.000001
  14      -0.000004       0.000010       0.000006
  15       0.000006      -0.000007      -0.000018
  16      -0.000002      -0.000005       0.000016
  17       0.000006       0.000002      -0.000008
  18      -0.000002      -0.000000      -0.000005
---------------------------------------------------
 Number of fixed atoms: 0
 Gradient time:  CPU 814.38 s  wall 62.56 s
 ######################################################
 ######################################################
 # Starting finite difference calculation for IDERIV  #
 Finite diff step size:  1.88973e-03 a.u.
 ----------------------------------------------------------------
             Standard Nuclear Orientation (Angstroms)
    I     Atom           X                Y                Z
 ----------------------------------------------------------------
    1      C      -2.5975751481    -0.2802614065    -0.5691083054
    2      C      -1.8438262691     0.5904719730     0.4306506328
    3      H      -3.1600616071    -1.0692754136    -0.0659475400
    4      H      -3.2722605941     0.3295485689    -1.1761551439
    5      H      -1.8708508083    -0.7430200473    -1.2445544593
    6      C       1.8742925828    -0.2179715888    -1.0340355699
    7      C       1.3159236921    -1.1255862853    -0.2413023520
    8      H       1.7937462980    -0.3019689508    -2.1144194862
    9      H       2.4204461754     0.6306794016    -0.6310804823
   10      H       1.3930505596    -1.0382758514     0.8407489626
   11      H       0.5385238806     2.2302382662     2.3794398379
   12      O      -1.3865390352     1.6892572786    -0.0093452909
   13      O      -1.6991818917     0.1723710764     1.6029133066
   14      O       0.5267281512     2.7342003959     1.5585916363
   15      H      -0.2061527394     2.3261567691     1.0233659991
   16      C       0.5362334187    -2.3254113289    -0.7482514667
   17      O       0.0684317686    -3.0869189234     0.1398996359
   18      O       0.4105964040    -2.4741530322    -1.9896542694
 ----------------------------------------------------------------
 Nuclear Repulsion Energy =   505.5125288236 hartrees
 There are       40 alpha and       40 beta electrons
 Discretize the solute cavity surface with Lebedev spheres
	Using 110 Lebedev grid points for each H atom
	Using 110 Lebedev grid points for other atoms
	Atomic van der Waals radii will be scaled by 1.20
 Remove points where switching function is < 1.0e-08
 Keep 1206 surface tesserae and discard 774 interior tesserae
 Molecular Surface Area = 226.821 Angst**2
 Requested basis set is def2-TZVPD
 There are 175 shells and 457 basis functions
 A cutoff of  1.0D-14 yielded  13825 shell pairs
 There are     94883 function pairs (    120792 Cartesian)
 Smallest overlap matrix eigenvalue = 5.42E-06
 Guess MOs from SCF MO coefficient file
 Reading MOs from coefficient file
 Reading MOs from coefficient file
 Long-range K will be added via erf
 Coulomb attenuation parameter = 0.3 bohr**(-1)
 A restricted hybrid HF-DFT SCF calculation will be
 performed using Pulay DIIS extrapolation
 Polarizable Continuum solvation model will be applied
 Exchange:     0.1670 Hartree-Fock + 1.0000 wB97X-V + LR-HF
 Correlation:  1.0000 wB97X-V
 Using SG-2 standard quadrature grid
 Nonlocal Correlation:  VV10 with C = 0.0100 and b = 6.00
 Grid used for NLC:  SG-1 standard quadrature
 SCF converges when DIIS error is below 1.0E-08
Using Q-Chem read-in guess as SCF_GUESS READ specified.

 using 16 threads for integral computing
 -------------------------------------------------------
 OpenMP Integral computing Module                
 Release: version 1.0, May 2013, Q-Chem Inc. Pittsburgh 
 -------------------------------------------------------
 using 16 threads for integral computing
 -------------------------------------------------------
 OpenMP Integral computing Module                
 Release: version 1.0, May 2013, Q-Chem Inc. Pittsburgh 
 -------------------------------------------------------
 -------------------------------------------------------
 OpenMP BLAS3 based DFT computing Module                
 Release: version 1.0, May 2013, Q-Chem Inc. Pittsburgh 
 -------------------------------------------------------
 -------------------------------------------------------
 OpenMP BLAS3 based DFT computing Module                
 Release: version 1.0, May 2013, Q-Chem Inc. Pittsburgh 
 -------------------------------------------------------
 -------------------------------------------------------
 OpenMP BLAS3 based DFT computing Module                
 Release: version 1.0, May 2013, Q-Chem Inc. Pittsburgh 
 -------------------------------------------------------
 ---------------------------------------
  Cycle       Energy         DIIS Error
 ---------------------------------------
    1    -571.5271498032      4.18E-04
    2    -571.8295789718      4.53E-04
    3    -571.8371701959      2.03E-04
    4    -571.8384247880      1.50E-04
    5    -571.8391180588      1.15E-04
    6    -571.8394867913      9.19E-05
    7    -571.8397800023      6.89E-05
    8    -571.8399911925      4.60E-05
    9    -571.8401149161      2.41E-05
   10    -571.8401535913      1.01E-05
   11    -571.8401614301      1.96E-06
   12    -571.8401617187      4.49E-07
   13    -571.8401617339      6.66E-08
   14    -571.8401617342      7.40E-09 Convergence criterion met
 ---------------------------------------

************** Final PCM Free Energy Summary **************
 G_electrostatic  =      -0.31266036 hartree =    -196.19733848 kcal/mol
 G_cavitation     =       0.00000000 hartree =       0.00000000 kcal/mol
 G_dispersion     =       0.00000000 hartree =       0.00000000 kcal/mol
 G_repulsion      =       0.00000000 hartree =       0.00000000 kcal/mol
 --------------------------------------------------
 Non-electrostatic Free Energy =       0.00000000 hartree =       0.00000000 kcal/mol
 Total                         =      -0.31266036 hartree =    -196.19733848 kcal/mol
 --------------------------------------------------
 SCF Energy (H0 + V/2)                       =    -571.84016173 
 Solute Internal Energy (H0)                 =    -571.52750137 
 Total Free Energy (H0 + V/2 + non-elec)     =    -571.84016173 hartree
                                             = -358835.11738640 kcal/mol
***********************************************************

 SCF time:  CPU 3221.26 s  wall 234.47 s
 SCF   energy in the final basis set = -571.84016173
 Total energy in the final basis set = -571.84016173
 
 --------------------------------------------------------------
 
                    Orbital Energies (a.u.)
 --------------------------------------------------------------
 
 Alpha MOs
 -- Occupied --
-19.183 -19.149 -19.147 -19.144 -19.142 -10.350 -10.346 -10.260
-10.258 -10.244  -1.154  -1.147  -1.105  -1.057  -1.053  -0.892
 -0.836  -0.719  -0.630  -0.611  -0.596  -0.563  -0.543  -0.540
 -0.537  -0.533  -0.507  -0.500  -0.484  -0.476  -0.462  -0.455
 -0.405  -0.365  -0.356  -0.350  -0.346  -0.344  -0.338  -0.335
 -- Virtual --
  0.058   0.063   0.073   0.080   0.085   0.102   0.105   0.108
  0.114   0.122   0.136   0.141   0.142   0.144   0.149   0.150
  0.159   0.168   0.177   0.184   0.187   0.194   0.199   0.209
  0.214   0.220   0.223   0.235   0.239   0.245   0.254   0.258
  0.271   0.274   0.286   0.288   0.290   0.298   0.303   0.305
  0.315   0.326   0.333   0.337   0.339   0.345   0.350   0.355
  0.360   0.364   0.367   0.371   0.375   0.377   0.389   0.392
  0.396   0.404   0.411   0.417   0.423   0.425   0.428   0.436
  0.443   0.446   0.457   0.458   0.467   0.471   0.476   0.479
  0.482   0.490   0.499   0.501   0.503   0.513   0.519   0.527
  0.529   0.536   0.536   0.543   0.546   0.554   0.564   0.569
  0.575   0.580   0.588   0.595   0.609   0.611   0.616   0.625
  0.630   0.631   0.639   0.651   0.662   0.666   0.671   0.677
  0.688   0.695   0.696   0.703   0.706   0.710   0.728   0.733
  0.739   0.743   0.755   0.760   0.769   0.777   0.785   0.787
  0.795   0.797   0.804   0.811   0.815   0.828   0.832   0.838
  0.844   0.850   0.854   0.862   0.873   0.881   0.895   0.901
  0.914   0.920   0.929   0.933   0.952   0.961   0.967   0.969
  0.988   0.996   1.003   1.011   1.035   1.037   1.055   1.059
  1.060   1.080   1.102   1.123   1.129   1.139   1.143   1.158
  1.181   1.197   1.203   1.234   1.238   1.260   1.266   1.283
  1.298   1.305   1.333   1.339   1.345   1.363   1.372   1.392
  1.401   1.412   1.428   1.441   1.462   1.473   1.509   1.529
  1.538   1.579   1.600   1.645   1.692   1.695   1.736   1.780
  1.787   1.821   1.850   1.880   1.884   1.894   1.915   1.923
  1.926   1.934   1.941   1.951   1.965   1.976   1.979   1.991
  1.996   2.003   2.018   2.032   2.047   2.068   2.076   2.097
  2.116   2.123   2.137   2.163   2.180   2.198   2.208   2.218
  2.235   2.268   2.286   2.291   2.298   2.319   2.329   2.363
  2.378   2.404   2.408   2.430   2.449   2.460   2.481   2.509
  2.515   2.526   2.540   2.569   2.611   2.621   2.631   2.654
  2.669   2.683   2.686   2.712   2.742   2.769   2.775   2.810
  2.825   2.848   2.874   2.883   2.896   2.910   2.932   2.953
  2.974   2.985   3.008   3.041   3.073   3.098   3.113   3.118
  3.136   3.155   3.175   3.181   3.219   3.253   3.268   3.278
  3.290   3.301   3.313   3.337   3.349   3.358   3.377   3.386
  3.395   3.411   3.415   3.423   3.434   3.444   3.458   3.464
  3.477   3.518   3.543   3.556   3.580   3.599   3.613   3.625
  3.627   3.650   3.663   3.668   3.684   3.696   3.720   3.744
  3.766   3.785   3.790   3.797   3.818   3.877   3.883   3.889
  3.977   4.005   4.049   4.084   4.108   4.197   4.207   4.222
  4.237   4.277   4.376   4.388   4.523   4.548   4.602   4.635
  4.682   4.754   4.772   4.841   4.857   4.877   4.928   4.976
  5.020   5.039   5.223   5.238   5.310   5.312   5.340   5.353
  5.359   5.360   5.383   5.385   5.398   5.489   5.503   5.549
  5.599   5.627   5.697   5.707   5.714   5.749   5.769   5.788
  5.989   6.041   6.197   6.241   6.263   6.301   6.306   6.335
  6.359   6.450   6.606   6.623   6.624   6.637   6.646   6.679
  6.684   6.711   6.734   6.753   6.757   6.770   6.850   6.971
  6.974   6.980   6.991   7.037   7.045   7.148   7.232   7.253
  7.280   7.359   7.373   7.410   7.421   7.449   7.485  22.595
 22.654  23.048  23.703  23.733  44.087  44.386  44.415  44.421
 44.451
 --------------------------------------------------------------
 
          Ground-State Mulliken Net Atomic Charges

     Atom                 Charge (a.u.)
  ----------------------------------------
      1 C                    -0.501971
      2 C                     0.514400
      3 H                     0.185841
      4 H                     0.235363
      5 H                     0.036990
      6 C                    -0.807347
      7 C                     0.118580
      8 H                     0.241190
      9 H                     0.239247
     10 H                     0.317657
     11 H                     0.323953
     12 O                    -0.795249
     13 O                    -0.679321
     14 O                    -0.692030
     15 H                     0.359091
     16 C                     0.328626
     17 O                    -0.709959
     18 O                    -0.715061
  ----------------------------------------
  Sum of atomic charges =    -2.000000

 -----------------------------------------------------------------
                    Cartesian Multipole Moments
 -----------------------------------------------------------------
    Charge (ESU x 10^10)
                -9.6064
    Dipole Moment (Debye)
         X       4.0311      Y       6.7619      Z      -0.0522
       Tot       7.8725
    Quadrupole Moments (Debye-Ang)
        XX     -73.0011     XY       3.9812     YY    -131.1005
        XZ       8.4675     YZ     -16.0996     ZZ     -83.7268
    Octopole Moments (Debye-Ang^2)
       XXX      57.9013    XXY      19.0942    XYY      15.9516
       YYY     147.6318    XXZ      -8.0276    XYZ      -9.1381
       YYZ      17.6788    XZZ      32.3629    YZZ      56.7162
       ZZZ      37.8613
    Hexadecapole Moments (Debye-Ang^3)
      XXXX    -945.9899   XXXY     107.9970   XXYY    -408.8847
      XYYY      84.8803   YYYY   -1983.4241   XXXZ     102.5459
      XXYZ     -85.5681   XYYZ      21.4913   YYYZ    -380.2174
      XXZZ    -273.1157   XYZZ      44.7689   YYZZ    -430.4624
      XZZZ     119.5752   YZZZ    -288.2092   ZZZZ    -592.9291
 -----------------------------------------------------------------
 Calculating analytic gradient of the SCF energy
 Gradient of SCF Energy
            1           2           3           4           5           6
    1  -0.0486855   0.0669626   0.0409102   0.0477312  -0.0623254  -0.0943968
    2  -0.0731059   0.0340490   0.0639858  -0.0370782   0.0411925   0.0484625
    3  -0.0525811   0.0498444  -0.0399066   0.0446101   0.0560577   0.0122253
            7           8           9          10          11          12
    1   0.1028553   0.0106468  -0.0327625   0.0173070  -0.0066848  -0.0344458
    2   0.0625199   0.0018631  -0.0626367  -0.0260895   0.0317949  -0.0453313
    3   0.0087731   0.0717254  -0.0297033  -0.0588067  -0.0545154  -0.0060747
           13          14          15          16          17          18
    1  -0.0184839  -0.0291257   0.0470753  -0.0460758   0.0283878   0.0111099
    2   0.0074849  -0.0463196   0.0155430  -0.0795868   0.0509312   0.0123211
    3  -0.0658496   0.0155952   0.0492384  -0.0301697  -0.0355824   0.0651198
 Max gradient component =       1.029E-01
 RMS gradient           =       4.726E-02
 Computing fast CPCM-ISWIG gradient
 Updating gradient with PCM contributions...
 -- total gradient after adding PCM contribution --
---------------------------------------------------
  Atom         X              Y              Z     
---------------------------------------------------
   1       0.001012      -0.000011      -0.000044
   2      -0.000222      -0.000035      -0.000066
   3      -0.000230      -0.000192       0.000129
   4      -0.000282       0.000174      -0.000186
   5      -0.000304       0.000139       0.000219
   6       0.000003      -0.000001       0.000001
   7      -0.000002      -0.000001      -0.000000
   8       0.000000       0.000001       0.000001
   9      -0.000000      -0.000001       0.000003
  10      -0.000001       0.000000       0.000001
  11      -0.000006       0.000005      -0.000002
  12       0.000006      -0.000060      -0.000015
  13       0.000022      -0.000018      -0.000031
  14      -0.000005       0.000010       0.000006
  15       0.000009      -0.000007      -0.000018
  16      -0.000001      -0.000005       0.000016
  17       0.000005       0.000001      -0.000007
  18      -0.000002      -0.000001      -0.000006
---------------------------------------------------
 Number of fixed atoms: 0
 Gradient time:  CPU 770.46 s  wall 57.35 s
 ----------------------------------------------------------------
             Standard Nuclear Orientation (Angstroms)
    I     Atom           X                Y                Z
 ----------------------------------------------------------------
    1      C      -2.5995751481    -0.2802614065    -0.5691083054
    2      C      -1.8438262691     0.5904719730     0.4306506328
    3      H      -3.1600616071    -1.0692754136    -0.0659475400
    4      H      -3.2722605941     0.3295485689    -1.1761551439
    5      H      -1.8708508083    -0.7430200473    -1.2445544593
    6      C       1.8742925828    -0.2179715888    -1.0340355699
    7      C       1.3159236921    -1.1255862853    -0.2413023520
    8      H       1.7937462980    -0.3019689508    -2.1144194862
    9      H       2.4204461754     0.6306794016    -0.6310804823
   10      H       1.3930505596    -1.0382758514     0.8407489626
   11      H       0.5385238806     2.2302382662     2.3794398379
   12      O      -1.3865390352     1.6892572786    -0.0093452909
   13      O      -1.6991818917     0.1723710764     1.6029133066
   14      O       0.5267281512     2.7342003959     1.5585916363
   15      H      -0.2061527394     2.3261567691     1.0233659991
   16      C       0.5362334187    -2.3254113289    -0.7482514667
   17      O       0.0684317686    -3.0869189234     0.1398996359
   18      O       0.4105964040    -2.4741530322    -1.9896542694
 ----------------------------------------------------------------
 Nuclear Repulsion Energy =   505.4852956522 hartrees
 There are       40 alpha and       40 beta electrons
 Discretize the solute cavity surface with Lebedev spheres
	Using 110 Lebedev grid points for each H atom
	Using 110 Lebedev grid points for other atoms
	Atomic van der Waals radii will be scaled by 1.20
 Remove points where switching function is < 1.0e-08
 Keep 1206 surface tesserae and discard 774 interior tesserae
 Molecular Surface Area = 226.841 Angst**2
 Requested basis set is def2-TZVPD
 There are 175 shells and 457 basis functions
 A cutoff of  1.0D-14 yielded  13825 shell pairs
 There are     94883 function pairs (    120792 Cartesian)
 Smallest overlap matrix eigenvalue = 5.42E-06
 Guess MOs from SCF MO coefficient file
 Reading MOs from coefficient file
 Reading MOs from coefficient file
 Long-range K will be added via erf
 Coulomb attenuation parameter = 0.3 bohr**(-1)
 A restricted hybrid HF-DFT SCF calculation will be
 performed using Pulay DIIS extrapolation
 Polarizable Continuum solvation model will be applied
 Exchange:     0.1670 Hartree-Fock + 1.0000 wB97X-V + LR-HF
 Correlation:  1.0000 wB97X-V
 Using SG-2 standard quadrature grid
 Nonlocal Correlation:  VV10 with C = 0.0100 and b = 6.00
 Grid used for NLC:  SG-1 standard quadrature
 SCF converges when DIIS error is below 1.0E-08
Using Q-Chem read-in guess as SCF_GUESS READ specified.

 using 16 threads for integral computing
 -------------------------------------------------------
 OpenMP Integral computing Module                
 Release: version 1.0, May 2013, Q-Chem Inc. Pittsburgh 
 -------------------------------------------------------
 using 16 threads for integral computing
 -------------------------------------------------------
 OpenMP Integral computing Module                
 Release: version 1.0, May 2013, Q-Chem Inc. Pittsburgh 
 -------------------------------------------------------
 -------------------------------------------------------
 OpenMP BLAS3 based DFT computing Module                
 Release: version 1.0, May 2013, Q-Chem Inc. Pittsburgh 
 -------------------------------------------------------
 -------------------------------------------------------
 OpenMP BLAS3 based DFT computing Module                
 Release: version 1.0, May 2013, Q-Chem Inc. Pittsburgh 
 -------------------------------------------------------
 -------------------------------------------------------
 OpenMP BLAS3 based DFT computing Module                
 Release: version 1.0, May 2013, Q-Chem Inc. Pittsburgh 
 -------------------------------------------------------
 ---------------------------------------
  Cycle       Energy         DIIS Error
 ---------------------------------------
    1    -571.5282091146      4.18E-04
    2    -571.8295880282      4.53E-04
    3    -571.8371723628      2.03E-04
    4    -571.8384266341      1.49E-04
    5    -571.8391266315      1.14E-04
    6    -571.8395314438      8.87E-05
    7    -571.8398835982      5.87E-05
    8    -571.8400949232      2.87E-05
    9    -571.8401544948      9.43E-06
   10    -571.8401612596      2.44E-06
   11    -571.8401617345      3.09E-07
   12    -571.8401617416      1.01E-07
   13    -571.8401617421      1.70E-08
   14    -571.8401617421      9.64E-09 Convergence criterion met
 ---------------------------------------

************** Final PCM Free Energy Summary **************
 G_electrostatic  =      -0.31265857 hartree =    -196.19621171 kcal/mol
 G_cavitation     =       0.00000000 hartree =       0.00000000 kcal/mol
 G_dispersion     =       0.00000000 hartree =       0.00000000 kcal/mol
 G_repulsion      =       0.00000000 hartree =       0.00000000 kcal/mol
 --------------------------------------------------
 Non-electrostatic Free Energy =       0.00000000 hartree =       0.00000000 kcal/mol
 Total                         =      -0.31265857 hartree =    -196.19621171 kcal/mol
 --------------------------------------------------
 SCF Energy (H0 + V/2)                       =    -571.84016174 
 Solute Internal Energy (H0)                 =    -571.52750318 
 Total Free Energy (H0 + V/2 + non-elec)     =    -571.84016174 hartree
                                             = -358835.11739136 kcal/mol
***********************************************************

 SCF time:  CPU 3218.81 s  wall 234.32 s
 SCF   energy in the final basis set = -571.84016174
 Total energy in the final basis set = -571.84016174
 
 --------------------------------------------------------------
 
                    Orbital Energies (a.u.)
 --------------------------------------------------------------
 
 Alpha MOs
 -- Occupied --
-19.183 -19.149 -19.147 -19.144 -19.142 -10.350 -10.346 -10.260
-10.258 -10.244  -1.154  -1.147  -1.105  -1.057  -1.053  -0.892
 -0.836  -0.719  -0.630  -0.611  -0.596  -0.563  -0.543  -0.540
 -0.537  -0.533  -0.507  -0.500  -0.484  -0.476  -0.462  -0.455
 -0.405  -0.365  -0.356  -0.350  -0.346  -0.344  -0.338  -0.335
 -- Virtual --
  0.058   0.063   0.073   0.080   0.085   0.102   0.105   0.108
  0.114   0.122   0.136   0.141   0.142   0.144   0.149   0.150
  0.159   0.168   0.177   0.184   0.187   0.194   0.199   0.209
  0.214   0.220   0.223   0.235   0.239   0.245   0.254   0.258
  0.271   0.274   0.286   0.288   0.290   0.298   0.303   0.305
  0.315   0.326   0.333   0.337   0.339   0.345   0.350   0.355
  0.360   0.364   0.367   0.371   0.375   0.377   0.389   0.392
  0.396   0.403   0.411   0.417   0.423   0.425   0.428   0.436
  0.443   0.446   0.457   0.458   0.467   0.471   0.476   0.479
  0.482   0.490   0.499   0.501   0.503   0.513   0.519   0.527
  0.529   0.536   0.536   0.543   0.546   0.554   0.564   0.569
  0.575   0.579   0.588   0.595   0.609   0.611   0.616   0.625
  0.630   0.631   0.639   0.651   0.662   0.666   0.670   0.677
  0.688   0.695   0.696   0.703   0.706   0.710   0.728   0.733
  0.740   0.743   0.755   0.760   0.769   0.777   0.785   0.787
  0.795   0.797   0.804   0.811   0.815   0.828   0.832   0.838
  0.844   0.850   0.854   0.862   0.873   0.881   0.895   0.901
  0.914   0.920   0.929   0.933   0.952   0.961   0.967   0.969
  0.988   0.996   1.003   1.011   1.035   1.037   1.055   1.059
  1.060   1.079   1.102   1.123   1.129   1.139   1.143   1.158
  1.180   1.197   1.203   1.234   1.238   1.260   1.266   1.283
  1.298   1.304   1.333   1.339   1.345   1.363   1.372   1.392
  1.401   1.412   1.428   1.441   1.462   1.473   1.509   1.529
  1.537   1.579   1.600   1.645   1.692   1.695   1.736   1.780
  1.787   1.821   1.850   1.880   1.883   1.894   1.915   1.923
  1.926   1.934   1.941   1.951   1.965   1.976   1.979   1.991
  1.997   2.003   2.018   2.032   2.047   2.068   2.076   2.097
  2.115   2.123   2.137   2.163   2.180   2.198   2.208   2.218
  2.235   2.268   2.286   2.291   2.298   2.319   2.329   2.363
  2.378   2.404   2.408   2.430   2.449   2.460   2.481   2.509
  2.515   2.526   2.540   2.569   2.611   2.621   2.631   2.653
  2.669   2.683   2.686   2.712   2.742   2.769   2.775   2.810
  2.825   2.848   2.874   2.883   2.896   2.910   2.932   2.953
  2.974   2.984   3.008   3.041   3.073   3.098   3.113   3.118
  3.137   3.155   3.175   3.181   3.219   3.253   3.267   3.278
  3.290   3.301   3.313   3.337   3.349   3.358   3.377   3.386
  3.395   3.411   3.415   3.423   3.434   3.444   3.458   3.465
  3.477   3.518   3.543   3.556   3.580   3.599   3.614   3.625
  3.627   3.650   3.663   3.668   3.684   3.696   3.720   3.744
  3.766   3.785   3.790   3.797   3.817   3.876   3.883   3.889
  3.977   4.005   4.049   4.084   4.107   4.197   4.206   4.222
  4.237   4.277   4.376   4.388   4.523   4.548   4.602   4.634
  4.683   4.754   4.772   4.841   4.857   4.877   4.927   4.976
  5.020   5.039   5.223   5.238   5.310   5.312   5.340   5.353
  5.359   5.360   5.383   5.385   5.398   5.489   5.503   5.549
  5.599   5.627   5.697   5.707   5.713   5.749   5.769   5.788
  5.989   6.041   6.197   6.241   6.263   6.301   6.306   6.335
  6.359   6.450   6.606   6.623   6.624   6.637   6.646   6.679
  6.684   6.711   6.734   6.753   6.757   6.770   6.849   6.971
  6.974   6.980   6.991   7.037   7.045   7.148   7.232   7.253
  7.280   7.359   7.373   7.410   7.421   7.449   7.485  22.595
 22.655  23.048  23.703  23.733  44.087  44.385  44.415  44.421
 44.451
 --------------------------------------------------------------
 
          Ground-State Mulliken Net Atomic Charges

     Atom                 Charge (a.u.)
  ----------------------------------------
      1 C                    -0.501786
      2 C                     0.514180
      3 H                     0.186209
      4 H                     0.235836
      5 H                     0.036030
      6 C                    -0.807326
      7 C                     0.118578
      8 H                     0.241207
      9 H                     0.239252
     10 H                     0.317644
     11 H                     0.323955
     12 O                    -0.795193
     13 O                    -0.679238
     14 O                    -0.692008
     15 H                     0.359098
     16 C                     0.328555
     17 O                    -0.709942
     18 O                    -0.715050
  ----------------------------------------
  Sum of atomic charges =    -2.000000

 -----------------------------------------------------------------
                    Cartesian Multipole Moments
 -----------------------------------------------------------------
    Charge (ESU x 10^10)
                -9.6064
    Dipole Moment (Debye)
         X       4.0310      Y       6.7630      Z      -0.0508
       Tot       7.8734
    Quadrupole Moments (Debye-Ang)
        XX     -73.0019     XY       3.9792     YY    -131.0968
        XZ       8.4648     YZ     -16.1025     ZZ     -83.7270
    Octopole Moments (Debye-Ang^2)
       XXX      57.9372    XXY      19.0982    XYY      15.9524
       YYY     147.6359    XXZ      -8.0229    XYZ      -9.1297
       YYZ      17.6832    XZZ      32.3703    YZZ      56.7241
       ZZZ      37.8677
    Hexadecapole Moments (Debye-Ang^3)
      XXXX    -946.3210   XXXY     107.9787   XXYY    -408.9089
      XYYY      84.8682   YYYY   -1983.3980   XXXZ     102.5220
      XXYZ     -85.5923   XYYZ      21.4782   YYYZ    -380.2226
      XXZZ    -273.1543   XYZZ      44.7481   YYZZ    -430.4613
      XZZZ     119.5489   YZZZ    -288.2198   ZZZZ    -592.9298
 -----------------------------------------------------------------
 Calculating analytic gradient of the SCF energy
 Gradient of SCF Energy
            1           2           3           4           5           6
    1  -0.0503293   0.0672453   0.0412391   0.0482252  -0.0617299  -0.0943941
    2  -0.0730504   0.0342545   0.0644851  -0.0374635   0.0407505   0.0484622
    3  -0.0524206   0.0500980  -0.0401831   0.0450680   0.0553983   0.0122271
            7           8           9          10          11          12
    1   0.1028623   0.0106486  -0.0327620   0.0173055  -0.0066855  -0.0344698
    2   0.0625334   0.0018637  -0.0626406  -0.0260897   0.0317959  -0.0452869
    3   0.0087716   0.0717264  -0.0297042  -0.0588108  -0.0545148  -0.0060516
           13          14          15          16          17          18
    1  -0.0185151  -0.0291266   0.0470780  -0.0460951   0.0283978   0.0111058
    2   0.0075099  -0.0463212   0.0155401  -0.0795939   0.0509275   0.0123235
    3  -0.0658061   0.0155972   0.0492326  -0.0301679  -0.0355837   0.0651235
 Max gradient component =       1.029E-01
 RMS gradient           =       4.731E-02
 Computing fast CPCM-ISWIG gradient
 Updating gradient with PCM contributions...
 -- total gradient after adding PCM contribution --
---------------------------------------------------
  Atom         X              Y              Z     
---------------------------------------------------
   1      -0.001007       0.000002       0.000046
   2       0.000221       0.000058       0.000058
   3       0.000226       0.000194      -0.000122
   4       0.000288      -0.000178       0.000177
   5       0.000309      -0.000148      -0.000212
   6       0.000001       0.000000       0.000001
   7      -0.000000      -0.000000      -0.000000
   8       0.000000       0.000001       0.000002
   9      -0.000001      -0.000001       0.000002
  10      -0.000001       0.000000       0.000001
  11      -0.000006       0.000006      -0.000003
  12      -0.000001       0.000043       0.000032
  13      -0.000032       0.000025       0.000029
  14      -0.000003       0.000009       0.000007
  15       0.000004      -0.000006      -0.000019
  16      -0.000002      -0.000006       0.000016
  17       0.000007       0.000002      -0.000008
  18      -0.000002      -0.000000      -0.000005
---------------------------------------------------
 Number of fixed atoms: 0
 Gradient time:  CPU 767.53 s  wall 57.13 s
 ----------------------------------------------------------------
             Standard Nuclear Orientation (Angstroms)
    I     Atom           X                Y                Z
 ----------------------------------------------------------------
    1      C      -2.5985751481    -0.2792614065    -0.5691083054
    2      C      -1.8438262691     0.5904719730     0.4306506328
    3      H      -3.1600616071    -1.0692754136    -0.0659475400
    4      H      -3.2722605941     0.3295485689    -1.1761551439
    5      H      -1.8708508083    -0.7430200473    -1.2445544593
    6      C       1.8742925828    -0.2179715888    -1.0340355699
    7      C       1.3159236921    -1.1255862853    -0.2413023520
    8      H       1.7937462980    -0.3019689508    -2.1144194862
    9      H       2.4204461754     0.6306794016    -0.6310804823
   10      H       1.3930505596    -1.0382758514     0.8407489626
   11      H       0.5385238806     2.2302382662     2.3794398379
   12      O      -1.3865390352     1.6892572786    -0.0093452909
   13      O      -1.6991818917     0.1723710764     1.6029133066
   14      O       0.5267281512     2.7342003959     1.5585916363
   15      H      -0.2061527394     2.3261567691     1.0233659991
   16      C       0.5362334187    -2.3254113289    -0.7482514667
   17      O       0.0684317686    -3.0869189234     0.1398996359
   18      O       0.4105964040    -2.4741530322    -1.9896542694
 ----------------------------------------------------------------
 Nuclear Repulsion Energy =   505.5044237975 hartrees
 There are       40 alpha and       40 beta electrons
 Discretize the solute cavity surface with Lebedev spheres
	Using 110 Lebedev grid points for each H atom
	Using 110 Lebedev grid points for other atoms
	Atomic van der Waals radii will be scaled by 1.20
 Remove points where switching function is < 1.0e-08
 Keep 1206 surface tesserae and discard 774 interior tesserae
 Molecular Surface Area = 226.832 Angst**2
 Requested basis set is def2-TZVPD
 There are 175 shells and 457 basis functions
 A cutoff of  1.0D-14 yielded  13825 shell pairs
 There are     94883 function pairs (    120792 Cartesian)
 Smallest overlap matrix eigenvalue = 5.42E-06
 Guess MOs from SCF MO coefficient file
 Reading MOs from coefficient file
 Reading MOs from coefficient file
 Long-range K will be added via erf
 Coulomb attenuation parameter = 0.3 bohr**(-1)
 A restricted hybrid HF-DFT SCF calculation will be
 performed using Pulay DIIS extrapolation
 Polarizable Continuum solvation model will be applied
 Exchange:     0.1670 Hartree-Fock + 1.0000 wB97X-V + LR-HF
 Correlation:  1.0000 wB97X-V
 Using SG-2 standard quadrature grid
 Nonlocal Correlation:  VV10 with C = 0.0100 and b = 6.00
 Grid used for NLC:  SG-1 standard quadrature
 SCF converges when DIIS error is below 1.0E-08
Using Q-Chem read-in guess as SCF_GUESS READ specified.

 using 16 threads for integral computing
 -------------------------------------------------------
 OpenMP Integral computing Module                
 Release: version 1.0, May 2013, Q-Chem Inc. Pittsburgh 
 -------------------------------------------------------
 using 16 threads for integral computing
 -------------------------------------------------------
 OpenMP Integral computing Module                
 Release: version 1.0, May 2013, Q-Chem Inc. Pittsburgh 
 -------------------------------------------------------
 -------------------------------------------------------
 OpenMP BLAS3 based DFT computing Module                
 Release: version 1.0, May 2013, Q-Chem Inc. Pittsburgh 
 -------------------------------------------------------
 -------------------------------------------------------
 OpenMP BLAS3 based DFT computing Module                
 Release: version 1.0, May 2013, Q-Chem Inc. Pittsburgh 
 -------------------------------------------------------
 -------------------------------------------------------
 OpenMP BLAS3 based DFT computing Module                
 Release: version 1.0, May 2013, Q-Chem Inc. Pittsburgh 
 -------------------------------------------------------
 ---------------------------------------
  Cycle       Energy         DIIS Error
 ---------------------------------------
    1    -571.5268184372      4.18E-04
    2    -571.8295884333      4.53E-04
    3    -571.8371733621      2.03E-04
    4    -571.8384272895      1.50E-04
    5    -571.8391238757      1.14E-04
    6    -571.8395042585      9.07E-05
    7    -571.8398215167      6.50E-05
    8    -571.8400448979      3.80E-05
    9    -571.8401414510      1.58E-05
   10    -571.8401595956      5.14E-06
   11    -571.8401616725      7.49E-07
   12    -571.8401617153      1.63E-07
   13    -571.8401617171      1.54E-08
   14    -571.8401617171      1.12E-08
   15    -571.8401617171      4.04E-09 Convergence criterion met
 ---------------------------------------

************** Final PCM Free Energy Summary **************
 G_electrostatic  =      -0.31266432 hartree =    -196.19982301 kcal/mol
 G_cavitation     =       0.00000000 hartree =       0.00000000 kcal/mol
 G_dispersion     =       0.00000000 hartree =       0.00000000 kcal/mol
 G_repulsion      =       0.00000000 hartree =       0.00000000 kcal/mol
 --------------------------------------------------
 Non-electrostatic Free Energy =       0.00000000 hartree =       0.00000000 kcal/mol
 Total                         =      -0.31266432 hartree =    -196.19982301 kcal/mol
 --------------------------------------------------
 SCF Energy (H0 + V/2)                       =    -571.84016172 
 Solute Internal Energy (H0)                 =    -571.52749740 
 Total Free Energy (H0 + V/2 + non-elec)     =    -571.84016172 hartree
                                             = -358835.11737564 kcal/mol
***********************************************************

 SCF time:  CPU 3448.61 s  wall 251.05 s
 SCF   energy in the final basis set = -571.84016172
 Total energy in the final basis set = -571.84016172
 
 --------------------------------------------------------------
 
                    Orbital Energies (a.u.)
 --------------------------------------------------------------
 
 Alpha MOs
 -- Occupied --
-19.183 -19.149 -19.147 -19.144 -19.142 -10.350 -10.346 -10.260
-10.258 -10.244  -1.154  -1.147  -1.105  -1.057  -1.053  -0.892
 -0.836  -0.719  -0.630  -0.611  -0.596  -0.563  -0.543  -0.540
 -0.537  -0.533  -0.507  -0.500  -0.484  -0.476  -0.462  -0.455
 -0.405  -0.365  -0.356  -0.350  -0.346  -0.344  -0.338  -0.335
 -- Virtual --
  0.058   0.063   0.073   0.080   0.085   0.102   0.105   0.108
  0.114   0.122   0.136   0.141   0.142   0.144   0.149   0.150
  0.159   0.168   0.177   0.184   0.187   0.194   0.199   0.209
  0.214   0.220   0.223   0.235   0.239   0.245   0.254   0.258
  0.271   0.274   0.286   0.288   0.290   0.298   0.303   0.305
  0.315   0.326   0.333   0.337   0.339   0.345   0.350   0.355
  0.360   0.364   0.367   0.371   0.375   0.377   0.389   0.392
  0.396   0.403   0.411   0.417   0.423   0.425   0.428   0.436
  0.443   0.446   0.457   0.458   0.467   0.471   0.476   0.479
  0.482   0.490   0.499   0.501   0.503   0.513   0.519   0.527
  0.529   0.536   0.536   0.543   0.546   0.554   0.564   0.569
  0.575   0.579   0.588   0.595   0.609   0.611   0.616   0.625
  0.630   0.631   0.639   0.651   0.662   0.666   0.671   0.677
  0.688   0.695   0.696   0.703   0.706   0.710   0.728   0.733
  0.740   0.743   0.755   0.760   0.769   0.777   0.785   0.787
  0.795   0.797   0.804   0.811   0.815   0.828   0.832   0.838
  0.844   0.850   0.853   0.862   0.873   0.881   0.895   0.901
  0.914   0.920   0.929   0.933   0.952   0.961   0.967   0.969
  0.988   0.996   1.003   1.011   1.035   1.037   1.055   1.059
  1.060   1.079   1.102   1.123   1.129   1.139   1.143   1.158
  1.181   1.197   1.203   1.234   1.238   1.260   1.266   1.283
  1.298   1.305   1.333   1.339   1.345   1.363   1.372   1.392
  1.401   1.412   1.428   1.441   1.462   1.473   1.509   1.529
  1.537   1.579   1.600   1.645   1.692   1.695   1.736   1.780
  1.787   1.821   1.850   1.880   1.884   1.894   1.915   1.923
  1.926   1.934   1.941   1.951   1.965   1.976   1.979   1.991
  1.996   2.003   2.018   2.032   2.047   2.068   2.076   2.097
  2.116   2.123   2.137   2.163   2.180   2.198   2.208   2.218
  2.236   2.268   2.286   2.291   2.298   2.319   2.329   2.363
  2.378   2.404   2.408   2.430   2.449   2.460   2.481   2.509
  2.515   2.526   2.540   2.569   2.611   2.621   2.631   2.653
  2.669   2.683   2.686   2.712   2.742   2.769   2.775   2.810
  2.825   2.848   2.874   2.883   2.896   2.910   2.932   2.953
  2.974   2.984   3.008   3.041   3.073   3.098   3.113   3.118
  3.136   3.155   3.175   3.181   3.219   3.253   3.267   3.278
  3.290   3.301   3.313   3.337   3.349   3.358   3.376   3.386
  3.395   3.411   3.415   3.423   3.434   3.444   3.458   3.465
  3.477   3.518   3.543   3.556   3.580   3.599   3.614   3.625
  3.627   3.650   3.663   3.668   3.684   3.696   3.720   3.744
  3.766   3.785   3.790   3.797   3.818   3.877   3.883   3.889
  3.977   4.005   4.049   4.084   4.108   4.197   4.207   4.222
  4.237   4.277   4.376   4.388   4.523   4.548   4.602   4.634
  4.682   4.754   4.772   4.842   4.857   4.877   4.927   4.976
  5.020   5.039   5.223   5.238   5.310   5.312   5.340   5.353
  5.359   5.360   5.383   5.385   5.398   5.489   5.503   5.549
  5.599   5.627   5.697   5.707   5.714   5.749   5.769   5.788
  5.989   6.041   6.197   6.241   6.263   6.301   6.306   6.335
  6.359   6.450   6.606   6.623   6.624   6.637   6.646   6.679
  6.684   6.711   6.734   6.753   6.757   6.770   6.850   6.971
  6.974   6.980   6.991   7.037   7.045   7.148   7.232   7.253
  7.280   7.359   7.373   7.410   7.421   7.449   7.485  22.595
 22.654  23.048  23.703  23.733  44.087  44.386  44.415  44.421
 44.451
 --------------------------------------------------------------
 
          Ground-State Mulliken Net Atomic Charges

     Atom                 Charge (a.u.)
  ----------------------------------------
      1 C                    -0.502184
      2 C                     0.514688
      3 H                     0.185867
      4 H                     0.235917
      5 H                     0.036287
      6 C                    -0.807328
      7 C                     0.118579
      8 H                     0.241195
      9 H                     0.239253
     10 H                     0.317660
     11 H                     0.323950
     12 O                    -0.795214
     13 O                    -0.679295
     14 O                    -0.692035
     15 H                     0.359104
     16 C                     0.328548
     17 O                    -0.709943
     18 O                    -0.715049
  ----------------------------------------
  Sum of atomic charges =    -2.000000

 -----------------------------------------------------------------
                    Cartesian Multipole Moments
 -----------------------------------------------------------------
    Charge (ESU x 10^10)
                -9.6064
    Dipole Moment (Debye)
         X       4.0304      Y       6.7622      Z      -0.0526
       Tot       7.8723
    Quadrupole Moments (Debye-Ang)
        XX     -72.9992     XY       3.9788     YY    -131.1000
        XZ       8.4704     YZ     -16.1003     ZZ     -83.7255
    Octopole Moments (Debye-Ang^2)
       XXX      57.9122    XXY      19.0980    XYY      15.9533
       YYY     147.6158    XXZ      -8.0426    XYZ      -9.1367
       YYZ      17.6789    XZZ      32.3597    YZZ      56.7149
       ZZZ      37.8622
    Hexadecapole Moments (Debye-Ang^3)
      XXXX    -946.1303   XXXY     107.9936   XXYY    -408.8998
      XYYY      84.9069   YYYY   -1983.4064   XXXZ     102.6011
      XXYZ     -85.5706   XYYZ      21.4870   YYYZ    -380.2129
      XXZZ    -273.1092   XYZZ      44.7692   YYZZ    -430.4593
      XZZZ     119.5736   YZZZ    -288.2045   ZZZZ    -592.9194
 -----------------------------------------------------------------
 Calculating analytic gradient of the SCF energy
 Gradient of SCF Energy
            1           2           3           4           5           6
    1  -0.0496391   0.0670591   0.0408401   0.0482106  -0.0618030  -0.0943933
    2  -0.0722093   0.0339373   0.0638914  -0.0374632   0.0408420   0.0484606
    3  -0.0526473   0.0498708  -0.0398247   0.0450568   0.0555598   0.0122223
            7           8           9          10          11          12
    1   0.1028616   0.0106474  -0.0327630   0.0173067  -0.0066864  -0.0345019
    2   0.0625313   0.0018627  -0.0626387  -0.0260892   0.0317951  -0.0453314
    3   0.0087762   0.0717268  -0.0297038  -0.0588077  -0.0545163  -0.0060924
           13          14          15          16          17          18
    1  -0.0184982  -0.0291310   0.0470836  -0.0460984   0.0283962   0.0111089
    2   0.0075253  -0.0463244   0.0155494  -0.0795884   0.0509269   0.0123226
    3  -0.0658299   0.0155941   0.0492461  -0.0301700  -0.0355849   0.0651241
 Max gradient component =       1.029E-01
 RMS gradient           =       4.724E-02
 Computing fast CPCM-ISWIG gradient
 Updating gradient with PCM contributions...
 -- total gradient after adding PCM contribution --
---------------------------------------------------
  Atom         X              Y              Z     
---------------------------------------------------
   1      -0.000006       0.001035      -0.000117
   2      -0.000046      -0.000205      -0.000086
   3      -0.000191      -0.000355       0.000185
   4       0.000176      -0.000254       0.000159
   5       0.000142      -0.000181      -0.000134
   6       0.000002      -0.000000       0.000001
   7      -0.000001      -0.000001      -0.000000
   8       0.000000       0.000001       0.000002
   9      -0.000001      -0.000001       0.000002
  10      -0.000001       0.000000       0.000001
  11      -0.000007       0.000005      -0.000003
  12      -0.000062      -0.000076      -0.000022
  13      -0.000013       0.000031       0.000018
  14      -0.000008       0.000008       0.000003
  15       0.000012      -0.000004      -0.000013
  16      -0.000002      -0.000005       0.000016
  17       0.000007       0.000002      -0.000008
  18      -0.000002      -0.000000      -0.000005
---------------------------------------------------
 Number of fixed atoms: 0
 Gradient time:  CPU 764.51 s  wall 56.97 s
 ----------------------------------------------------------------
             Standard Nuclear Orientation (Angstroms)
    I     Atom           X                Y                Z
 ----------------------------------------------------------------
    1      C      -2.5985751481    -0.2812614065    -0.5691083054
    2      C      -1.8438262691     0.5904719730     0.4306506328
    3      H      -3.1600616071    -1.0692754136    -0.0659475400
    4      H      -3.2722605941     0.3295485689    -1.1761551439
    5      H      -1.8708508083    -0.7430200473    -1.2445544593
    6      C       1.8742925828    -0.2179715888    -1.0340355699
    7      C       1.3159236921    -1.1255862853    -0.2413023520
    8      H       1.7937462980    -0.3019689508    -2.1144194862
    9      H       2.4204461754     0.6306794016    -0.6310804823
   10      H       1.3930505596    -1.0382758514     0.8407489626
   11      H       0.5385238806     2.2302382662     2.3794398379
   12      O      -1.3865390352     1.6892572786    -0.0093452909
   13      O      -1.6991818917     0.1723710764     1.6029133066
   14      O       0.5267281512     2.7342003959     1.5585916363
   15      H      -0.2061527394     2.3261567691     1.0233659991
   16      C       0.5362334187    -2.3254113289    -0.7482514667
   17      O       0.0684317686    -3.0869189234     0.1398996359
   18      O       0.4105964040    -2.4741530322    -1.9896542694
 ----------------------------------------------------------------
 Nuclear Repulsion Energy =   505.4934009056 hartrees
 There are       40 alpha and       40 beta electrons
 Discretize the solute cavity surface with Lebedev spheres
	Using 110 Lebedev grid points for each H atom
	Using 110 Lebedev grid points for other atoms
	Atomic van der Waals radii will be scaled by 1.20
 Remove points where switching function is < 1.0e-08
 Keep 1206 surface tesserae and discard 774 interior tesserae
 Molecular Surface Area = 226.830 Angst**2
 Requested basis set is def2-TZVPD
 There are 175 shells and 457 basis functions
 A cutoff of  1.0D-14 yielded  13825 shell pairs
 There are     94883 function pairs (    120792 Cartesian)
 Smallest overlap matrix eigenvalue = 5.42E-06
 Guess MOs from SCF MO coefficient file
 Reading MOs from coefficient file
 Reading MOs from coefficient file
 Long-range K will be added via erf
 Coulomb attenuation parameter = 0.3 bohr**(-1)
 A restricted hybrid HF-DFT SCF calculation will be
 performed using Pulay DIIS extrapolation
 Polarizable Continuum solvation model will be applied
 Exchange:     0.1670 Hartree-Fock + 1.0000 wB97X-V + LR-HF
 Correlation:  1.0000 wB97X-V
 Using SG-2 standard quadrature grid
 Nonlocal Correlation:  VV10 with C = 0.0100 and b = 6.00
 Grid used for NLC:  SG-1 standard quadrature
 SCF converges when DIIS error is below 1.0E-08
Using Q-Chem read-in guess as SCF_GUESS READ specified.

 using 16 threads for integral computing
 -------------------------------------------------------
 OpenMP Integral computing Module                
 Release: version 1.0, May 2013, Q-Chem Inc. Pittsburgh 
 -------------------------------------------------------
 using 16 threads for integral computing
 -------------------------------------------------------
 OpenMP Integral computing Module                
 Release: version 1.0, May 2013, Q-Chem Inc. Pittsburgh 
 -------------------------------------------------------
 -------------------------------------------------------
 OpenMP BLAS3 based DFT computing Module                
 Release: version 1.0, May 2013, Q-Chem Inc. Pittsburgh 
 -------------------------------------------------------
 -------------------------------------------------------
 OpenMP BLAS3 based DFT computing Module                
 Release: version 1.0, May 2013, Q-Chem Inc. Pittsburgh 
 -------------------------------------------------------
 -------------------------------------------------------
 OpenMP BLAS3 based DFT computing Module                
 Release: version 1.0, May 2013, Q-Chem Inc. Pittsburgh 
 -------------------------------------------------------
 ---------------------------------------
  Cycle       Energy         DIIS Error
 ---------------------------------------
    1    -571.5281665114      4.19E-04
    2    -571.8295653366      4.53E-04
    3    -571.8371704587      2.03E-04
    4    -571.8384288570      1.49E-04
    5    -571.8391333269      1.14E-04
    6    -571.8395354149      8.84E-05
    7    -571.8398781558      5.93E-05
    8    -571.8400910136      2.95E-05
    9    -571.8401539267      9.77E-06
   10    -571.8401611952      2.51E-06
   11    -571.8401616970      2.54E-07
   12    -571.8401617018      7.85E-08
   13    -571.8401617020      2.21E-08
   14    -571.8401617020      1.15E-08
   15    -571.8401617020      3.46E-09 Convergence criterion met
 ---------------------------------------

************** Final PCM Free Energy Summary **************
 G_electrostatic  =      -0.31265473 hartree =    -196.19380678 kcal/mol
 G_cavitation     =       0.00000000 hartree =       0.00000000 kcal/mol
 G_dispersion     =       0.00000000 hartree =       0.00000000 kcal/mol
 G_repulsion      =       0.00000000 hartree =       0.00000000 kcal/mol
 --------------------------------------------------
 Non-electrostatic Free Energy =       0.00000000 hartree =       0.00000000 kcal/mol
 Total                         =      -0.31265473 hartree =    -196.19380678 kcal/mol
 --------------------------------------------------
 SCF Energy (H0 + V/2)                       =    -571.84016170 
 Solute Internal Energy (H0)                 =    -571.52750697 
 Total Free Energy (H0 + V/2 + non-elec)     =    -571.84016170 hartree
                                             = -358835.11736619 kcal/mol
***********************************************************

 SCF time:  CPU 3439.32 s  wall 250.56 s
 SCF   energy in the final basis set = -571.84016170
 Total energy in the final basis set = -571.84016170
 
 --------------------------------------------------------------
 
                    Orbital Energies (a.u.)
 --------------------------------------------------------------
 
 Alpha MOs
 -- Occupied --
-19.183 -19.149 -19.147 -19.144 -19.142 -10.350 -10.346 -10.260
-10.258 -10.244  -1.154  -1.147  -1.105  -1.057  -1.053  -0.892
 -0.836  -0.719  -0.630  -0.611  -0.596  -0.563  -0.543  -0.540
 -0.537  -0.533  -0.507  -0.500  -0.484  -0.476  -0.462  -0.455
 -0.405  -0.365  -0.356  -0.350  -0.346  -0.344  -0.338  -0.335
 -- Virtual --
  0.058   0.063   0.073   0.080   0.085   0.102   0.105   0.108
  0.114   0.122   0.136   0.141   0.142   0.144   0.149   0.150
  0.159   0.168   0.177   0.184   0.187   0.194   0.199   0.209
  0.214   0.220   0.223   0.235   0.239   0.245   0.254   0.258
  0.271   0.274   0.286   0.288   0.290   0.298   0.303   0.305
  0.315   0.326   0.333   0.337   0.339   0.345   0.350   0.355
  0.360   0.364   0.367   0.371   0.375   0.377   0.389   0.392
  0.396   0.403   0.411   0.417   0.423   0.425   0.428   0.436
  0.443   0.446   0.457   0.458   0.467   0.471   0.476   0.479
  0.482   0.490   0.499   0.501   0.503   0.513   0.519   0.527
  0.529   0.536   0.536   0.543   0.546   0.554   0.564   0.569
  0.575   0.579   0.588   0.595   0.609   0.611   0.616   0.625
  0.630   0.631   0.638   0.651   0.662   0.666   0.671   0.677
  0.688   0.695   0.696   0.703   0.706   0.710   0.728   0.733
  0.739   0.743   0.755   0.760   0.769   0.777   0.785   0.787
  0.795   0.797   0.804   0.811   0.815   0.828   0.832   0.838
  0.844   0.850   0.854   0.862   0.873   0.881   0.895   0.901
  0.914   0.920   0.929   0.933   0.952   0.961   0.967   0.969
  0.988   0.996   1.003   1.011   1.035   1.037   1.055   1.059
  1.060   1.079   1.102   1.123   1.129   1.139   1.143   1.158
  1.181   1.197   1.203   1.234   1.238   1.260   1.266   1.283
  1.297   1.304   1.333   1.339   1.345   1.363   1.372   1.392
  1.401   1.412   1.428   1.441   1.462   1.473   1.509   1.529
  1.537   1.579   1.599   1.645   1.692   1.695   1.736   1.780
  1.787   1.821   1.850   1.880   1.883   1.894   1.915   1.923
  1.926   1.934   1.941   1.951   1.965   1.976   1.979   1.991
  1.996   2.003   2.018   2.032   2.047   2.068   2.076   2.097
  2.115   2.123   2.137   2.163   2.180   2.198   2.208   2.218
  2.235   2.268   2.286   2.290   2.298   2.319   2.329   2.363
  2.378   2.404   2.408   2.430   2.449   2.460   2.481   2.509
  2.515   2.526   2.540   2.569   2.611   2.621   2.631   2.653
  2.669   2.683   2.686   2.712   2.742   2.769   2.775   2.810
  2.825   2.848   2.874   2.883   2.896   2.910   2.932   2.953
  2.974   2.984   3.008   3.041   3.073   3.097   3.113   3.118
  3.137   3.155   3.175   3.181   3.219   3.253   3.267   3.278
  3.290   3.301   3.313   3.337   3.349   3.358   3.377   3.386
  3.395   3.411   3.415   3.424   3.434   3.444   3.458   3.464
  3.477   3.518   3.543   3.556   3.580   3.599   3.613   3.625
  3.627   3.650   3.663   3.668   3.684   3.696   3.720   3.744
  3.766   3.785   3.790   3.797   3.818   3.876   3.883   3.889
  3.977   4.005   4.049   4.084   4.107   4.197   4.206   4.222
  4.237   4.277   4.375   4.388   4.523   4.548   4.602   4.634
  4.683   4.754   4.772   4.841   4.857   4.877   4.928   4.976
  5.020   5.039   5.223   5.238   5.310   5.312   5.340   5.353
  5.359   5.360   5.383   5.385   5.398   5.489   5.503   5.549
  5.599   5.627   5.697   5.707   5.713   5.749   5.769   5.788
  5.989   6.041   6.197   6.241   6.263   6.301   6.306   6.335
  6.359   6.450   6.606   6.623   6.624   6.637   6.646   6.679
  6.684   6.711   6.734   6.753   6.757   6.770   6.849   6.971
  6.974   6.980   6.991   7.037   7.045   7.148   7.232   7.253
  7.280   7.359   7.373   7.410   7.421   7.449   7.485  22.595
 22.654  23.048  23.703  23.733  44.087  44.385  44.415  44.421
 44.451
 --------------------------------------------------------------
 
          Ground-State Mulliken Net Atomic Charges

     Atom                 Charge (a.u.)
  ----------------------------------------
      1 C                    -0.501574
      2 C                     0.513893
      3 H                     0.186183
      4 H                     0.235283
      5 H                     0.036731
      6 C                    -0.807348
      7 C                     0.118580
      8 H                     0.241203
      9 H                     0.239247
     10 H                     0.317641
     11 H                     0.323959
     12 O                    -0.795227
     13 O                    -0.679264
     14 O                    -0.692004
     15 H                     0.359084
     16 C                     0.328633
     17 O                    -0.709958
     18 O                    -0.715062
  ----------------------------------------
  Sum of atomic charges =    -2.000000

 -----------------------------------------------------------------
                    Cartesian Multipole Moments
 -----------------------------------------------------------------
    Charge (ESU x 10^10)
                -9.6064
    Dipole Moment (Debye)
         X       4.0318      Y       6.7628      Z      -0.0503
       Tot       7.8736
    Quadrupole Moments (Debye-Ang)
        XX     -73.0037     XY       3.9816     YY    -131.0973
        XZ       8.4620     YZ     -16.1017     ZZ     -83.7284
    Octopole Moments (Debye-Ang^2)
       XXX      57.9264    XXY      19.0945    XYY      15.9507
       YYY     147.6520    XXZ      -8.0079    XYZ      -9.1311
       YYZ      17.6832    XZZ      32.3736    YZZ      56.7255
       ZZZ      37.8668
    Hexadecapole Moments (Debye-Ang^3)
      XXXX    -946.1801   XXXY     107.9820   XXYY    -408.8938
      XYYY      84.8416   YYYY   -1983.4158   XXXZ     102.4667
      XXYZ     -85.5898   XYYZ      21.4825   YYYZ    -380.2270
      XXZZ    -273.1606   XYZZ      44.7478   YYZZ    -430.4644
      XZZZ     119.5505   YZZZ    -288.2244   ZZZZ    -592.9393
 -----------------------------------------------------------------
 Calculating analytic gradient of the SCF energy
 Gradient of SCF Energy
            1           2           3           4           5           6
    1  -0.0493777   0.0671495   0.0413103   0.0477463  -0.0622523  -0.0943980
    2  -0.0739476   0.0343665   0.0645801  -0.0370781   0.0411005   0.0484644
    3  -0.0523525   0.0500716  -0.0402659   0.0446211   0.0558958   0.0122300
            7           8           9          10          11          12
    1   0.1028566   0.0106480  -0.0327617   0.0173059  -0.0066840  -0.0344141
    2   0.0625223   0.0018641  -0.0626389  -0.0260902   0.0317959  -0.0452871
    3   0.0087687   0.0717253  -0.0297038  -0.0588100  -0.0545142  -0.0060340
           13          14          15          16          17          18
    1  -0.0185010  -0.0291216   0.0470700  -0.0460729   0.0283895   0.0111069
    2   0.0074697  -0.0463167   0.0155338  -0.0795927   0.0509321   0.0123220
    3  -0.0658262   0.0155984   0.0492252  -0.0301678  -0.0355814   0.0651196
 Max gradient component =       1.029E-01
 RMS gradient           =       4.732E-02
 Computing fast CPCM-ISWIG gradient
 Updating gradient with PCM contributions...
 -- total gradient after adding PCM contribution --
---------------------------------------------------
  Atom         X              Y              Z     
---------------------------------------------------
   1       0.000008      -0.001043       0.000120
   2       0.000045       0.000228       0.000078
   3       0.000189       0.000357      -0.000179
   4      -0.000169       0.000250      -0.000168
   5      -0.000137       0.000172       0.000140
[...]
 O          0.000 -0.000 -0.000   -0.000  0.000  0.000   -0.014 -0.008 -0.002
 H         -0.007  0.007  0.004    0.002 -0.002 -0.001    0.048 -0.067 -0.025
 C          0.390 -0.245 -0.008    0.138  0.224  0.090    0.003 -0.003 -0.000
 O         -0.090  0.058 -0.001    0.043  0.073 -0.234   -0.001  0.000  0.000
 O         -0.088  0.056  0.006   -0.031 -0.061  0.239   -0.001  0.001 -0.000
 TransDip   0.189 -0.120 -0.004    0.121  0.184  0.047    0.086  0.076  0.103

 Mode:                25                     26                     27
 Frequency:      1008.33                1026.05                1045.39
 Force Cnst:      0.7973                 0.9118                 0.7326
 Red. Mass:       1.3309                 1.4700                 1.1378
 IR Active:          YES                    YES                    YES
 IR Intens:       69.094                 24.411                 22.687
 Raman Active:       YES                    YES                    YES
               X      Y      Z        X      Y      Z        X      Y      Z
 C         -0.000 -0.001  0.000    0.032  0.125 -0.114   -0.001  0.000  0.000
 C          0.000  0.000 -0.000   -0.000 -0.004  0.001    0.001 -0.001 -0.000
 H         -0.002 -0.001 -0.002    0.376  0.302  0.557    0.000 -0.002 -0.001
 H          0.001  0.001  0.001   -0.369 -0.394 -0.182   -0.000 -0.001 -0.002
 H         -0.000  0.001 -0.001   -0.089 -0.289  0.044    0.002  0.002  0.002
 C         -0.138  0.087  0.003   -0.001  0.000 -0.000    0.032 -0.019  0.000
 C          0.040 -0.026 -0.000    0.000 -0.000  0.000   -0.086  0.054  0.000
 H          0.672 -0.425 -0.017    0.004 -0.002 -0.000    0.295 -0.197 -0.006
 H          0.480 -0.302 -0.013    0.001 -0.001  0.000   -0.373  0.240  0.002
 H          0.106 -0.069 -0.001    0.001 -0.001  0.000    0.681 -0.449 -0.014
 H         -0.000  0.001  0.000   -0.005 -0.003 -0.001   -0.000  0.000 -0.000
 O          0.001  0.000 -0.000   -0.035 -0.068  0.004   -0.000  0.000 -0.000
 O         -0.000 -0.000  0.000    0.016  0.001  0.054    0.000 -0.000  0.000
 O          0.000  0.000 -0.000    0.001  0.001  0.001    0.000 -0.000 -0.000
 H         -0.001  0.001  0.001    0.011 -0.008 -0.001   -0.000 -0.000  0.000
 C         -0.018  0.012  0.000   -0.001  0.000  0.000    0.008 -0.004 -0.000
 O          0.003 -0.002  0.001    0.000 -0.000  0.000   -0.003  0.002 -0.000
 O          0.004 -0.002 -0.001    0.000 -0.000 -0.000   -0.001  0.001  0.001
 TransDip   0.227 -0.139 -0.008    0.051  0.121 -0.089    0.127 -0.085 -0.002

 Mode:                28                     29                     30
 Frequency:      1062.28                1063.53                1293.62
 Force Cnst:      1.2811                 1.0531                 1.3315
 Red. Mass:       1.9269                 1.5802                 1.3504
 IR Active:          YES                    YES                    YES
 IR Intens:       12.086                 15.009                 23.983
 Raman Active:       YES                    YES                    YES
               X      Y      Z        X      Y      Z        X      Y      Z
 C         -0.144  0.069  0.037    0.032 -0.016 -0.008    0.000  0.000  0.000
 C          0.188 -0.099 -0.056   -0.042  0.022  0.013    0.000  0.000  0.000
 H          0.187 -0.293 -0.167   -0.043  0.066  0.037   -0.000 -0.000 -0.001
 H         -0.032 -0.301 -0.442    0.007  0.068  0.100    0.000 -0.002 -0.002
 H          0.384  0.297  0.421   -0.086 -0.067 -0.095   -0.002  0.000 -0.002
 C         -0.014 -0.021 -0.017   -0.048 -0.075 -0.063    0.001 -0.002  0.114
 C          0.012  0.016  0.036    0.039  0.062  0.132   -0.024 -0.033 -0.102
 H          0.065  0.103 -0.030    0.239  0.369 -0.109   -0.239 -0.389  0.163
 H         -0.039 -0.065  0.116   -0.148 -0.232  0.418    0.019  0.030 -0.007
 H          0.097  0.155  0.020    0.376  0.553  0.072    0.446  0.704 -0.198
 H          0.006  0.004  0.002   -0.001 -0.001 -0.000    0.000  0.000  0.000
 O         -0.031  0.023  0.009    0.007 -0.005 -0.002   -0.000 -0.000  0.000
 O         -0.035  0.018  0.017    0.008 -0.004 -0.004   -0.000  0.000 -0.000
 O         -0.001 -0.000  0.000    0.000  0.000 -0.000   -0.000 -0.000  0.000
 H          0.004 -0.004 -0.003   -0.001  0.001  0.001    0.000  0.000  0.000
 C         -0.006 -0.005 -0.003   -0.014 -0.023 -0.011   -0.026 -0.040  0.000
 O          0.001  0.000  0.006    0.001  0.002  0.023    0.018  0.030 -0.031
 O         -0.004 -0.005 -0.025   -0.013 -0.017 -0.091    0.004  0.005  0.024
 TransDip   0.093 -0.059 -0.015   -0.021  0.008  0.122   -0.080 -0.129  0.041

 Mode:                31                     32                     33
 Frequency:      1361.90                1385.50                1439.65
 Force Cnst:      1.5365                 2.2695                 4.2052
 Red. Mass:       1.4060                 2.0067                 3.4437
 IR Active:          YES                    YES                    YES
 IR Intens:       27.738                146.835                395.886
 Raman Active:       YES                    YES                    YES
               X      Y      Z        X      Y      Z        X      Y      Z
 C         -0.058 -0.066 -0.092   -0.000  0.000  0.000   -0.039 -0.081 -0.110
 C         -0.049 -0.071 -0.046   -0.000 -0.000  0.000    0.201  0.237  0.167
 H          0.148  0.174  0.487    0.003 -0.003 -0.002   -0.267  0.143  0.017
 H          0.069  0.462  0.325    0.001  0.001 -0.000   -0.347  0.150  0.456
 H          0.467  0.193  0.314   -0.002 -0.003  0.001    0.464  0.032  0.372
 C          0.000  0.000  0.000   -0.001 -0.002  0.001    0.001  0.001 -0.002
 C          0.000 -0.000 -0.001    0.044  0.071 -0.076    0.002  0.003  0.001
 H         -0.001 -0.003  0.001   -0.349 -0.556  0.085   -0.008 -0.014 -0.000
 H         -0.000  0.000  0.001   -0.134 -0.237  0.618   -0.005 -0.008  0.022
 H          0.001  0.002 -0.001   -0.080 -0.120 -0.067   -0.005 -0.008  0.002
 H          0.001  0.001  0.001    0.000 -0.000 -0.000    0.012  0.010  0.006
 O          0.027  0.061 -0.018   -0.000  0.000  0.000   -0.077 -0.162  0.045
 O          0.009 -0.011  0.051   -0.000  0.000 -0.000   -0.033  0.026 -0.141
 O          0.001  0.000  0.001   -0.000 -0.000  0.000   -0.004 -0.003 -0.001
 H         -0.008  0.000 -0.006    0.000 -0.000 -0.000    0.025  0.012  0.003
 C         -0.001  0.000  0.001    0.104  0.160  0.048   -0.005 -0.006 -0.001
 O          0.000  0.000 -0.000   -0.057 -0.091  0.080    0.002  0.002 -0.002
 O          0.000 -0.000 -0.000   -0.017 -0.023 -0.100    0.001  0.001  0.003
 TransDip  -0.093 -0.141  0.007    0.210  0.323  0.050    0.312  0.453  0.321

 Mode:                34                     35                     36
 Frequency:      1446.67                1452.77                1470.37
 Force Cnst:      2.7237                 1.4245                 1.4591
 Red. Mass:       2.2089                 1.1455                 1.1455
 IR Active:          YES                    YES                    YES
 IR Intens:      339.465                158.821                 51.327
 Raman Active:       YES                    YES                    YES
               X      Y      Z        X      Y      Z        X      Y      Z
 C          0.001  0.001  0.003   -0.021 -0.064  0.018   -0.065 -0.001 -0.011
 C         -0.004 -0.004 -0.005    0.030  0.060 -0.016    0.017  0.065  0.033
 H         -0.006  0.007  0.004   -0.115  0.269  0.396    0.586 -0.367  0.135
 H          0.005 -0.011 -0.013    0.296 -0.084 -0.379    0.444  0.393 -0.164
 H         -0.007  0.013 -0.015   -0.017  0.574 -0.421   -0.221 -0.254 -0.028
 C          0.015  0.027 -0.071   -0.000 -0.000  0.001   -0.000  0.000 -0.001
 C          0.066  0.104  0.023   -0.001 -0.001 -0.000    0.000  0.001  0.000
 H         -0.266 -0.422 -0.010    0.002  0.004  0.000   -0.001 -0.002 -0.000
 H         -0.135 -0.243  0.684    0.001  0.001 -0.005   -0.001 -0.002  0.004
 H         -0.168 -0.265  0.083    0.001  0.002 -0.001   -0.000 -0.002  0.001
 H         -0.001 -0.000 -0.000   -0.007 -0.004 -0.003    0.000  0.000  0.000
 O          0.001  0.003 -0.001   -0.018 -0.038  0.013   -0.012 -0.035  0.009
 O          0.001 -0.001  0.004    0.001 -0.006  0.012   -0.003  0.002 -0.022
 O          0.000  0.000 -0.000   -0.000  0.000 -0.001   -0.001 -0.000 -0.000
 H         -0.001 -0.001  0.001    0.006 -0.004  0.011    0.006  0.001  0.003
 C         -0.122 -0.187 -0.068    0.002  0.002  0.000   -0.001 -0.002 -0.002
 O          0.047  0.075 -0.066   -0.001 -0.001  0.001    0.000  0.001 -0.000
 O          0.019  0.027  0.105   -0.000 -0.000 -0.001    0.000  0.000  0.001
 TransDip  -0.321 -0.494 -0.031    0.108  0.341 -0.188    0.189  0.128  0.020

 Mode:                37                     38                     39
 Frequency:      1583.70                1596.20                1650.74
 Force Cnst:      8.2600                17.2623                 1.8140
 Red. Mass:       5.5897                11.4994                 1.1299
 IR Active:          YES                    YES                    YES
 IR Intens:      827.658               1270.263                266.828
 Raman Active:       YES                    YES                    YES
               X      Y      Z        X      Y      Z        X      Y      Z
 C         -0.010  0.005 -0.036   -0.001  0.001 -0.001   -0.002  0.001 -0.005
 C         -0.022 -0.301  0.452   -0.001 -0.018  0.029    0.003 -0.029  0.053
 H          0.082  0.160  0.339    0.011  0.005  0.022    0.008  0.014  0.032
 H          0.076 -0.132 -0.260    0.012 -0.007 -0.025    0.003 -0.012 -0.022
 H         -0.067  0.156 -0.198   -0.013  0.009 -0.023   -0.004  0.011 -0.015
 C         -0.002 -0.002  0.001    0.060  0.096 -0.065   -0.000 -0.000 -0.000
 C          0.001  0.003  0.001   -0.053 -0.083  0.000    0.000  0.000 -0.000
 H          0.002  0.003  0.001   -0.089 -0.141 -0.038    0.000  0.000  0.000
 H         -0.000 -0.003 -0.001    0.036  0.052  0.095    0.000 -0.000 -0.000
 H          0.005  0.005 -0.000   -0.139 -0.221  0.053   -0.000  0.000 -0.000
 H          0.260  0.188  0.117    0.022  0.016  0.010   -0.444 -0.326 -0.195
 O          0.041  0.114 -0.064    0.002  0.007 -0.004    0.005  0.017 -0.014
 O         -0.027  0.092 -0.242   -0.002  0.006 -0.016   -0.004  0.008 -0.026
 O         -0.012 -0.024  0.017   -0.001 -0.002  0.001    0.036  0.050 -0.021
 H          0.012  0.257 -0.356    0.002  0.022 -0.030   -0.146 -0.528  0.589
 C          0.003  0.005 -0.025   -0.093 -0.176  0.785   -0.000 -0.000  0.001
 O         -0.003 -0.005  0.007    0.105  0.171 -0.217    0.000  0.000 -0.000
 O          0.001  0.001  0.011   -0.028 -0.030 -0.330   -0.000 -0.000 -0.000
 TransDip  -0.091 -0.582  0.708   -0.147 -0.293  1.093   -0.201 -0.390  0.285

 Mode:                40                     41                     42
 Frequency:      1722.50                3059.30                3131.58
 Force Cnst:      9.1783                 5.7166                 6.3533
 Red. Mass:       5.2504                 1.0367                 1.0996
 IR Active:          YES                    YES                    YES
 IR Intens:       33.420                 13.944                 20.483
 Raman Active:       YES                    YES                    YES
               X      Y      Z        X      Y      Z        X      Y      Z
 C         -0.000  0.000  0.000    0.011  0.028  0.041   -0.082  0.036  0.016
 C          0.000 -0.000  0.001   -0.002 -0.002 -0.002   -0.000  0.001  0.001
 H          0.001 -0.001  0.001   -0.248 -0.345  0.233    0.132  0.212 -0.131
 H          0.001 -0.000 -0.001   -0.334  0.311 -0.293    0.391 -0.365  0.368
 H         -0.000  0.001 -0.000    0.462 -0.287 -0.416    0.461 -0.294 -0.438
 C         -0.175 -0.284  0.233    0.000 -0.000  0.000   -0.000 -0.000  0.000
 C          0.212  0.339 -0.215   -0.000  0.000 -0.000    0.000  0.000 -0.000
 H          0.245  0.377  0.206   -0.000  0.000  0.000   -0.000 -0.000 -0.005
 H         -0.077 -0.105 -0.426   -0.000 -0.000 -0.000    0.002  0.004  0.002
 H         -0.203 -0.311 -0.184    0.000  0.000  0.002    0.000  0.000  0.001
 H          0.001  0.002  0.001   -0.000 -0.001  0.000    0.000 -0.000  0.001
 O         -0.000  0.000 -0.000    0.000  0.000  0.000   -0.000 -0.000 -0.000
 O         -0.000  0.000 -0.000    0.000  0.000  0.000   -0.000  0.000 -0.000
 O         -0.000 -0.000  0.000   -0.000 -0.000 -0.000    0.001  0.000  0.000
 H          0.001  0.001 -0.002    0.007  0.004  0.005   -0.008 -0.005 -0.006
 C         -0.044 -0.072  0.077   -0.000  0.000 -0.000   -0.000  0.000 -0.000
 O          0.006  0.009 -0.024   -0.000 -0.000  0.000   -0.000 -0.000  0.000
 O          0.003  0.005 -0.021    0.000 -0.000  0.000   -0.000  0.000  0.000
 TransDip  -0.060 -0.112  0.135    0.072  0.051  0.081   -0.143  0.018 -0.012

 Mode:                43                     44                     45
 Frequency:      3150.58                3155.28                3175.88
 Force Cnst:      6.1913                 6.4821                 6.5011
 Red. Mass:       1.0586                 1.1051                 1.0940
 IR Active:          YES                    YES                    YES
 IR Intens:       17.174                 52.581                 20.716
 Raman Active:       YES                    YES                    YES
               X      Y      Z        X      Y      Z        X      Y      Z
 C         -0.000  0.001 -0.001   -0.017 -0.068  0.063    0.000  0.000 -0.000
 C          0.000  0.000 -0.000    0.000 -0.001  0.002    0.000  0.000 -0.000
 H         -0.007 -0.010  0.006    0.426  0.592 -0.385   -0.002 -0.003  0.002
 H          0.009 -0.008  0.008   -0.333  0.294 -0.287    0.001 -0.001  0.001
 H          0.000  0.000 -0.000    0.105 -0.080 -0.088   -0.003  0.002  0.003
 C          0.028  0.046 -0.034    0.001  0.001 -0.001   -0.008 -0.013  0.025
 C         -0.005 -0.007 -0.022   -0.000 -0.000 -0.001   -0.003 -0.002 -0.083
 H          0.050  0.054  0.630    0.001  0.001  0.011   -0.023 -0.024 -0.301
 H         -0.352 -0.547 -0.269   -0.007 -0.010 -0.005    0.073  0.113  0.054
 H          0.023  0.026  0.309    0.001  0.001  0.010    0.065  0.073  0.933
 H         -0.000  0.000 -0.000    0.001 -0.001  0.004    0.000 -0.001  0.001
 O         -0.000 -0.000 -0.000   -0.000 -0.000 -0.001   -0.000 -0.000  0.000
 O          0.000 -0.000  0.000    0.000  0.000 -0.000    0.000 -0.000  0.000
 O          0.000  0.000  0.000    0.003  0.002  0.002    0.000  0.000  0.000
 H         -0.000 -0.000 -0.000   -0.052 -0.028 -0.039   -0.007 -0.004 -0.005
 C          0.000  0.000 -0.001   -0.000  0.000 -0.000    0.002  0.003 -0.000
 O          0.000  0.000  0.000    0.000  0.000  0.000   -0.000 -0.001  0.001
 O         -0.000 -0.000  0.000   -0.000 -0.000  0.000   -0.000 -0.000 -0.000
 TransDip   0.050  0.087 -0.087   -0.109 -0.197  0.057   -0.035 -0.044 -0.134

 Mode:                46                     47                     48
 Frequency:      3197.00                3241.26                3872.44
 Force Cnst:      6.4488                 6.9102                 9.4137
 Red. Mass:       1.0709                 1.1164                 1.0655
 IR Active:          YES                    YES                    YES
 IR Intens:     1708.782                 10.680                 67.733
 Raman Active:       YES                    YES                    YES
               X      Y      Z        X      Y      Z        X      Y      Z
 C         -0.002 -0.003  0.004    0.000  0.000 -0.000    0.000 -0.000 -0.000
 C         -0.003 -0.008  0.006    0.000  0.000 -0.000   -0.000 -0.000  0.000
 H          0.035  0.049 -0.026   -0.000 -0.000  0.000    0.000  0.001 -0.000
 H         -0.015  0.013 -0.014    0.000 -0.000  0.000    0.000 -0.000  0.000
 H          0.008 -0.005 -0.007   -0.000  0.000  0.000   -0.000  0.000  0.000
 C         -0.000 -0.000  0.000   -0.033 -0.049 -0.079   -0.000  0.000 -0.000
 C         -0.000 -0.000 -0.001   -0.001 -0.001 -0.012    0.000  0.000  0.000
 H          0.000 -0.000 -0.001    0.048  0.048  0.705   -0.000  0.000  0.000
 H          0.001  0.001  0.000    0.346  0.539  0.252   -0.000 -0.000 -0.000
 H          0.001  0.001  0.009    0.008  0.009  0.123    0.000 -0.000 -0.001
 H         -0.020  0.016 -0.057    0.000 -0.000  0.000    0.032 -0.507  0.858
 O          0.004  0.005  0.001   -0.000 -0.000  0.000    0.000  0.000  0.000
 O          0.000  0.002 -0.003    0.000  0.000  0.000    0.000  0.000 -0.000
 O         -0.047 -0.027 -0.033    0.000  0.000  0.000   -0.004  0.030 -0.054
 H          0.727  0.392  0.552   -0.001 -0.001 -0.001    0.034  0.034  0.001
 C          0.000  0.000 -0.000    0.000  0.001 -0.001   -0.000 -0.000 -0.000
 O         -0.000  0.000  0.000   -0.000 -0.000  0.000    0.000  0.000 -0.000
 O         -0.000  0.000 -0.000   -0.000 -0.000  0.000    0.000  0.000  0.000
 TransDip   0.943  0.604  0.707   -0.031 -0.045 -0.089    0.085 -0.060  0.242

 STANDARD THERMODYNAMIC QUANTITIES AT   298.15 K  AND     1.00 ATM

   This Molecule has  0 Imaginary Frequencies
   Zero point vibrational energy:       80.424 kcal/mol

   Atom    1 Element C  Has Mass   12.00000
   Atom    2 Element C  Has Mass   12.00000
   Atom    3 Element H  Has Mass    1.00783
   Atom    4 Element H  Has Mass    1.00783
   Atom    5 Element H  Has Mass    1.00783
   Atom    6 Element C  Has Mass   12.00000
   Atom    7 Element C  Has Mass   12.00000
   Atom    8 Element H  Has Mass    1.00783
   Atom    9 Element H  Has Mass    1.00783
   Atom   10 Element H  Has Mass    1.00783
   Atom   11 Element H  Has Mass    1.00783
   Atom   12 Element O  Has Mass   15.99491
   Atom   13 Element O  Has Mass   15.99491
   Atom   14 Element O  Has Mass   15.99491
   Atom   15 Element H  Has Mass    1.00783
   Atom   16 Element C  Has Mass   12.00000
   Atom   17 Element O  Has Mass   15.99491
   Atom   18 Element O  Has Mass   15.99491
   Molecular Mass:   148.037190 amu
   Principal axes and moments of inertia in amu*Bohr^2:
                             1           2           3
    Eigenvalues --     1278.59678  2562.20961  3132.96783
          X              -0.32656     0.93748     0.12039
          Y               0.85327     0.34720    -0.38909
          Z               0.40656     0.02433     0.91330
   Rotational Symmetry Number is   1
   The Molecule is an Asymmetric Top
   Translational Enthalpy:        0.889 kcal/mol
   Rotational Enthalpy:           0.889 kcal/mol
   Vibrational Enthalpy:         87.654 kcal/mol
   gas constant (RT):             0.592 kcal/mol
   Translational Entropy:        40.887  cal/mol.K
   Rotational Entropy:           30.707  cal/mol.K
   Vibrational Entropy:          57.476  cal/mol.K

   Total Enthalpy:               90.024 kcal/mol
   Total Entropy:               129.070  cal/mol.K
Archival summary:
1\1\c4-61\FREQ\ProcedureUnspecified\BasisUnspecified\558(2-,1)\leeping\TueApr703:44:472020TueApr703:44:472020\0\\#,FREQ,ProcedureUnspecified,BasisUnspecified,\\-2,1\O\C,1,1.26887\O,2,1.25297,1,124.875\C,2,1.52556,1,116.443,3,-178.749,0\H,4,1.09132,2,111.411,1,-165.997,0\H,4,1.09281,2,110.52,1,-43.3518,0\H,4,1.09542,2,108.453,1,74.4026,0\H,1,1.69276,2,111.443,3,15.8051,0\O,8,0.995028,1,174.908,2,147.802,0\H,9,0.96328,8,104.646,1,-158.185,0\C,7,2.92307,4,132.149,2,53.1161,0\O,11,1.25658,7,79.281,4,170.07,0\O,11,1.25998,7,98.1128,4,44.8152,0\C,11,1.51806,7,92.9684,4,-71.6297,0\H,14,1.0883,11,115.584,7,100.321,0\C,14,1.32814,11,123.829,7,-79.3081,0\H,16,1.08663,14,120.627,11,-0.101263,0\H,16,1.08668,14,121.578,11,179.66,0\\\@

 Total job time:  34616.20s(wall), 473383.39s(cpu) 
 Tue Apr  7 03:44:47 2020

        *************************************************************
        *                                                           *
        *  Thank you very much for using Q-Chem.  Have a nice day.  *
        *                                                           *
        *************************************************************


