
Running Job 1 of 1 qc-freq2.in
qchem qc-freq2.in_20670.0 /scratch/leeping/1862939/qc-freq2.d/ 1
/home/leeping/opt/qchem/5.0.2-openmp/exe/qcprog.exe_s qc-freq2.in_20670.0 /scratch/leeping/1862939/qc-freq2.d/
Check license passed

                  Welcome to Q-Chem
     A Quantum Leap Into The Future Of Chemistry


 Q-Chem 5.0, Q-Chem, Inc., Pleasanton, CA (2017)

 Yihan Shao,  Zhengting Gan,  E. Epifanovsky,  A. T. B. Gilbert,  M. Wormit,  
 J. Kussmann,  A. W. Lange,  A. Behn,  Jia Deng,  Xintian Feng,  D. Ghosh,  
 M. Goldey,  P. R. Horn,  L. D. Jacobson,  I. Kaliman,  T. Kus,  A. Landau,  
 Jie Liu,  E. I. Proynov,  R. M. Richard,  R. P. Steele,  E. J. Sundstrom,  
 H. L. Woodcock III,  P. M. Zimmerman,  D. Zuev,  B. Albrecht,  E. Alguire,  
 S. A. Baeppler,  D. Barton,  Z. Benda,  Y. A. Bernard,  E. J. Berquist,  
 K. B. Bravaya,  H. Burton,  D. Casanova,  Chun-Min Chang,  Yunqing Chen,  
 A. Chien,  K. D. Closser,  M. P. Coons,  S. Dasgupta,  A. L. Dempwolff,  
 M. Diedenhofen,  Hainam Do,  R. G. Edgar,  Po-Tung Fang,  S. Fatehi,  
 Qingguo Feng,  J. Fosso-Tande,  Qinghui Ge,  A. Ghysels,  G. Gidofalvi,  
 J. Gomes,  J. Gonthier,  A. Gunina,  M. W. D. Hanson-Heine,  
 P. H. P. Harbach,  A. W. Hauser,  J. E. Herr,  E. G. Hohenstein,  
 Z. C. Holden,  Kerwin Hui,  T.-C. Jagau,  Hyunjun Ji,  B. Kaduk,  
 K. Khistyaev,  Jaehoon Kim,  P. Klunzinger,  K. Koh,  D. Kosenkov,  
 L. Koulias,  T. Kowalczyk,  C. M. Krauter,  A. Kunitsa,  Ka Un Lao,  
 A. Laurent,  K. V. Lawler,  Joonho Lee,  D. Lefrancois,  S. Lehtola,  
 D. S. Levine,  Yi-Pei Li,  You-Sheng Lin,  Fenglai Liu,  E. Livshits,  
 A. Luenser,  P. Manohar,  E. Mansoor,  S. F. Manzer,  Shan-Ping Mao,  
 Yuezhi Mao,  N. Mardirossian,  A. V. Marenich,  T. Markovich,  
 L. A. Martinez-Martinez,  S. A. Maurer,  N. J. Mayhall,  S. C. McKenzie,  
 J.-M. Mewes,  A. F. Morrison,  J. W. Mullinax,  K. Nanda,  
 T. S. Nguyen-Beck,  R. Olivares-Amaya,  J. A. Parkhill,  T. M. Perrine,  
 F. Plasser,  S. Prager,  A. Prociuk,  E. Ramos,  D. R. Rehn,  F. Rob,  
 M. Schneider,  N. Sergueev,  S. M. Sharada,  S. Sharma,  D. W. Small,  
 T. Stauch,  T. Stein,  Yu-Chuan Su,  A. J. W. Thom,  A. Tkatchenko,  
 T. Tsuchimochi,  L. Vogt,  O. Vydrov,  M. A. Watson,  J. Wenzel,  
 M. de Wergifosse,  T. A. Wesolowski,  A. White,  J. Witte,  A. Yamada,  
 Jun Yang,  K. Yao,  S. Yeganeh,  S. R. Yost,  Zhi-Qiang You,  A. Zech,  
 Igor Ying Zhang,  Xing Zhang,  Yan Zhao,  Ying Zhu,  B. R. Brooks,  
 G. K. L. Chan,  C. J. Cramer,  M. S. Gordon,  W. J. Hehre,  A. Klamt,  
 M. W. Schmidt,  C. D. Sherrill,  D. G. Truhlar,  A. Aspuru-Guzik,  R. Baer,  
 A. T. Bell,  N. A. Besley,  Jeng-Da Chai,  R. A. DiStasio Jr.,  A. Dreuw,  
 B. D. Dunietz,  T. R. Furlani,  Chao-Ping Hsu,  Yousung Jung,  Jing Kong,  
 D. S. Lambrecht,  WanZhen Liang,  C. Ochsenfeld,  V. A. Rassolov,  
 L. V. Slipchenko,  J. E. Subotnik,  T. Van Voorhis,  J. M. Herbert,  
 A. I. Krylov,  P. M. W. Gill,  M. Head-Gordon

 Contributors to earlier versions of Q-Chem not listed above: 
 R. D. Adamson,  B. Austin,  J. Baker,  G. J. O. Beran,  K. Brandhorst,  
 S. T. Brown,  E. F. C. Byrd,  A. K. Chakraborty,  C.-L. Cheng,  
 Siu Hung Chien,  D. M. Chipman,  D. L. Crittenden,  H. Dachsel,  
 R. J. Doerksen,  A. D. Dutoi,  L. Fusti-Molnar,  W. A. Goddard III,  
 A. Golubeva-Zadorozhnaya,  S. R. Gwaltney,  G. Hawkins,  A. Heyden,  
 S. Hirata,  G. Kedziora,  F. J. Keil,  C. Kelley,  Jihan Kim,  R. A. King,  
 R. Z. Khaliullin,  P. P. Korambath,  W. Kurlancheek,  A. M. Lee,  M. S. Lee,  
 S. V. Levchenko,  Ching Yeh Lin,  D. Liotard,  R. C. Lochan,  I. Lotan,  
 P. E. Maslen,  N. Nair,  D. P. O'Neill,  D. Neuhauser,  E. Neuscamman,  
 C. M. Oana,  R. Olson,  B. Peters,  R. Peverati,  P. A. Pieniazek,  
 Y. M. Rhee,  J. Ritchie,  M. A. Rohrdanz,  E. Rosta,  N. J. Russ,  
 H. F. Schaefer III,  N. E. Schultz,  N. Shenvi,  A. C. Simmonett,  A. Sodt,  
 D. Stuck,  K. S. Thanthiriwatte,  V. Vanovschi,  Tao Wang,  A. Warshel,  
 C. F. Williams,  Q. Wu,  X. Xu,  W. Zhang

 Please cite Q-Chem as follows:
 Y. Shao et al., Mol. Phys. 113, 184-215 (2015)
 DOI: 10.1080/00268976.2014.952696

 Q-Chem 5.0.2 for Intel X86 EM64T Linux

 Parts of Q-Chem use Armadillo 5.200.1 (Boston Tea Smuggler).
 http://arma.sourceforge.net/

 Q-Chem begins on Sat Mar 21 01:34:21 2020  

Host: 
0

     Scratch files written to /scratch/leeping/1862939/qc-freq2.d//
 Dec517 15110_ 26548  26544 5633   
Processing $rem in /home/leeping/opt/qchem/5.0.2-openmp/config/preferences.
 MEM_STATIC 2000
 MEM_TOTAL  8000
 SYMMETRY   OFF
 SYM_IGNORE TRUE 
Symmetry turned off for PCM/SM12/SMD calculation

Checking the input file for inconsistencies... 	...done.

--------------------------------------------------------------
User input:
--------------------------------------------------------------
$molecule
-2 1
C        0.3906255835    0.9899200552   -0.5443045241
C        0.5482869731    1.9945538748    0.6128953714
O        1.1770742293    1.6134612009    1.6315159542
O        0.0606109745    3.1393518659    0.4288743086
C        0.2889589337   -0.4548331092   -0.1061370787
H        1.2835480747    1.0842042424   -1.1754301829
H       -0.4674836287    1.2770045858   -1.1584636313
O       -0.9074627413   -0.6733111398    0.6830894429
H        1.1082229493   -0.7061168600    0.5667975634
H        0.3067409761   -1.1411429284   -0.9543117297
C       -2.0713215897   -1.0244572264    0.1267031254
C       -2.1266105828   -1.3149626216   -1.3496636834
H       -3.1635232265   -1.5009388263   -1.6231906445
H       -1.5270741573   -2.2013719737   -1.5764388077
H       -1.7323359881   -0.4827666409   -1.9363153717
O       -3.0406541591   -1.1175014471    0.8522766768
O        4.0345873556    0.2624024195    0.3889222797
H        3.1889286513    0.5927324955    0.7138024313
$end

$rem
jobtype               freq
method                wb97x-v
basis                 def2-tzvpd
symmetry              off
sym_ignore            true
incdft                false
incfock               0
!scf_algorithm        diis_gdm
scf_convergence       8
thresh                14
!purecart             112
max_scf_cycles        1000
geom_opt_max_cycles   500
geom_opt_dmax         100
geom_opt_tol_gradient 10
solvent_method        pcm
ideriv                1
rpath_tol_displacement 1000
rpath_max_cycles      100
rpath_direction       1
!scf_guess            read
scf_guess             read
$end

$pcm
theory              cosmo
method              iswig
Radii               bondi
vdwScale            1.20
hpoints             110
heavypoints         110
$end

$solvent
dielectric 78.400000
$end

--------------------------------------------------------------
 ----------------------------------------------------------------
             Standard Nuclear Orientation (Angstroms)
    I     Atom           X                Y                Z
 ----------------------------------------------------------------
    1      C       0.3906255835     0.9899200552    -0.5443045241
    2      C       0.5482869731     1.9945538748     0.6128953714
    3      O       1.1770742293     1.6134612009     1.6315159542
    4      O       0.0606109745     3.1393518659     0.4288743086
    5      C       0.2889589337    -0.4548331092    -0.1061370787
    6      H       1.2835480747     1.0842042424    -1.1754301829
    7      H      -0.4674836287     1.2770045858    -1.1584636313
    8      O      -0.9074627413    -0.6733111398     0.6830894429
    9      H       1.1082229493    -0.7061168600     0.5667975634
   10      H       0.3067409761    -1.1411429284    -0.9543117297
   11      C      -2.0713215897    -1.0244572264     0.1267031254
   12      C      -2.1266105828    -1.3149626216    -1.3496636834
   13      H      -3.1635232265    -1.5009388263    -1.6231906445
   14      H      -1.5270741573    -2.2013719737    -1.5764388077
   15      H      -1.7323359881    -0.4827666409    -1.9363153717
   16      O      -3.0406541591    -1.1175014471     0.8522766768
   17      O       4.0345873556     0.2624024195     0.3889222797
   18      H       3.1889286513     0.5927324955     0.7138024313
 ----------------------------------------------------------------
 Nuclear Repulsion Energy =   522.9759566788 hartrees
 There are       40 alpha and       40 beta electrons
 Requested basis set is def2-TZVPD
 There are 175 shells and 457 basis functions

 Total QAlloc Memory Limit   8000 MB
 Mega-Array Size      1956 MB
 MEM_STATIC part      2000 MB
 Discretize the solute cavity surface with Lebedev spheres
	Using 110 Lebedev grid points for each H atom
	Using 110 Lebedev grid points for other atoms
	Atomic van der Waals radii will be scaled by 1.20
 Remove points where switching function is < 1.0e-08
 Keep 1140 surface tesserae and discard 840 interior tesserae
 Molecular Surface Area = 206.524 Angst**2
 A cutoff of  1.0D-14 yielded  13870 shell pairs
 There are     94718 function pairs (    120459 Cartesian)
 
 -------------------------------------------------------
 OpenMP Integral Computing Module                       
 Release: version 1.0, May 2013, Q-Chem Inc. Pittsburgh 
 -------------------------------------------------------
 Integral Job Info:
 Integral job number is                      11
 Integral operator is                         1
 short-range coefficients              16700000
 long-range coefficients              100000000
 Omega coefficients                         300
 if combine SR and LR in K                    1
 Integral screening is                        0
 Integral computing path is                   2
 max size of driver memory is            800000
 size of driver memory is                776718
 size of scratch memory is              4473992
 max col of scratch BK array              10000
 max len of scratch array in speh3          662
 max len of scratch index in speh4           32
 max int batch size is                      520
 min int batch size is                       52
 fixed nKL is                                52
 max L of basis functions is                  3
 order of int derivative is                   0
 number of shells is                        175
 number of basis is                         517
 number of cartesian basis is               517
 number of contracted shell pairs         13870
 number of primitive shell pairs          27875
 maxK2 (contraction) of shell pair           36
 max number of K2 of shell pair               1
 max number of CS2 of shell pair           2312
 max number of PS2 of shell pair           3156
 mem total for path MDJ                  774048
 -------------------------------------------------------
 Smallest overlap matrix eigenvalue = 5.05E-06
 Guess MOs from SCF MO coefficient file
 Reading MOs from coefficient file
 Reading MOs from coefficient file
 Long-range K will be added via erf
 Coulomb attenuation parameter = 0.3 bohr**(-1)
 A restricted hybrid HF-DFT SCF calculation will be
 performed using Pulay DIIS extrapolation
 Polarizable Continuum solvation model will be applied
 Exchange:     0.1670 Hartree-Fock + 1.0000 wB97X-V + LR-HF
 Correlation:  1.0000 wB97X-V
 Using SG-2 standard quadrature grid
 Nonlocal Correlation:  VV10 with C = 0.0100 and b = 6.00
 Grid used for NLC:  SG-1 standard quadrature
 SCF converges when DIIS error is below 1.0E-08
Using Q-Chem read-in guess as SCF_GUESS READ specified.

 using 16 threads for integral computing
 -------------------------------------------------------
 OpenMP Integral computing Module                
 Release: version 1.0, May 2013, Q-Chem Inc. Pittsburgh 
 -------------------------------------------------------
 using 16 threads for integral computing
 -------------------------------------------------------
 OpenMP Integral computing Module                
 Release: version 1.0, May 2013, Q-Chem Inc. Pittsburgh 
 -------------------------------------------------------
 -------------------------------------------------------
 OpenMP BLAS3 based DFT computing Module                
 Release: version 1.0, May 2013, Q-Chem Inc. Pittsburgh 
 -------------------------------------------------------
 -------------------------------------------------------
 OpenMP BLAS3 based DFT computing Module                
 Release: version 1.0, May 2013, Q-Chem Inc. Pittsburgh 
 -------------------------------------------------------
 -------------------------------------------------------
 OpenMP BLAS3 based DFT computing Module                
 Release: version 1.0, May 2013, Q-Chem Inc. Pittsburgh 
 -------------------------------------------------------
 ---------------------------------------
  Cycle       Energy         DIIS Error
 ---------------------------------------
    1    -571.4487954681      5.19E-04
    2    -571.7904765368      5.87E-04
    3    -571.8029391325      2.73E-04
    4    -571.8049846714      1.93E-04
    5    -571.8063042204      1.45E-04
    6    -571.8069644640      1.14E-04
    7    -571.8074340493      8.60E-05
    8    -571.8077078412      6.40E-05
    9    -571.8078640608      4.70E-05
   10    -571.8079539164      3.35E-05
   11    -571.8079887003      2.65E-05
   12    -571.8080125962      2.03E-05
   13    -571.8080242970      1.64E-05
   14    -571.8080311795      1.36E-05
   15    -571.8080373059      1.06E-05
   16    -571.8080413504      7.89E-06
   17    -571.8080464782      6.57E-09 Convergence criterion met
 ---------------------------------------

************** Final PCM Free Energy Summary **************
 G_electrostatic  =      -0.35925287 hartree =    -225.43457684 kcal/mol
 G_cavitation     =       0.00000000 hartree =       0.00000000 kcal/mol
 G_dispersion     =       0.00000000 hartree =       0.00000000 kcal/mol
 G_repulsion      =       0.00000000 hartree =       0.00000000 kcal/mol
 --------------------------------------------------
 Non-electrostatic Free Energy =       0.00000000 hartree =       0.00000000 kcal/mol
 Total                         =      -0.35925287 hartree =    -225.43457684 kcal/mol
 --------------------------------------------------
 SCF Energy (H0 + V/2)                       =    -571.80804648 
 Solute Internal Energy (H0)                 =    -571.44879361 
 Total Free Energy (H0 + V/2 + non-elec)     =    -571.80804648 hartree
                                             = -358814.96475911 kcal/mol
***********************************************************

 SCF time:  CPU 4067.78 s  wall 292.84 s
 SCF   energy in the final basis set = -571.80804648
 Total energy in the final basis set = -571.80804648
 
 --------------------------------------------------------------
 
                    Orbital Energies (a.u.)
 --------------------------------------------------------------
 
 Alpha MOs
 -- Occupied --
-19.255 -19.197 -19.143 -19.142 -19.088 -10.406 -10.345 -10.319
-10.272 -10.257  -1.236  -1.150  -1.145  -1.054  -0.960  -0.901
 -0.878  -0.786  -0.682  -0.623  -0.617  -0.598  -0.586  -0.551
 -0.543  -0.532  -0.514  -0.501  -0.499  -0.476  -0.453  -0.445
 -0.442  -0.403  -0.387  -0.350  -0.339  -0.334  -0.309  -0.309
 -- Virtual --
  0.059   0.073   0.079   0.083   0.093   0.102   0.106   0.111
  0.116   0.122   0.130   0.133   0.139   0.142   0.155   0.163
  0.166   0.167   0.174   0.186   0.190   0.199   0.202   0.213
  0.219   0.224   0.231   0.236   0.238   0.244   0.252   0.260
  0.272   0.276   0.282   0.290   0.299   0.303   0.306   0.320
  0.324   0.328   0.331   0.336   0.343   0.348   0.357   0.365
  0.370   0.376   0.382   0.388   0.392   0.399   0.402   0.405
  0.409   0.419   0.424   0.425   0.430   0.435   0.441   0.449
  0.454   0.460   0.463   0.468   0.478   0.479   0.491   0.492
  0.506   0.513   0.515   0.523   0.526   0.528   0.531   0.541
  0.546   0.550   0.561   0.565   0.568   0.573   0.579   0.585
  0.588   0.594   0.601   0.610   0.622   0.629   0.634   0.640
  0.643   0.651   0.655   0.662   0.665   0.668   0.670   0.693
  0.694   0.702   0.706   0.714   0.716   0.719   0.727   0.733
  0.745   0.747   0.750   0.762   0.779   0.781   0.789   0.791
  0.799   0.809   0.812   0.819   0.824   0.833   0.837   0.844
  0.849   0.859   0.869   0.873   0.880   0.889   0.895   0.910
  0.925   0.936   0.941   0.955   0.967   0.974   0.985   1.001
  1.015   1.027   1.037   1.047   1.059   1.060   1.077   1.079
  1.095   1.125   1.130   1.144   1.167   1.177   1.189   1.205
  1.211   1.227   1.238   1.250   1.258   1.280   1.308   1.317
  1.324   1.331   1.338   1.355   1.371   1.377   1.397   1.401
  1.421   1.433   1.444   1.457   1.472   1.508   1.532   1.543
  1.559   1.580   1.633   1.649   1.669   1.721   1.768   1.784
  1.794   1.837   1.868   1.887   1.898   1.902   1.917   1.929
  1.932   1.940   1.947   1.959   1.971   1.983   1.992   2.004
  2.009   2.015   2.043   2.059   2.075   2.081   2.092   2.119
  2.144   2.160   2.180   2.199   2.212   2.232   2.241   2.250
  2.264   2.274   2.306   2.319   2.348   2.349   2.383   2.395
  2.414   2.429   2.462   2.473   2.478   2.508   2.523   2.544
  2.553   2.576   2.586   2.615   2.634   2.642   2.656   2.701
  2.723   2.745   2.755   2.770   2.812   2.821   2.828   2.851
  2.876   2.893   2.901   2.926   2.937   2.966   2.987   2.999
  3.011   3.031   3.054   3.086   3.102   3.130   3.141   3.158
  3.185   3.193   3.205   3.230   3.237   3.270   3.288   3.307
  3.313   3.335   3.347   3.366   3.387   3.400   3.410   3.423
  3.428   3.444   3.464   3.493   3.510   3.524   3.534   3.558
  3.570   3.587   3.591   3.600   3.616   3.636   3.643   3.662
  3.677   3.691   3.699   3.724   3.732   3.743   3.757   3.771
  3.790   3.802   3.834   3.844   3.929   3.938   3.980   4.025
  4.066   4.091   4.117   4.127   4.133   4.162   4.226   4.243
  4.332   4.355   4.376   4.418   4.562   4.584   4.625   4.672
  4.721   4.757   4.777   4.825   4.839   4.882   4.895   5.008
  5.026   5.097   5.171   5.298   5.323   5.341   5.350   5.353
  5.358   5.367   5.377   5.378   5.385   5.398   5.510   5.522
  5.614   5.676   5.682   5.715   5.717   5.728   5.776   5.980
  6.021   6.075   6.086   6.253   6.267   6.304   6.322   6.345
  6.449   6.500   6.604   6.625   6.633   6.634   6.647   6.657
  6.697   6.722   6.728   6.733   6.775   6.798   6.813   6.955
  6.968   6.993   7.002   7.063   7.072   7.109   7.231   7.247
  7.303   7.340   7.376   7.408   7.422   7.483   7.664  22.693
 22.822  22.841  23.614  23.769  44.025  44.335  44.431  44.477
 44.631
 --------------------------------------------------------------
 
          Ground-State Mulliken Net Atomic Charges

     Atom                 Charge (a.u.)
  ----------------------------------------
      1 C                     0.089541
      2 C                     0.154410
      3 O                    -0.690153
      4 O                    -0.721668
      5 C                    -0.331411
      6 H                     0.275079
      7 H                     0.072448
      8 O                    -0.332343
      9 H                     0.174956
     10 H                     0.247316
     11 C                     0.561436
     12 C                    -0.687299
     13 H                     0.209070
     14 H                     0.297531
     15 H                     0.258055
     16 O                    -0.543279
     17 O                    -1.121591
     18 H                     0.087901
  ----------------------------------------
  Sum of atomic charges =    -2.000000

 -----------------------------------------------------------------
                    Cartesian Multipole Moments
 -----------------------------------------------------------------
    Charge (ESU x 10^10)
                -9.6064
    Dipole Moment (Debye)
         X     -19.2747      Y     -12.7539      Z     -12.2817
       Tot      26.1729
    Quadrupole Moments (Debye-Ang)
        XX    -169.9886     XY     -12.8450     YY    -100.7170
        XZ      -3.4844     YZ      -7.2524     ZZ     -76.2370
    Octopole Moments (Debye-Ang^2)
       XXX    -332.0152    XXY     -33.9228    XYY     -11.6680
       YYY    -187.6775    XXZ     -83.5949    XYZ     -22.5003
       YYZ     -47.9845    XZZ     -16.2935    YZZ     -39.7292
       ZZZ     -68.4857
    Hexadecapole Moments (Debye-Ang^3)
      XXXX   -3433.0183   XXXY    -425.0365   XXYY    -486.1476
      XYYY    -273.6978   YYYY   -1294.8433   XXXZ    -167.6041
      XXYZ     -21.6101   XYYZ     -36.0721   YYYZ    -165.1195
      XXZZ    -399.1327   XYZZ    -109.2592   YYZZ    -251.7043
      XZZZ    -101.7665   YZZZ    -130.0679   ZZZZ    -407.4718
 -----------------------------------------------------------------
 Calculating analytic gradient of the SCF energy
 Gradient of SCF Energy
            1           2           3           4           5           6
    1  -0.0206744   0.0235524  -0.0326353   0.0263513   0.0646879  -0.0403886
    2   0.0254902   0.0137662   0.0160103  -0.0564086  -0.0189082  -0.0147550
    3  -0.0798630   0.0524671  -0.0538186   0.0022222   0.0144447   0.0296962
            7           8           9          10          11          12
    1   0.0351910  -0.0156428  -0.0531643  -0.0057615  -0.0254374  -0.0094862
    2  -0.0109405  -0.0117364  -0.0116941   0.0565905   0.0086377  -0.0126010
    3   0.0390940  -0.0138452  -0.0532693   0.0480761   0.0559734  -0.0543996
           13          14          15          16          17          18
    1   0.0534102  -0.0295189  -0.0230441   0.0444428  -0.0930675   0.1011854
    2   0.0118771   0.0333450  -0.0347534   0.0047111   0.0313302  -0.0299612
    3   0.0160414   0.0073666   0.0263125  -0.0339908   0.0184444  -0.0209520
 Max gradient component =       1.012E-01
 RMS gradient           =       3.869E-02
 Computing fast CPCM-ISWIG gradient
 Updating gradient with PCM contributions...
 -- total gradient after adding PCM contribution --
---------------------------------------------------
  Atom         X              Y              Z     
---------------------------------------------------
   1      -0.000030      -0.000023      -0.000036
   2       0.000041      -0.000034       0.000059
   3      -0.000022       0.000008      -0.000029
   4      -0.000011       0.000022      -0.000005
   5       0.000029       0.000002      -0.000016
   6       0.000013       0.000008       0.000018
   7       0.000003      -0.000000       0.000010
   8      -0.000020      -0.000012       0.000003
   9       0.000003       0.000002      -0.000005
  10      -0.000006       0.000001       0.000001
  11       0.000024       0.000005       0.000005
  12      -0.000004       0.000002      -0.000013
  13       0.000001      -0.000005      -0.000000
  14       0.000003       0.000003      -0.000006
  15      -0.000004       0.000006       0.000002
  16      -0.000006       0.000003      -0.000003
  17      -0.000005       0.000025      -0.000001
  18      -0.000008      -0.000011       0.000017
---------------------------------------------------
 Number of fixed atoms: 0
 Gradient time:  CPU 821.16 s  wall 60.13 s
 ######################################################
 ######################################################
 # Starting finite difference calculation for IDERIV  #
 Finite diff step size:  1.88973e-03 a.u.
 ----------------------------------------------------------------
             Standard Nuclear Orientation (Angstroms)
    I     Atom           X                Y                Z
 ----------------------------------------------------------------
    1      C       0.3916255835     0.9899200552    -0.5443045241
    2      C       0.5482869731     1.9945538748     0.6128953714
    3      O       1.1770742293     1.6134612009     1.6315159542
    4      O       0.0606109745     3.1393518659     0.4288743086
    5      C       0.2889589337    -0.4548331092    -0.1061370787
    6      H       1.2835480747     1.0842042424    -1.1754301829
    7      H      -0.4674836287     1.2770045858    -1.1584636313
    8      O      -0.9074627413    -0.6733111398     0.6830894429
    9      H       1.1082229493    -0.7061168600     0.5667975634
   10      H       0.3067409761    -1.1411429284    -0.9543117297
   11      C      -2.0713215897    -1.0244572264     0.1267031254
   12      C      -2.1266105828    -1.3149626216    -1.3496636834
   13      H      -3.1635232265    -1.5009388263    -1.6231906445
   14      H      -1.5270741573    -2.2013719737    -1.5764388077
   15      H      -1.7323359881    -0.4827666409    -1.9363153717
   16      O      -3.0406541591    -1.1175014471     0.8522766768
   17      O       4.0345873556     0.2624024195     0.3889222797
   18      H       3.1889286513     0.5927324955     0.7138024313
 ----------------------------------------------------------------
 Nuclear Repulsion Energy =   522.9728893356 hartrees
 There are       40 alpha and       40 beta electrons
 Discretize the solute cavity surface with Lebedev spheres
	Using 110 Lebedev grid points for each H atom
	Using 110 Lebedev grid points for other atoms
	Atomic van der Waals radii will be scaled by 1.20
 Remove points where switching function is < 1.0e-08
 Keep 1140 surface tesserae and discard 840 interior tesserae
 Molecular Surface Area = 206.524 Angst**2
 Requested basis set is def2-TZVPD
 There are 175 shells and 457 basis functions
 A cutoff of  1.0D-14 yielded  13870 shell pairs
 There are     94718 function pairs (    120459 Cartesian)
 Smallest overlap matrix eigenvalue = 5.05E-06
 Guess MOs from SCF MO coefficient file
 Reading MOs from coefficient file
 Reading MOs from coefficient file
 Long-range K will be added via erf
 Coulomb attenuation parameter = 0.3 bohr**(-1)
 A restricted hybrid HF-DFT SCF calculation will be
 performed using Pulay DIIS extrapolation
 Polarizable Continuum solvation model will be applied
 Exchange:     0.1670 Hartree-Fock + 1.0000 wB97X-V + LR-HF
 Correlation:  1.0000 wB97X-V
 Using SG-2 standard quadrature grid
 Nonlocal Correlation:  VV10 with C = 0.0100 and b = 6.00
 Grid used for NLC:  SG-1 standard quadrature
 SCF converges when DIIS error is below 1.0E-08
Using Q-Chem read-in guess as SCF_GUESS READ specified.

 using 16 threads for integral computing
 -------------------------------------------------------
 OpenMP Integral computing Module                
 Release: version 1.0, May 2013, Q-Chem Inc. Pittsburgh 
 -------------------------------------------------------
 using 16 threads for integral computing
 -------------------------------------------------------
 OpenMP Integral computing Module                
 Release: version 1.0, May 2013, Q-Chem Inc. Pittsburgh 
 -------------------------------------------------------
 -------------------------------------------------------
 OpenMP BLAS3 based DFT computing Module                
 Release: version 1.0, May 2013, Q-Chem Inc. Pittsburgh 
 -------------------------------------------------------
 -------------------------------------------------------
 OpenMP BLAS3 based DFT computing Module                
 Release: version 1.0, May 2013, Q-Chem Inc. Pittsburgh 
 -------------------------------------------------------
 -------------------------------------------------------
 OpenMP BLAS3 based DFT computing Module                
 Release: version 1.0, May 2013, Q-Chem Inc. Pittsburgh 
 -------------------------------------------------------
 ---------------------------------------
  Cycle       Energy         DIIS Error
 ---------------------------------------
    1    -571.4486577269      5.19E-04
    2    -571.7904778698      5.87E-04
    3    -571.8029408049      2.73E-04
    4    -571.8049869410      1.93E-04
    5    -571.8063137760      1.45E-04
    6    -571.8069863759      1.13E-04
    7    -571.8074769066      8.29E-05
    8    -571.8077743062      5.72E-05
    9    -571.8079490691      3.42E-05
   10    -571.8080317068      1.30E-05
   11    -571.8080430989      5.42E-06
   12    -571.8080453697      1.24E-06
   13    -571.8080454825      3.66E-07
   14    -571.8080454924      1.03E-07
   15    -571.8080454932      2.75E-08
   16    -571.8080454932      8.85E-09 Convergence criterion met
 ---------------------------------------

************** Final PCM Free Energy Summary **************
 G_electrostatic  =      -0.35924811 hartree =    -225.43159377 kcal/mol
 G_cavitation     =       0.00000000 hartree =       0.00000000 kcal/mol
 G_dispersion     =       0.00000000 hartree =       0.00000000 kcal/mol
 G_repulsion      =       0.00000000 hartree =       0.00000000 kcal/mol
 --------------------------------------------------
 Non-electrostatic Free Energy =       0.00000000 hartree =       0.00000000 kcal/mol
 Total                         =      -0.35924811 hartree =    -225.43159377 kcal/mol
 --------------------------------------------------
 SCF Energy (H0 + V/2)                       =    -571.80804549 
 Solute Internal Energy (H0)                 =    -571.44879738 
 Total Free Energy (H0 + V/2 + non-elec)     =    -571.80804549 hartree
                                             = -358814.96414101 kcal/mol
***********************************************************

 SCF time:  CPU 3831.65 s  wall 275.69 s
 SCF   energy in the final basis set = -571.80804549
 Total energy in the final basis set = -571.80804549
 
 --------------------------------------------------------------
 
                    Orbital Energies (a.u.)
 --------------------------------------------------------------
 
 Alpha MOs
 -- Occupied --
-19.255 -19.197 -19.143 -19.142 -19.088 -10.406 -10.345 -10.319
-10.272 -10.257  -1.236  -1.150  -1.145  -1.054  -0.960  -0.901
 -0.878  -0.786  -0.682  -0.623  -0.617  -0.598  -0.586  -0.551
 -0.543  -0.532  -0.514  -0.501  -0.499  -0.476  -0.453  -0.445
 -0.442  -0.403  -0.387  -0.350  -0.339  -0.334  -0.309  -0.309
 -- Virtual --
  0.059   0.073   0.079   0.083   0.093   0.102   0.106   0.111
  0.116   0.122   0.130   0.133   0.139   0.142   0.155   0.163
  0.166   0.167   0.174   0.186   0.190   0.199   0.202   0.213
  0.219   0.224   0.231   0.236   0.238   0.244   0.252   0.260
  0.272   0.276   0.282   0.290   0.299   0.303   0.306   0.320
  0.324   0.328   0.331   0.336   0.343   0.348   0.357   0.365
  0.370   0.376   0.382   0.388   0.392   0.399   0.402   0.405
  0.409   0.419   0.424   0.425   0.430   0.435   0.441   0.449
  0.454   0.460   0.463   0.468   0.478   0.479   0.491   0.492
  0.506   0.513   0.515   0.523   0.526   0.528   0.531   0.541
  0.546   0.550   0.561   0.565   0.568   0.573   0.579   0.585
  0.588   0.594   0.601   0.610   0.622   0.629   0.634   0.640
  0.643   0.651   0.655   0.662   0.665   0.668   0.670   0.693
  0.694   0.702   0.706   0.714   0.716   0.719   0.727   0.733
  0.745   0.747   0.750   0.762   0.779   0.781   0.789   0.791
  0.799   0.809   0.812   0.819   0.824   0.833   0.837   0.844
  0.849   0.859   0.869   0.873   0.879   0.889   0.895   0.910
  0.925   0.936   0.940   0.955   0.967   0.974   0.985   1.001
  1.015   1.027   1.037   1.047   1.058   1.060   1.077   1.079
  1.095   1.125   1.130   1.144   1.167   1.177   1.189   1.205
  1.211   1.227   1.238   1.250   1.258   1.280   1.308   1.317
  1.324   1.331   1.338   1.355   1.371   1.377   1.397   1.401
  1.421   1.433   1.443   1.457   1.472   1.508   1.531   1.543
  1.559   1.581   1.633   1.649   1.669   1.721   1.768   1.784
  1.794   1.837   1.868   1.887   1.898   1.902   1.917   1.929
  1.932   1.940   1.947   1.959   1.971   1.983   1.992   2.004
  2.009   2.015   2.043   2.059   2.075   2.082   2.092   2.119
  2.144   2.160   2.180   2.199   2.212   2.232   2.241   2.250
  2.264   2.274   2.306   2.319   2.348   2.349   2.383   2.395
  2.414   2.429   2.462   2.473   2.478   2.508   2.523   2.544
  2.553   2.576   2.586   2.615   2.634   2.642   2.656   2.701
  2.723   2.745   2.755   2.770   2.812   2.821   2.828   2.851
  2.876   2.893   2.901   2.926   2.937   2.966   2.987   2.999
  3.011   3.032   3.054   3.086   3.102   3.130   3.141   3.158
  3.185   3.193   3.205   3.230   3.237   3.270   3.288   3.307
  3.313   3.335   3.347   3.366   3.387   3.400   3.410   3.423
  3.428   3.444   3.464   3.493   3.510   3.524   3.534   3.558
  3.570   3.587   3.591   3.600   3.616   3.636   3.643   3.662
  3.677   3.691   3.699   3.724   3.732   3.742   3.757   3.771
  3.790   3.802   3.834   3.844   3.929   3.938   3.980   4.025
  4.066   4.091   4.117   4.127   4.133   4.162   4.226   4.243
  4.332   4.355   4.376   4.418   4.562   4.584   4.625   4.673
  4.722   4.758   4.776   4.825   4.839   4.882   4.895   5.008
  5.026   5.097   5.171   5.298   5.323   5.341   5.350   5.353
  5.358   5.367   5.377   5.378   5.385   5.398   5.510   5.522
  5.614   5.676   5.682   5.715   5.717   5.728   5.776   5.980
  6.021   6.075   6.086   6.253   6.267   6.304   6.322   6.345
  6.449   6.500   6.604   6.625   6.633   6.634   6.646   6.657
  6.697   6.722   6.728   6.733   6.775   6.798   6.813   6.955
  6.968   6.993   7.002   7.063   7.072   7.109   7.231   7.247
  7.303   7.340   7.376   7.408   7.422   7.483   7.664  22.693
 22.822  22.841  23.614  23.769  44.025  44.334  44.431  44.477
 44.631
 --------------------------------------------------------------
 
          Ground-State Mulliken Net Atomic Charges

     Atom                 Charge (a.u.)
  ----------------------------------------
      1 C                     0.089665
      2 C                     0.154319
      3 O                    -0.690153
      4 O                    -0.721667
      5 C                    -0.331745
      6 H                     0.275821
      7 H                     0.071871
      8 O                    -0.332365
      9 H                     0.174926
     10 H                     0.247430
     11 C                     0.561388
     12 C                    -0.687209
     13 H                     0.209063
     14 H                     0.297528
     15 H                     0.258059
     16 O                    -0.543265
     17 O                    -1.121582
     18 H                     0.087916
  ----------------------------------------
  Sum of atomic charges =    -2.000000

 -----------------------------------------------------------------
                    Cartesian Multipole Moments
 -----------------------------------------------------------------
    Charge (ESU x 10^10)
                -9.6064
    Dipole Moment (Debye)
         X     -19.2743      Y     -12.7537      Z     -12.2817
       Tot      26.1724
    Quadrupole Moments (Debye-Ang)
        XX    -169.9865     XY     -12.8418     YY    -100.7156
        XZ      -3.4869     YZ      -7.2519     ZZ     -76.2381
    Octopole Moments (Debye-Ang^2)
       XXX    -332.0313    XXY     -33.9218    XYY     -11.6688
       YYY    -187.6684    XXZ     -83.5961    XYZ     -22.5014
       YYZ     -47.9833    XZZ     -16.2960    YZZ     -39.7323
       ZZZ     -68.4885
    Hexadecapole Moments (Debye-Ang^3)
      XXXX   -3433.0238   XXXY    -425.0383   XXYY    -486.1444
      XYYY    -273.6920   YYYY   -1294.8001   XXXZ    -167.6063
      XXYZ     -21.6112   XYYZ     -36.0731   YYYZ    -165.1135
      XXZZ    -399.1322   XYZZ    -109.2580   YYZZ    -251.7088
      XZZZ    -101.7705   YZZZ    -130.0717   ZZZZ    -407.4813
 -----------------------------------------------------------------
 Calculating analytic gradient of the SCF energy
 Gradient of SCF Energy
            1           2           3           4           5           6
    1  -0.0197137   0.0234022  -0.0326142   0.0263712   0.0646321  -0.0407703
    2   0.0254596   0.0137196   0.0160039  -0.0564009  -0.0189083  -0.0148275
    3  -0.0798302   0.0524349  -0.0538479   0.0022238   0.0144946   0.0300408
            7           8           9          10          11          12
    1   0.0348095  -0.0156535  -0.0531914  -0.0057599  -0.0254209  -0.0094921
    2  -0.0107918  -0.0117589  -0.0116887   0.0566009   0.0086531  -0.0126157
    3   0.0387443  -0.0138443  -0.0533040   0.0480819   0.0559842  -0.0544044
           13          14          15          16          17          18
    1   0.0534089  -0.0295195  -0.0230444   0.0444371  -0.0930652   0.1011842
    2   0.0118754   0.0333464  -0.0347501   0.0047135   0.0313270  -0.0299577
    3   0.0160417   0.0073674   0.0263106  -0.0339903   0.0184473  -0.0209504
 Max gradient component =       1.012E-01
 RMS gradient           =       3.868E-02
 Computing fast CPCM-ISWIG gradient
 Updating gradient with PCM contributions...
 -- total gradient after adding PCM contribution --
---------------------------------------------------
  Atom         X              Y              Z     
---------------------------------------------------
   1       0.001073      -0.000079       0.000003
   2      -0.000126      -0.000063       0.000059
   3      -0.000002      -0.000001      -0.000088
   4       0.000019       0.000062      -0.000003
   5      -0.000114       0.000012      -0.000041
   6      -0.000401      -0.000018       0.000258
   7      -0.000402       0.000100      -0.000213
   8      -0.000056      -0.000081       0.000033
   9       0.000010       0.000048      -0.000019
  10      -0.000005      -0.000005       0.000001
  11       0.000039       0.000001       0.000014
  12      -0.000004       0.000003      -0.000012
  13       0.000001      -0.000005      -0.000001
  14       0.000003       0.000003      -0.000006
  15      -0.000004       0.000005       0.000001
  16      -0.000014       0.000005      -0.000002
  17      -0.000006       0.000025      -0.000001
  18      -0.000008      -0.000011       0.000017
---------------------------------------------------
 Number of fixed atoms: 0
 Gradient time:  CPU 830.62 s  wall 60.58 s
 ----------------------------------------------------------------
             Standard Nuclear Orientation (Angstroms)
    I     Atom           X                Y                Z
 ----------------------------------------------------------------
    1      C       0.3896255835     0.9899200552    -0.5443045241
    2      C       0.5482869731     1.9945538748     0.6128953714
    3      O       1.1770742293     1.6134612009     1.6315159542
    4      O       0.0606109745     3.1393518659     0.4288743086
    5      C       0.2889589337    -0.4548331092    -0.1061370787
    6      H       1.2835480747     1.0842042424    -1.1754301829
    7      H      -0.4674836287     1.2770045858    -1.1584636313
    8      O      -0.9074627413    -0.6733111398     0.6830894429
    9      H       1.1082229493    -0.7061168600     0.5667975634
   10      H       0.3067409761    -1.1411429284    -0.9543117297
   11      C      -2.0713215897    -1.0244572264     0.1267031254
   12      C      -2.1266105828    -1.3149626216    -1.3496636834
   13      H      -3.1635232265    -1.5009388263    -1.6231906445
   14      H      -1.5270741573    -2.2013719737    -1.5764388077
   15      H      -1.7323359881    -0.4827666409    -1.9363153717
   16      O      -3.0406541591    -1.1175014471     0.8522766768
   17      O       4.0345873556     0.2624024195     0.3889222797
   18      H       3.1889286513     0.5927324955     0.7138024313
 ----------------------------------------------------------------
 Nuclear Repulsion Energy =   522.9790161388 hartrees
 There are       40 alpha and       40 beta electrons
 Discretize the solute cavity surface with Lebedev spheres
	Using 110 Lebedev grid points for each H atom
	Using 110 Lebedev grid points for other atoms
	Atomic van der Waals radii will be scaled by 1.20
 Remove points where switching function is < 1.0e-08
 Keep 1140 surface tesserae and discard 840 interior tesserae
 Molecular Surface Area = 206.525 Angst**2
 Requested basis set is def2-TZVPD
 There are 175 shells and 457 basis functions
 A cutoff of  1.0D-14 yielded  13870 shell pairs
 There are     94718 function pairs (    120459 Cartesian)
 Smallest overlap matrix eigenvalue = 5.06E-06
 Guess MOs from SCF MO coefficient file
 Reading MOs from coefficient file
 Reading MOs from coefficient file
 Long-range K will be added via erf
 Coulomb attenuation parameter = 0.3 bohr**(-1)
 A restricted hybrid HF-DFT SCF calculation will be
 performed using Pulay DIIS extrapolation
 Polarizable Continuum solvation model will be applied
 Exchange:     0.1670 Hartree-Fock + 1.0000 wB97X-V + LR-HF
 Correlation:  1.0000 wB97X-V
 Using SG-2 standard quadrature grid
 Nonlocal Correlation:  VV10 with C = 0.0100 and b = 6.00
 Grid used for NLC:  SG-1 standard quadrature
 SCF converges when DIIS error is below 1.0E-08
Using Q-Chem read-in guess as SCF_GUESS READ specified.

 using 16 threads for integral computing
 -------------------------------------------------------
 OpenMP Integral computing Module                
 Release: version 1.0, May 2013, Q-Chem Inc. Pittsburgh 
 -------------------------------------------------------
 using 16 threads for integral computing
 -------------------------------------------------------
 OpenMP Integral computing Module                
 Release: version 1.0, May 2013, Q-Chem Inc. Pittsburgh 
 -------------------------------------------------------
 -------------------------------------------------------
 OpenMP BLAS3 based DFT computing Module                
 Release: version 1.0, May 2013, Q-Chem Inc. Pittsburgh 
 -------------------------------------------------------
 -------------------------------------------------------
 OpenMP BLAS3 based DFT computing Module                
 Release: version 1.0, May 2013, Q-Chem Inc. Pittsburgh 
 -------------------------------------------------------
 -------------------------------------------------------
 OpenMP BLAS3 based DFT computing Module                
 Release: version 1.0, May 2013, Q-Chem Inc. Pittsburgh 
 -------------------------------------------------------
 ---------------------------------------
  Cycle       Energy         DIIS Error
 ---------------------------------------
    1    -571.4490696194      5.20E-04
    2    -571.7904702398      5.88E-04
    3    -571.8029414885      2.73E-04
    4    -571.8049901629      1.93E-04
    5    -571.8063257449      1.44E-04
    6    -571.8070365434      1.10E-04
    7    -571.8075824504      7.47E-05
    8    -571.8078921892      4.30E-05
    9    -571.8080214291      1.71E-05
   10    -571.8080445509      3.23E-06
   11    -571.8080452943      1.04E-06
   12    -571.8080453764      1.68E-07
   13    -571.8080453783      4.69E-08
   14    -571.8080453784      8.71E-09 Convergence criterion met
 ---------------------------------------

************** Final PCM Free Energy Summary **************
 G_electrostatic  =      -0.35925751 hartree =    -225.43749154 kcal/mol
 G_cavitation     =       0.00000000 hartree =       0.00000000 kcal/mol
 G_dispersion     =       0.00000000 hartree =       0.00000000 kcal/mol
 G_repulsion      =       0.00000000 hartree =       0.00000000 kcal/mol
 --------------------------------------------------
 Non-electrostatic Free Energy =       0.00000000 hartree =       0.00000000 kcal/mol
 Total                         =      -0.35925751 hartree =    -225.43749154 kcal/mol
 --------------------------------------------------
 SCF Energy (H0 + V/2)                       =    -571.80804538 
 Solute Internal Energy (H0)                 =    -571.44878787 
 Total Free Energy (H0 + V/2 + non-elec)     =    -571.80804538 hartree
                                             = -358814.96406897 kcal/mol
***********************************************************

 SCF time:  CPU 3351.94 s  wall 240.96 s
 SCF   energy in the final basis set = -571.80804538
 Total energy in the final basis set = -571.80804538
 
 --------------------------------------------------------------
 
                    Orbital Energies (a.u.)
 --------------------------------------------------------------
 
 Alpha MOs
 -- Occupied --
-19.255 -19.197 -19.143 -19.142 -19.088 -10.406 -10.345 -10.319
-10.272 -10.257  -1.236  -1.150  -1.145  -1.054  -0.960  -0.901
 -0.878  -0.786  -0.682  -0.623  -0.617  -0.598  -0.586  -0.551
 -0.543  -0.532  -0.514  -0.501  -0.499  -0.476  -0.453  -0.445
 -0.442  -0.403  -0.387  -0.350  -0.339  -0.334  -0.309  -0.309
 -- Virtual --
  0.059   0.073   0.079   0.083   0.093   0.102   0.106   0.111
  0.116   0.122   0.130   0.133   0.139   0.142   0.155   0.163
  0.166   0.167   0.174   0.186   0.190   0.199   0.202   0.213
  0.219   0.224   0.231   0.236   0.238   0.244   0.252   0.260
  0.272   0.276   0.282   0.290   0.299   0.303   0.306   0.320
  0.324   0.328   0.331   0.336   0.343   0.348   0.357   0.365
  0.370   0.376   0.382   0.388   0.392   0.399   0.402   0.405
  0.409   0.419   0.424   0.425   0.430   0.435   0.441   0.449
  0.454   0.460   0.463   0.468   0.478   0.479   0.491   0.492
  0.506   0.513   0.515   0.523   0.526   0.528   0.531   0.541
  0.546   0.550   0.561   0.565   0.568   0.573   0.579   0.585
  0.588   0.594   0.601   0.610   0.622   0.629   0.634   0.640
  0.643   0.651   0.655   0.662   0.665   0.668   0.670   0.693
  0.694   0.702   0.706   0.714   0.716   0.719   0.727   0.733
  0.745   0.747   0.750   0.762   0.779   0.781   0.789   0.791
  0.799   0.809   0.812   0.819   0.824   0.833   0.837   0.844
  0.849   0.859   0.869   0.873   0.880   0.889   0.895   0.910
  0.925   0.936   0.941   0.955   0.967   0.974   0.985   1.001
  1.015   1.027   1.037   1.047   1.059   1.060   1.077   1.079
  1.094   1.125   1.130   1.144   1.167   1.177   1.189   1.205
  1.211   1.227   1.238   1.250   1.258   1.280   1.308   1.317
  1.324   1.331   1.338   1.355   1.371   1.377   1.397   1.401
  1.421   1.433   1.444   1.457   1.472   1.508   1.532   1.543
  1.559   1.580   1.633   1.649   1.669   1.721   1.768   1.784
  1.794   1.837   1.868   1.887   1.898   1.902   1.917   1.929
  1.932   1.940   1.947   1.959   1.971   1.983   1.992   2.004
  2.009   2.015   2.043   2.059   2.075   2.081   2.092   2.119
  2.144   2.160   2.180   2.199   2.211   2.232   2.241   2.250
  2.264   2.274   2.306   2.319   2.348   2.349   2.383   2.395
  2.414   2.429   2.462   2.473   2.478   2.508   2.523   2.544
  2.553   2.576   2.586   2.615   2.634   2.642   2.657   2.701
  2.724   2.745   2.755   2.770   2.812   2.821   2.828   2.851
  2.876   2.893   2.901   2.926   2.937   2.966   2.987   2.999
  3.011   3.031   3.054   3.086   3.102   3.130   3.141   3.158
  3.185   3.193   3.205   3.230   3.237   3.270   3.288   3.307
  3.313   3.334   3.347   3.366   3.387   3.400   3.410   3.423
  3.428   3.444   3.464   3.493   3.510   3.524   3.534   3.558
  3.570   3.587   3.591   3.600   3.616   3.636   3.643   3.662
  3.677   3.691   3.699   3.724   3.731   3.743   3.757   3.771
  3.790   3.802   3.834   3.844   3.928   3.938   3.981   4.025
  4.066   4.092   4.117   4.127   4.133   4.162   4.226   4.243
  4.332   4.355   4.376   4.418   4.562   4.584   4.625   4.672
  4.721   4.757   4.777   4.825   4.839   4.882   4.895   5.008
  5.026   5.097   5.171   5.298   5.323   5.341   5.350   5.353
  5.358   5.367   5.377   5.378   5.385   5.399   5.510   5.522
  5.614   5.676   5.682   5.715   5.717   5.728   5.776   5.980
  6.021   6.075   6.086   6.253   6.267   6.304   6.322   6.345
  6.449   6.500   6.604   6.625   6.633   6.634   6.647   6.657
  6.697   6.722   6.728   6.733   6.775   6.798   6.813   6.955
  6.968   6.993   7.002   7.063   7.072   7.109   7.231   7.247
  7.303   7.340   7.376   7.408   7.422   7.483   7.664  22.693
 22.822  22.841  23.614  23.769  44.025  44.335  44.431  44.477
 44.631
 --------------------------------------------------------------
 
          Ground-State Mulliken Net Atomic Charges

     Atom                 Charge (a.u.)
  ----------------------------------------
      1 C                     0.089402
      2 C                     0.154503
      3 O                    -0.690152
      4 O                    -0.721669
      5 C                    -0.331077
      6 H                     0.274341
      7 H                     0.073031
      8 O                    -0.332319
      9 H                     0.174986
     10 H                     0.247202
     11 C                     0.561486
     12 C                    -0.687389
     13 H                     0.209076
     14 H                     0.297534
     15 H                     0.258052
     16 O                    -0.543294
     17 O                    -1.121599
     18 H                     0.087885
  ----------------------------------------
  Sum of atomic charges =    -2.000000

 -----------------------------------------------------------------
                    Cartesian Multipole Moments
 -----------------------------------------------------------------
    Charge (ESU x 10^10)
                -9.6064
    Dipole Moment (Debye)
         X     -19.2751      Y     -12.7542      Z     -12.2817
       Tot      26.1733
    Quadrupole Moments (Debye-Ang)
        XX    -169.9907     XY     -12.8482     YY    -100.7184
        XZ      -3.4818     YZ      -7.2530     ZZ     -76.2359
    Octopole Moments (Debye-Ang^2)
       XXX    -331.9991    XXY     -33.9239    XYY     -11.6671
       YYY    -187.6866    XXZ     -83.5938    XYZ     -22.4992
       YYZ     -47.9857    XZZ     -16.2910    YZZ     -39.7261
       ZZZ     -68.4828
    Hexadecapole Moments (Debye-Ang^3)
      XXXX   -3433.0142   XXXY    -425.0355   XXYY    -486.1510
      XYYY    -273.7038   YYYY   -1294.8870   XXXZ    -167.6024
      XXYZ     -21.6091   XYYZ     -36.0713   YYYZ    -165.1258
      XXZZ    -399.1333   XYZZ    -109.2605   YYZZ    -251.6999
      XZZZ    -101.7627   YZZZ    -130.0642   ZZZZ    -407.4625
 -----------------------------------------------------------------
 Calculating analytic gradient of the SCF energy
 Gradient of SCF Energy
            1           2           3           4           5           6
    1  -0.0216340   0.0237021  -0.0326563   0.0263312   0.0647434  -0.0400083
    2   0.0255214   0.0138134   0.0160166  -0.0564164  -0.0189084  -0.0146827
    3  -0.0798983   0.0524996  -0.0537893   0.0022203   0.0143942   0.0293531
            7           8           9          10          11          12
    1   0.0355737  -0.0156317  -0.0531371  -0.0057631  -0.0254543  -0.0094800
    2  -0.0110900  -0.0117138  -0.0116992   0.0565798   0.0086221  -0.0125861
    3   0.0394449  -0.0138460  -0.0532344   0.0480701   0.0559626  -0.0543948
           13          14          15          16          17          18
    1   0.0534114  -0.0295183  -0.0230438   0.0444484  -0.0930695   0.1011863
    2   0.0118788   0.0333435  -0.0347566   0.0047086   0.0313337  -0.0299649
    3   0.0160411   0.0073657   0.0263143  -0.0339912   0.0184418  -0.0209538
 Max gradient component =       1.012E-01
 RMS gradient           =       3.870E-02
 Computing fast CPCM-ISWIG gradient
 Updating gradient with PCM contributions...
 -- total gradient after adding PCM contribution --
---------------------------------------------------
  Atom         X              Y              Z     
---------------------------------------------------
   1      -0.001134       0.000034      -0.000080
   2       0.000209      -0.000006       0.000059
   3      -0.000042       0.000016       0.000030
   4      -0.000041      -0.000017      -0.000006
   5       0.000171      -0.000008       0.000008
   6       0.000426       0.000034      -0.000221
   7       0.000409      -0.000102       0.000235
   8       0.000017       0.000056      -0.000028
   9      -0.000005      -0.000045       0.000009
  10      -0.000008       0.000007       0.000000
  11       0.000009       0.000009      -0.000004
  12      -0.000004       0.000002      -0.000012
  13       0.000001      -0.000005      -0.000000
  14       0.000003       0.000002      -0.000006
  15      -0.000003       0.000007       0.000003
  16       0.000003       0.000001      -0.000004
  17      -0.000004       0.000025      -0.000000
  18      -0.000008      -0.000011       0.000016
---------------------------------------------------
 Number of fixed atoms: 0
 Gradient time:  CPU 827.61 s  wall 60.47 s
 ----------------------------------------------------------------
             Standard Nuclear Orientation (Angstroms)
    I     Atom           X                Y                Z
 ----------------------------------------------------------------
    1      C       0.3906255835     0.9909200552    -0.5443045241
    2      C       0.5482869731     1.9945538748     0.6128953714
    3      O       1.1770742293     1.6134612009     1.6315159542
    4      O       0.0606109745     3.1393518659     0.4288743086
    5      C       0.2889589337    -0.4548331092    -0.1061370787
    6      H       1.2835480747     1.0842042424    -1.1754301829
    7      H      -0.4674836287     1.2770045858    -1.1584636313
    8      O      -0.9074627413    -0.6733111398     0.6830894429
    9      H       1.1082229493    -0.7061168600     0.5667975634
   10      H       0.3067409761    -1.1411429284    -0.9543117297
   11      C      -2.0713215897    -1.0244572264     0.1267031254
   12      C      -2.1266105828    -1.3149626216    -1.3496636834
   13      H      -3.1635232265    -1.5009388263    -1.6231906445
   14      H      -1.5270741573    -2.2013719737    -1.5764388077
   15      H      -1.7323359881    -0.4827666409    -1.9363153717
   16      O      -3.0406541591    -1.1175014471     0.8522766768
   17      O       4.0345873556     0.2624024195     0.3889222797
   18      H       3.1889286513     0.5927324955     0.7138024313
 ----------------------------------------------------------------
 Nuclear Repulsion Energy =   522.9716102944 hartrees
 There are       40 alpha and       40 beta electrons
 Discretize the solute cavity surface with Lebedev spheres
	Using 110 Lebedev grid points for each H atom
	Using 110 Lebedev grid points for other atoms
	Atomic van der Waals radii will be scaled by 1.20
 Remove points where switching function is < 1.0e-08
 Keep 1140 surface tesserae and discard 840 interior tesserae
 Molecular Surface Area = 206.525 Angst**2
 Requested basis set is def2-TZVPD
 There are 175 shells and 457 basis functions
 A cutoff of  1.0D-14 yielded  13870 shell pairs
 There are     94718 function pairs (    120459 Cartesian)
 Smallest overlap matrix eigenvalue = 5.06E-06
 Guess MOs from SCF MO coefficient file
 Reading MOs from coefficient file
 Reading MOs from coefficient file
 Long-range K will be added via erf
 Coulomb attenuation parameter = 0.3 bohr**(-1)
 A restricted hybrid HF-DFT SCF calculation will be
 performed using Pulay DIIS extrapolation
 Polarizable Continuum solvation model will be applied
 Exchange:     0.1670 Hartree-Fock + 1.0000 wB97X-V + LR-HF
 Correlation:  1.0000 wB97X-V
 Using SG-2 standard quadrature grid
 Nonlocal Correlation:  VV10 with C = 0.0100 and b = 6.00
 Grid used for NLC:  SG-1 standard quadrature
 SCF converges when DIIS error is below 1.0E-08
Using Q-Chem read-in guess as SCF_GUESS READ specified.

 using 16 threads for integral computing
 -------------------------------------------------------
 OpenMP Integral computing Module                
 Release: version 1.0, May 2013, Q-Chem Inc. Pittsburgh 
 -------------------------------------------------------
 using 16 threads for integral computing
 -------------------------------------------------------
 OpenMP Integral computing Module                
 Release: version 1.0, May 2013, Q-Chem Inc. Pittsburgh 
 -------------------------------------------------------
 -------------------------------------------------------
 OpenMP BLAS3 based DFT computing Module                
 Release: version 1.0, May 2013, Q-Chem Inc. Pittsburgh 
 -------------------------------------------------------
 -------------------------------------------------------
 OpenMP BLAS3 based DFT computing Module                
 Release: version 1.0, May 2013, Q-Chem Inc. Pittsburgh 
 -------------------------------------------------------
 -------------------------------------------------------
 OpenMP BLAS3 based DFT computing Module                
 Release: version 1.0, May 2013, Q-Chem Inc. Pittsburgh 
 -------------------------------------------------------
 ---------------------------------------
  Cycle       Energy         DIIS Error
 ---------------------------------------
    1    -571.4485922153      5.20E-04
    2    -571.7904825388      5.87E-04
    3    -571.8029432623      2.73E-04
    4    -571.8049894423      1.93E-04
    5    -571.8063206479      1.45E-04
    6    -571.8070066652      1.12E-04
    7    -571.8075174248      7.99E-05
    8    -571.8078260545      5.15E-05
    9    -571.8079896403      2.61E-05
   10    -571.8080416798      6.99E-06
   11    -571.8080451692      2.41E-06
   12    -571.8080456196      4.54E-07
   13    -571.8080456344      1.33E-07
   14    -571.8080456356      3.48E-08
   15    -571.8080456357      1.19E-08
   16    -571.8080456357      4.01E-09 Convergence criterion met
 ---------------------------------------

************** Final PCM Free Energy Summary **************
 G_electrostatic  =      -0.35926159 hartree =    -225.44005182 kcal/mol
 G_cavitation     =       0.00000000 hartree =       0.00000000 kcal/mol
 G_dispersion     =       0.00000000 hartree =       0.00000000 kcal/mol
 G_repulsion      =       0.00000000 hartree =       0.00000000 kcal/mol
 --------------------------------------------------
 Non-electrostatic Free Energy =       0.00000000 hartree =       0.00000000 kcal/mol
 Total                         =      -0.35926159 hartree =    -225.44005182 kcal/mol
 --------------------------------------------------
 SCF Energy (H0 + V/2)                       =    -571.80804564 
 Solute Internal Energy (H0)                 =    -571.44878404 
 Total Free Energy (H0 + V/2 + non-elec)     =    -571.80804564 hartree
                                             = -358814.96423041 kcal/mol
***********************************************************

 SCF time:  CPU 3948.83 s  wall 283.26 s
 SCF   energy in the final basis set = -571.80804564
 Total energy in the final basis set = -571.80804564
 
 --------------------------------------------------------------
 
                    Orbital Energies (a.u.)
 --------------------------------------------------------------
 
 Alpha MOs
 -- Occupied --
-19.255 -19.197 -19.143 -19.142 -19.088 -10.406 -10.345 -10.319
-10.272 -10.257  -1.236  -1.150  -1.145  -1.054  -0.960  -0.901
 -0.878  -0.786  -0.682  -0.623  -0.617  -0.598  -0.586  -0.551
 -0.543  -0.532  -0.514  -0.501  -0.499  -0.476  -0.453  -0.445
 -0.442  -0.403  -0.387  -0.350  -0.339  -0.334  -0.309  -0.309
 -- Virtual --
  0.059   0.073   0.079   0.083   0.093   0.102   0.106   0.111
  0.116   0.122   0.130   0.133   0.139   0.142   0.155   0.163
  0.166   0.167   0.174   0.186   0.190   0.199   0.202   0.213
  0.219   0.224   0.231   0.236   0.238   0.244   0.252   0.260
  0.272   0.276   0.282   0.290   0.299   0.303   0.306   0.320
  0.324   0.328   0.331   0.336   0.343   0.348   0.357   0.365
  0.370   0.376   0.382   0.388   0.392   0.399   0.402   0.405
  0.409   0.419   0.424   0.425   0.430   0.435   0.441   0.449
  0.454   0.460   0.463   0.468   0.478   0.479   0.491   0.492
  0.506   0.513   0.515   0.523   0.526   0.528   0.531   0.541
  0.546   0.550   0.561   0.565   0.568   0.573   0.579   0.585
  0.588   0.594   0.601   0.610   0.622   0.629   0.634   0.640
  0.643   0.651   0.655   0.662   0.665   0.668   0.670   0.693
  0.694   0.702   0.706   0.714   0.716   0.719   0.727   0.733
  0.745   0.747   0.750   0.762   0.779   0.781   0.789   0.791
  0.799   0.809   0.812   0.819   0.824   0.833   0.837   0.844
  0.849   0.859   0.869   0.873   0.880   0.889   0.895   0.910
  0.925   0.936   0.940   0.955   0.967   0.974   0.985   1.001
  1.015   1.027   1.037   1.047   1.058   1.060   1.077   1.079
  1.095   1.126   1.130   1.144   1.167   1.177   1.189   1.205
  1.211   1.227   1.238   1.250   1.258   1.280   1.308   1.317
  1.324   1.331   1.338   1.355   1.371   1.377   1.397   1.401
  1.421   1.433   1.444   1.457   1.472   1.508   1.531   1.543
  1.559   1.580   1.633   1.649   1.669   1.721   1.768   1.784
  1.794   1.837   1.868   1.887   1.898   1.902   1.917   1.929
  1.932   1.940   1.947   1.959   1.971   1.983   1.992   2.004
  2.009   2.015   2.043   2.059   2.075   2.082   2.092   2.119
  2.144   2.160   2.180   2.199   2.212   2.232   2.241   2.250
  2.264   2.274   2.306   2.319   2.348   2.349   2.383   2.395
  2.414   2.429   2.462   2.473   2.478   2.508   2.523   2.544
  2.553   2.576   2.586   2.615   2.634   2.642   2.656   2.701
  2.723   2.745   2.755   2.770   2.812   2.820   2.828   2.851
  2.876   2.893   2.901   2.926   2.937   2.966   2.987   2.999
  3.011   3.031   3.054   3.086   3.102   3.130   3.141   3.158
  3.185   3.193   3.205   3.230   3.237   3.270   3.288   3.307
  3.313   3.335   3.347   3.366   3.387   3.400   3.410   3.423
  3.429   3.444   3.464   3.493   3.510   3.524   3.534   3.558
  3.570   3.587   3.591   3.600   3.616   3.636   3.643   3.662
  3.677   3.691   3.699   3.724   3.732   3.742   3.757   3.771
  3.790   3.802   3.834   3.843   3.929   3.938   3.980   4.025
  4.066   4.091   4.117   4.127   4.133   4.162   4.226   4.243
  4.331   4.355   4.376   4.417   4.562   4.584   4.625   4.672
  4.721   4.757   4.777   4.825   4.838   4.882   4.895   5.008
  5.026   5.097   5.171   5.298   5.323   5.341   5.350   5.353
  5.358   5.367   5.377   5.378   5.385   5.398   5.510   5.522
  5.614   5.676   5.682   5.715   5.717   5.728   5.776   5.980
  6.021   6.075   6.086   6.253   6.267   6.304   6.322   6.345
  6.449   6.500   6.604   6.625   6.633   6.635   6.647   6.658
  6.697   6.722   6.728   6.733   6.775   6.798   6.813   6.955
  6.968   6.993   7.002   7.063   7.072   7.109   7.231   7.247
  7.303   7.340   7.377   7.408   7.422   7.483   7.664  22.693
 22.822  22.841  23.614  23.769  44.025  44.335  44.431  44.477
 44.631
 --------------------------------------------------------------
 
          Ground-State Mulliken Net Atomic Charges

     Atom                 Charge (a.u.)
  ----------------------------------------
      1 C                     0.090108
      2 C                     0.154138
      3 O                    -0.690207
      4 O                    -0.721714
      5 C                    -0.331873
      6 H                     0.274817
      7 H                     0.072687
      8 O                    -0.332277
      9 H                     0.175037
     10 H                     0.247505
     11 C                     0.561414
     12 C                    -0.687287
     13 H                     0.209055
     14 H                     0.297533
     15 H                     0.258042
     16 O                    -0.543290
     17 O                    -1.121588
     18 H                     0.087900
  ----------------------------------------
  Sum of atomic charges =    -2.000000

 -----------------------------------------------------------------
                    Cartesian Multipole Moments
 -----------------------------------------------------------------
    Charge (ESU x 10^10)
                -9.6064
    Dipole Moment (Debye)
         X     -19.2749      Y     -12.7550      Z     -12.2826
       Tot      26.1739
    Quadrupole Moments (Debye-Ang)
        XX    -169.9880     XY     -12.8453     YY    -100.7215
        XZ      -3.4839     YZ      -7.2533     ZZ     -76.2364
    Octopole Moments (Debye-Ang^2)
       XXX    -332.0140    XXY     -33.9275    XYY     -11.6679
       YYY    -187.7116    XXZ     -83.5956    XYZ     -22.4990
       YYZ     -47.9883    XZZ     -16.2935    YZZ     -39.7358
       ZZZ     -68.4889
    Hexadecapole Moments (Debye-Ang^3)
      XXXX   -3433.0142   XXXY    -425.0425   XXYY    -486.1586
      XYYY    -273.7017   YYYY   -1294.9768   XXXZ    -167.6015
      XXYZ     -21.6060   XYYZ     -36.0687   YYYZ    -165.1271
      XXZZ    -399.1304   XYZZ    -109.2614   YYZZ    -251.7223
      XZZZ    -101.7641   YZZZ    -130.0628   ZZZZ    -407.4660
 -----------------------------------------------------------------
 Calculating analytic gradient of the SCF energy
 Gradient of SCF Energy
            1           2           3           4           5           6
    1  -0.0207248   0.0235549  -0.0326377   0.0263567   0.0647228  -0.0404629
    2   0.0261203   0.0135220   0.0160387  -0.0564424  -0.0193247  -0.0146703
    3  -0.0799417   0.0523899  -0.0538237   0.0021815   0.0143881   0.0297776
            7           8           9          10          11          12
    1   0.0353148  -0.0156520  -0.0532077  -0.0057524  -0.0254295  -0.0094991
    2  -0.0109741  -0.0117371  -0.0117278   0.0565943   0.0086473  -0.0126035
    3   0.0392104  -0.0138198  -0.0532393   0.0480850   0.0559712  -0.0544055
           13          14          15          16          17          18
    1   0.0534071  -0.0295146  -0.0230379   0.0444440  -0.0930663   0.1011846
    2   0.0118768   0.0333429  -0.0347445   0.0047116   0.0313301  -0.0299596
    3   0.0160418   0.0073669   0.0263164  -0.0339907   0.0184485  -0.0209564
 Max gradient component =       1.012E-01
 RMS gradient           =       3.871E-02
 Computing fast CPCM-ISWIG gradient
 Updating gradient with PCM contributions...
 -- total gradient after adding PCM contribution --
---------------------------------------------------
  Atom         X              Y              Z     
---------------------------------------------------
   1      -0.000087       0.000915      -0.000106
   2       0.000021      -0.000240      -0.000008
   3      -0.000015       0.000025      -0.000026
   4       0.000010      -0.000063      -0.000065
   5       0.000024      -0.000390       0.000045
   6      -0.000024      -0.000080       0.000046
   7       0.000103      -0.000127       0.000080
   8      -0.000033      -0.000016       0.000017
   9       0.000005      -0.000014       0.000001
  10      -0.000005      -0.000035       0.000017
  11       0.000022       0.000004       0.000004
  12      -0.000004       0.000001      -0.000013
  13       0.000001      -0.000005      -0.000000
  14       0.000003       0.000002      -0.000006
  15      -0.000004       0.000006       0.000003
  16      -0.000004       0.000003      -0.000004
  17      -0.000005       0.000025      -0.000000
  18      -0.000008      -0.000011       0.000017
---------------------------------------------------
 Number of fixed atoms: 0
 Gradient time:  CPU 828.15 s  wall 60.49 s
 ----------------------------------------------------------------
             Standard Nuclear Orientation (Angstroms)
    I     Atom           X                Y                Z
 ----------------------------------------------------------------
    1      C       0.3906255835     0.9889200552    -0.5443045241
    2      C       0.5482869731     1.9945538748     0.6128953714
    3      O       1.1770742293     1.6134612009     1.6315159542
    4      O       0.0606109745     3.1393518659     0.4288743086
    5      C       0.2889589337    -0.4548331092    -0.1061370787
    6      H       1.2835480747     1.0842042424    -1.1754301829
    7      H      -0.4674836287     1.2770045858    -1.1584636313
    8      O      -0.9074627413    -0.6733111398     0.6830894429
    9      H       1.1082229493    -0.7061168600     0.5667975634
   10      H       0.3067409761    -1.1411429284    -0.9543117297
   11      C      -2.0713215897    -1.0244572264     0.1267031254
   12      C      -2.1266105828    -1.3149626216    -1.3496636834
   13      H      -3.1635232265    -1.5009388263    -1.6231906445
   14      H      -1.5270741573    -2.2013719737    -1.5764388077
   15      H      -1.7323359881    -0.4827666409    -1.9363153717
   16      O      -3.0406541591    -1.1175014471     0.8522766768
   17      O       4.0345873556     0.2624024195     0.3889222797
   18      H       3.1889286513     0.5927324955     0.7138024313
 ----------------------------------------------------------------
 Nuclear Repulsion Energy =   522.9803121978 hartrees
 There are       40 alpha and       40 beta electrons
 Discretize the solute cavity surface with Lebedev spheres
	Using 110 Lebedev grid points for each H atom
	Using 110 Lebedev grid points for other atoms
	Atomic van der Waals radii will be scaled by 1.20
 Remove points where switching function is < 1.0e-08
 Keep 1141 surface tesserae and discard 839 interior tesserae
 Molecular Surface Area = 206.524 Angst**2
 Requested basis set is def2-TZVPD
 There are 175 shells and 457 basis functions
 A cutoff of  1.0D-14 yielded  13870 shell pairs
 There are     94718 function pairs (    120459 Cartesian)
 Smallest overlap matrix eigenvalue = 5.05E-06
 Guess MOs from SCF MO coefficient file
 Reading MOs from coefficient file
 Reading MOs from coefficient file
 Long-range K will be added via erf
 Coulomb attenuation parameter = 0.3 bohr**(-1)
 A restricted hybrid HF-DFT SCF calculation will be
 performed using Pulay DIIS extrapolation
 Polarizable Continuum solvation model will be applied
 Exchange:     0.1670 Hartree-Fock + 1.0000 wB97X-V + LR-HF
 Correlation:  1.0000 wB97X-V
 Using SG-2 standard quadrature grid
 Nonlocal Correlation:  VV10 with C = 0.0100 and b = 6.00
 Grid used for NLC:  SG-1 standard quadrature
 SCF converges when DIIS error is below 1.0E-08
Using Q-Chem read-in guess as SCF_GUESS READ specified.

 using 16 threads for integral computing
 -------------------------------------------------------
 OpenMP Integral computing Module                
 Release: version 1.0, May 2013, Q-Chem Inc. Pittsburgh 
 -------------------------------------------------------
 using 16 threads for integral computing
 -------------------------------------------------------
 OpenMP Integral computing Module                
 Release: version 1.0, May 2013, Q-Chem Inc. Pittsburgh 
 -------------------------------------------------------
 -------------------------------------------------------
 OpenMP BLAS3 based DFT computing Module                
 Release: version 1.0, May 2013, Q-Chem Inc. Pittsburgh 
 -------------------------------------------------------
 -------------------------------------------------------
 OpenMP BLAS3 based DFT computing Module                
 Release: version 1.0, May 2013, Q-Chem Inc. Pittsburgh 
 -------------------------------------------------------
 -------------------------------------------------------
 OpenMP BLAS3 based DFT computing Module                
 Release: version 1.0, May 2013, Q-Chem Inc. Pittsburgh 
 -------------------------------------------------------
 ---------------------------------------
  Cycle       Energy         DIIS Error
 ---------------------------------------
    1    -571.4489166639      5.20E-04
    2    -571.7904655790      5.88E-04
    3    -571.8029419779      2.73E-04
    4    -571.8049917312      1.93E-04
    5    -571.8063328715      1.44E-04
    6    -571.8070391582      1.10E-04
    7    -571.8075791340      7.50E-05
    8    -571.8078895812      4.34E-05
    9    -571.8080205802      1.74E-05
   10    -571.8080447242      3.22E-06
   11    -571.8080454710      9.83E-07
   12    -571.8080455447      1.44E-07
   13    -571.8080455461      4.22E-08
   14    -571.8080455462      8.92E-09 Convergence criterion met
 ---------------------------------------

************** Final PCM Free Energy Summary **************
 G_electrostatic  =      -0.35924408 hartree =    -225.42906202 kcal/mol
 G_cavitation     =       0.00000000 hartree =       0.00000000 kcal/mol
 G_dispersion     =       0.00000000 hartree =       0.00000000 kcal/mol
 G_repulsion      =       0.00000000 hartree =       0.00000000 kcal/mol
 --------------------------------------------------
 Non-electrostatic Free Energy =       0.00000000 hartree =       0.00000000 kcal/mol
 Total                         =      -0.35924408 hartree =    -225.42906202 kcal/mol
 --------------------------------------------------
 SCF Energy (H0 + V/2)                       =    -571.80804555 
 Solute Internal Energy (H0)                 =    -571.44880147 
 Total Free Energy (H0 + V/2 + non-elec)     =    -571.80804555 hartree
                                             = -358814.96417424 kcal/mol
***********************************************************

 SCF time:  CPU 3366.19 s  wall 242.66 s
 SCF   energy in the final basis set = -571.80804555
 Total energy in the final basis set = -571.80804555
 
 --------------------------------------------------------------
 
                    Orbital Energies (a.u.)
 --------------------------------------------------------------
 
 Alpha MOs
 -- Occupied --
-19.255 -19.197 -19.143 -19.142 -19.088 -10.406 -10.345 -10.319
-10.272 -10.257  -1.236  -1.150  -1.145  -1.054  -0.960  -0.901
 -0.878  -0.785  -0.682  -0.623  -0.617  -0.598  -0.586  -0.551
 -0.543  -0.532  -0.514  -0.501  -0.499  -0.476  -0.453  -0.445
 -0.442  -0.403  -0.387  -0.350  -0.339  -0.334  -0.309  -0.309
 -- Virtual --
  0.059   0.073   0.079   0.083   0.093   0.102   0.106   0.111
  0.116   0.122   0.130   0.133   0.139   0.142   0.155   0.163
  0.166   0.167   0.174   0.186   0.190   0.199   0.202   0.213
  0.219   0.224   0.231   0.236   0.238   0.244   0.252   0.260
  0.272   0.276   0.282   0.290   0.299   0.303   0.306   0.320
  0.324   0.328   0.331   0.336   0.343   0.348   0.357   0.365
  0.370   0.376   0.382   0.388   0.392   0.399   0.402   0.405
  0.409   0.419   0.424   0.425   0.430   0.435   0.441   0.449
  0.454   0.460   0.463   0.468   0.478   0.479   0.491   0.492
  0.506   0.513   0.515   0.523   0.526   0.528   0.531   0.541
  0.546   0.550   0.561   0.565   0.568   0.573   0.579   0.585
  0.588   0.594   0.601   0.610   0.622   0.629   0.634   0.640
  0.643   0.651   0.655   0.662   0.665   0.668   0.670   0.693
  0.694   0.702   0.706   0.714   0.716   0.719   0.727   0.733
  0.745   0.747   0.750   0.762   0.779   0.781   0.789   0.791
  0.799   0.810   0.812   0.819   0.824   0.833   0.837   0.844
  0.849   0.859   0.869   0.873   0.879   0.889   0.895   0.910
  0.925   0.936   0.941   0.955   0.967   0.974   0.985   1.001
  1.015   1.027   1.037   1.047   1.059   1.060   1.077   1.079
  1.095   1.125   1.130   1.144   1.167   1.177   1.189   1.205
  1.211   1.227   1.238   1.250   1.258   1.280   1.308   1.317
  1.324   1.331   1.338   1.355   1.371   1.378   1.397   1.401
  1.421   1.433   1.444   1.457   1.472   1.508   1.532   1.543
  1.559   1.581   1.633   1.649   1.669   1.721   1.768   1.784
  1.794   1.837   1.868   1.887   1.898   1.902   1.917   1.929
  1.932   1.940   1.947   1.959   1.971   1.983   1.992   2.004
  2.009   2.015   2.043   2.059   2.075   2.081   2.092   2.119
  2.144   2.160   2.180   2.199   2.212   2.232   2.241   2.250
  2.264   2.274   2.306   2.319   2.348   2.349   2.383   2.395
  2.414   2.429   2.462   2.473   2.478   2.508   2.523   2.544
  2.553   2.576   2.586   2.615   2.634   2.642   2.656   2.701
  2.723   2.745   2.755   2.770   2.812   2.821   2.828   2.851
  2.876   2.893   2.901   2.926   2.937   2.966   2.987   2.999
  3.011   3.032   3.054   3.086   3.102   3.130   3.141   3.158
  3.185   3.193   3.205   3.230   3.237   3.270   3.288   3.307
  3.313   3.335   3.347   3.366   3.387   3.400   3.410   3.423
  3.428   3.444   3.464   3.493   3.510   3.524   3.534   3.558
  3.570   3.587   3.591   3.600   3.616   3.636   3.643   3.662
  3.677   3.691   3.699   3.724   3.732   3.743   3.757   3.770
  3.790   3.802   3.834   3.844   3.929   3.938   3.981   4.025
  4.066   4.091   4.117   4.127   4.133   4.162   4.226   4.243
  4.332   4.355   4.376   4.418   4.562   4.584   4.625   4.672
  4.721   4.758   4.777   4.825   4.839   4.882   4.895   5.008
  5.026   5.097   5.171   5.298   5.323   5.341   5.350   5.353
  5.358   5.367   5.377   5.378   5.385   5.399   5.510   5.522
  5.614   5.676   5.682   5.715   5.717   5.728   5.776   5.980
  6.020   6.075   6.086   6.253   6.267   6.304   6.322   6.345
  6.449   6.500   6.604   6.625   6.633   6.634   6.646   6.657
  6.697   6.722   6.728   6.733   6.775   6.798   6.813   6.955
  6.968   6.993   7.002   7.063   7.072   7.109   7.231   7.247
  7.303   7.340   7.376   7.408   7.422   7.483   7.664  22.693
 22.822  22.842  23.614  23.769  44.025  44.334  44.431  44.477
 44.631
 --------------------------------------------------------------
 
          Ground-State Mulliken Net Atomic Charges

     Atom                 Charge (a.u.)
  ----------------------------------------
      1 C                     0.088970
      2 C                     0.154683
      3 O                    -0.690098
      4 O                    -0.721622
      5 C                    -0.330951
      6 H                     0.275340
      7 H                     0.072211
      8 O                    -0.332407
      9 H                     0.174876
     10 H                     0.247128
     11 C                     0.561459
     12 C                    -0.687309
     13 H                     0.209084
     14 H                     0.297529
     15 H                     0.258069
     16 O                    -0.543269
     17 O                    -1.121593
     18 H                     0.087901
  ----------------------------------------
  Sum of atomic charges =    -2.000000

 -----------------------------------------------------------------
                    Cartesian Multipole Moments
 -----------------------------------------------------------------
    Charge (ESU x 10^10)
                -9.6064
    Dipole Moment (Debye)
         X     -19.2745      Y     -12.7529      Z     -12.2809
       Tot      26.1718
    Quadrupole Moments (Debye-Ang)
        XX    -169.9892     XY     -12.8447     YY    -100.7125
        XZ      -3.4849     YZ      -7.2516     ZZ     -76.2376
    Octopole Moments (Debye-Ang^2)
       XXX    -332.0164    XXY     -33.9182    XYY     -11.6680
       YYY    -187.6434    XXZ     -83.5943    XYZ     -22.5016
       YYZ     -47.9808    XZZ     -16.2935    YZZ     -39.7226
       ZZZ     -68.4824
    Hexadecapole Moments (Debye-Ang^3)
      XXXX   -3433.0237   XXXY    -425.0313   XXYY    -486.1368
      XYYY    -273.6941   YYYY   -1294.7104   XXXZ    -167.6073
      XXYZ     -21.6144   XYYZ     -36.0756   YYYZ    -165.1123
      XXZZ    -399.1351   XYZZ    -109.2570   YYZZ    -251.6864
      XZZZ    -101.7691   YZZZ    -130.0731   ZZZZ    -407.4778
 -----------------------------------------------------------------
 Calculating analytic gradient of the SCF energy
 Gradient of SCF Energy
            1           2           3           4           5           6
    1  -0.0206237   0.0235497  -0.0326329   0.0263457   0.0646531  -0.0403139
    2   0.0248568   0.0140104   0.0159818  -0.0563750  -0.0184886  -0.0148394
    3  -0.0797823   0.0525437  -0.0538136   0.0022625   0.0145011   0.0296143
            7           8           9          10          11          12
    1   0.0350669  -0.0156332  -0.0531209  -0.0057705  -0.0254457  -0.0094731
    2  -0.0109066  -0.0117356  -0.0116603   0.0565865   0.0086281  -0.0125985
    3   0.0389772  -0.0138705  -0.0532993   0.0480670   0.0559756  -0.0543936
           13          14          15          16          17          18
    1   0.0534133  -0.0295233  -0.0230504   0.0444415  -0.0930685   0.1011860
    2   0.0118775   0.0333471  -0.0347622   0.0047105   0.0313306  -0.0299630
    3   0.0160411   0.0073663   0.0263086  -0.0339908   0.0184405  -0.0209478
 Max gradient component =       1.012E-01
 RMS gradient           =       3.867E-02
 Computing fast CPCM-ISWIG gradient
 Updating gradient with PCM contributions...
 -- total gradient after adding PCM contribution --
---------------------------------------------------
  Atom         X              Y              Z     
---------------------------------------------------
   1       0.000026      -0.000964       0.000036
   2       0.000061       0.000170       0.000125
   3      -0.000029      -0.000010      -0.000031
[...]
 H          0.002  0.011  0.114   -0.142 -0.102 -0.223   -0.220 -0.159 -0.281
 H         -0.001  0.019  0.081   -0.158 -0.027 -0.243   -0.244 -0.055 -0.405
 O          0.086  0.017 -0.025   -0.027 -0.005  0.027   -0.065 -0.005  0.047
 O         -0.000 -0.000 -0.000   -0.000  0.000  0.000   -0.000 -0.000 -0.000
 H          0.005  0.004  0.009   -0.001 -0.001 -0.001    0.001  0.001  0.001
 TransDip  -0.057  0.005 -0.016    0.168 -0.012  0.055    0.107  0.111  0.069

 Mode:                25                     26                     27
 Frequency:      1062.61                1074.22                1119.68
 Force Cnst:      1.3489                 1.6538                 2.7760
 Red. Mass:       2.0276                 2.4324                 3.7582
 IR Active:          YES                    YES                    YES
 IR Intens:       39.426                 85.078                106.769
 Raman Active:       YES                    YES                    YES
               X      Y      Z        X      Y      Z        X      Y      Z
 C          0.063 -0.038  0.023    0.126 -0.072  0.066   -0.069  0.166 -0.115
 C         -0.047 -0.016  0.021   -0.080 -0.029  0.033    0.023 -0.002 -0.019
 O          0.002  0.002 -0.019   -0.003  0.005 -0.043    0.011 -0.002  0.030
 O          0.005  0.017 -0.001    0.008  0.031  0.000    0.002 -0.028 -0.008
 C         -0.081  0.020  0.000   -0.155  0.032 -0.026   -0.109 -0.135  0.261
 H         -0.053 -0.128 -0.145   -0.090 -0.234 -0.245    0.084  0.406  0.136
 H         -0.033  0.074  0.205   -0.060  0.169  0.433    0.013  0.166 -0.236
 O          0.088 -0.013 -0.015    0.142  0.039 -0.032    0.203  0.026 -0.145
 H         -0.063  0.138  0.027   -0.124  0.350  0.065    0.006 -0.538 -0.018
 H          0.037 -0.049  0.056    0.121 -0.136  0.116   -0.396 -0.056  0.182
 C         -0.039  0.188 -0.002    0.034 -0.103  0.082   -0.000  0.004  0.077
 C          0.006 -0.159  0.013   -0.061  0.075 -0.061   -0.001  0.002 -0.038
 H         -0.038  0.332 -0.156    0.039 -0.260 -0.214    0.017 -0.045 -0.083
 H          0.035  0.033 -0.578    0.055  0.031  0.350   -0.004 -0.004 -0.041
 H         -0.037  0.233  0.513    0.117 -0.158 -0.264    0.013 -0.035 -0.084
 O         -0.012 -0.043 -0.002   -0.049  0.013 -0.010   -0.082 -0.016  0.008
 O         -0.000  0.000 -0.000   -0.000 -0.000 -0.000    0.000 -0.000 -0.000
 H          0.001  0.000  0.002    0.001 -0.000  0.003    0.003  0.005  0.004
 TransDip  -0.165  0.063  0.097   -0.188 -0.147  0.174   -0.287 -0.094  0.135

 Mode:                28                     29                     30
 Frequency:      1226.90                1258.06                1323.80
 Force Cnst:      1.1561                 1.6172                 1.7099
 Red. Mass:       1.3035                 1.7343                 1.6560
 IR Active:          YES                    YES                    YES
 IR Intens:       44.053                217.582                416.594
 Raman Active:       YES                    YES                    YES
               X      Y      Z        X      Y      Z        X      Y      Z
 C         -0.011  0.031 -0.014    0.024 -0.113  0.010   -0.004  0.065  0.004
 C         -0.046 -0.031  0.021    0.041  0.009 -0.027   -0.012 -0.014 -0.017
 O          0.003  0.004 -0.012   -0.002 -0.007  0.010    0.011 -0.004  0.018
 O          0.002  0.018 -0.006   -0.014  0.018  0.004    0.000 -0.000 -0.003
 C          0.068 -0.049  0.054   -0.053  0.054  0.017   -0.059 -0.075 -0.010
 H         -0.012 -0.519 -0.103    0.079  0.571  0.198   -0.077 -0.092 -0.130
 H          0.050  0.615  0.178   -0.046 -0.191  0.076    0.043 -0.138 -0.171
 O         -0.002  0.016 -0.005    0.066  0.011  0.007    0.089  0.044  0.071
 H          0.372  0.051 -0.261    0.300  0.333 -0.298   -0.259 -0.108  0.219
 H         -0.108 -0.019  0.024   -0.219 -0.142  0.178    0.590  0.319 -0.340
 C         -0.062 -0.022 -0.071   -0.126 -0.050 -0.123   -0.107 -0.044 -0.095
 C          0.034  0.010  0.011    0.052  0.015  0.021    0.028 -0.000 -0.021
 H         -0.017  0.006  0.207   -0.023  0.037  0.288   -0.065  0.080  0.271
 H         -0.063 -0.063  0.050   -0.086 -0.092  0.097   -0.023 -0.084  0.203
 H         -0.054  0.051  0.015   -0.097  0.094  0.048   -0.078  0.139  0.119
 O         -0.001  0.001  0.016    0.002  0.004  0.017    0.008  0.003  0.007
 O          0.000  0.000 -0.000    0.000  0.000  0.000   -0.000 -0.000 -0.000
 H         -0.001 -0.003 -0.001   -0.002 -0.002 -0.003    0.002  0.004  0.004
 TransDip  -0.109 -0.178 -0.040   -0.448 -0.134 -0.064   -0.585 -0.247 -0.155

 Mode:                31                     32                     33
 Frequency:      1346.79                1398.89                1420.68
 Force Cnst:      1.7948                 1.5402                 1.8209
 Red. Mass:       1.6794                 1.3358                 1.5313
 IR Active:          YES                    YES                    YES
 IR Intens:       43.981                111.431                 75.982
 Raman Active:       YES                    YES                    YES
               X      Y      Z        X      Y      Z        X      Y      Z
 C         -0.019 -0.144 -0.072   -0.022 -0.042 -0.014    0.032  0.033  0.015
 C          0.008 -0.081 -0.072    0.012  0.018  0.031   -0.013  0.001 -0.022
 O          0.029 -0.014  0.053   -0.012  0.004 -0.020    0.009 -0.003  0.015
 O         -0.036  0.091 -0.003    0.003 -0.009  0.001    0.002 -0.004  0.000
 C          0.007  0.010  0.036    0.034  0.077 -0.027   -0.032 -0.101  0.047
 H          0.114  0.376  0.201    0.032 -0.023  0.068   -0.066  0.114 -0.115
 H          0.004  0.583  0.244   -0.010  0.146  0.062    0.046 -0.168 -0.105
 O         -0.021 -0.002  0.005    0.005 -0.010 -0.007   -0.062 -0.008 -0.031
 H         -0.099 -0.082  0.120   -0.220 -0.341  0.123    0.358  0.567 -0.179
 H          0.208  0.426 -0.297   -0.118 -0.196  0.193   -0.049  0.276 -0.246
 C          0.030  0.012  0.037    0.033  0.007  0.021    0.079  0.031  0.082
 C         -0.012 -0.005 -0.008   -0.001 -0.027 -0.121   -0.016 -0.030 -0.094
 H         -0.005  0.011 -0.046   -0.127  0.069  0.297   -0.101  0.124  0.133
 H          0.028  0.024 -0.025    0.061 -0.141  0.511    0.135 -0.035  0.334
 H          0.018 -0.030 -0.030   -0.025  0.343  0.397   -0.004  0.189  0.224
 O          0.001 -0.001 -0.006   -0.012 -0.001  0.003   -0.006 -0.003 -0.007
 O          0.000 -0.000  0.000   -0.000 -0.000 -0.000    0.000  0.000  0.000
 H         -0.001 -0.000 -0.002    0.002  0.003  0.002   -0.003 -0.006 -0.004
 TransDip   0.082 -0.182 -0.072    0.191  0.140  0.242    0.201  0.158  0.113

 Mode:                34                     35                     36
 Frequency:      1441.46                1447.05                1455.34
 Force Cnst:      2.3184                 2.0135                 1.3687
 Red. Mass:       1.8938                 1.6320                 1.0968
 IR Active:          YES                    YES                    YES
 IR Intens:      199.568                 88.216                 50.816
 Raman Active:       YES                    YES                    YES
               X      Y      Z        X      Y      Z        X      Y      Z
 C         -0.000 -0.017 -0.115   -0.011 -0.108  0.020    0.002  0.012  0.014
 C          0.031  0.128  0.143    0.015  0.108  0.119   -0.004 -0.030 -0.031
 O         -0.050  0.017 -0.087   -0.038  0.013 -0.070    0.010 -0.004  0.018
 O          0.032 -0.090  0.001    0.026 -0.074  0.002   -0.007  0.020 -0.000
 C         -0.026 -0.033  0.024   -0.003  0.011  0.029   -0.011  0.019 -0.003
 H          0.390 -0.080  0.439   -0.347  0.322 -0.406   -0.013 -0.015 -0.010
 H         -0.410 -0.068  0.443    0.424  0.372 -0.394    0.005 -0.046 -0.017
 O         -0.004  0.007  0.007    0.002  0.002 -0.001   -0.004 -0.000 -0.000
 H          0.074  0.045 -0.063    0.030 -0.035 -0.027    0.061 -0.116 -0.137
 H          0.227  0.218 -0.188    0.080  0.146 -0.079    0.126 -0.110  0.099
 C         -0.000 -0.001 -0.001   -0.001  0.001 -0.006    0.004 -0.000 -0.017
 C         -0.010 -0.008 -0.001   -0.009  0.006  0.005   -0.047 -0.014 -0.026
 H         -0.045  0.098  0.069   -0.009 -0.073  0.067   -0.181  0.108  0.451
 H          0.138  0.100 -0.027    0.020  0.051 -0.108    0.459  0.352 -0.137
 H          0.063 -0.079 -0.056    0.132 -0.077 -0.019    0.492 -0.267 -0.034
 O         -0.001 -0.000  0.002   -0.004 -0.001  0.004   -0.016 -0.001  0.016
 O         -0.000 -0.000 -0.000   -0.000  0.000 -0.000    0.000  0.000  0.000
 H          0.001  0.000  0.001    0.002  0.000  0.005   -0.000  0.000 -0.000
 TransDip   0.058  0.240  0.379    0.045  0.266  0.134    0.179 -0.074 -0.121

 Mode:                37                     38                     39
 Frequency:      1474.05                1508.45                1604.67
 Force Cnst:      1.3430                 1.5034                15.4211
 Red. Mass:       1.0491                 1.1214                10.1648
 IR Active:          YES                    YES                    YES
 IR Intens:       11.119                 29.527               1275.917
 Raman Active:       YES                    YES                    YES
               X      Y      Z        X      Y      Z        X      Y      Z
 C         -0.002 -0.008  0.008    0.006  0.002  0.001    0.023 -0.064  0.016
 C          0.001 -0.001  0.005    0.002 -0.010 -0.006   -0.388  0.516 -0.420
 O         -0.002  0.001 -0.003    0.002 -0.001  0.003    0.150 -0.103  0.237
 O         -0.000  0.001 -0.000   -0.002  0.006 -0.000    0.116 -0.257  0.054
 C         -0.001  0.012  0.000   -0.058  0.037  0.023    0.008  0.015 -0.019
 H         -0.046  0.019 -0.051   -0.010  0.043 -0.010    0.039 -0.020  0.056
 H          0.057  0.055 -0.044    0.001 -0.047 -0.015   -0.054  0.343  0.276
 O          0.001  0.004 -0.001   -0.037 -0.003 -0.006    0.003  0.002  0.005
 H          0.017 -0.074 -0.051    0.279 -0.319 -0.504   -0.042 -0.100 -0.016
 H          0.041 -0.061  0.062    0.645 -0.159  0.169    0.055 -0.090  0.058
 C         -0.000 -0.027 -0.001    0.023  0.016  0.042    0.001 -0.002 -0.010
 C          0.011 -0.044  0.025    0.006  0.005 -0.008    0.001 -0.000  0.004
 H         -0.056  0.658 -0.203    0.047 -0.101 -0.110    0.002  0.014 -0.010
 H          0.338  0.138  0.234   -0.164 -0.114  0.014    0.003  0.003  0.000
 H         -0.439 -0.060 -0.323   -0.088  0.085  0.047   -0.018 -0.007 -0.019
 O          0.000  0.003 -0.000    0.008 -0.001 -0.011   -0.003 -0.000  0.003
 O         -0.000 -0.000 -0.000    0.000  0.000 -0.000    0.001 -0.000 -0.000
 H          0.000  0.000  0.001    0.001  0.001  0.001   -0.007  0.002  0.006
 TransDip  -0.033  0.090 -0.048    0.102 -0.124  0.067   -0.575  0.788 -0.599

 Mode:                40                     41                     42
 Frequency:      1760.94                3063.63                3079.48
 Force Cnst:     20.1034                 5.8826                 5.8033
 Red. Mass:      11.0034                 1.0638                 1.0387
 IR Active:          YES                    YES                    YES
 IR Intens:      734.739                 12.951                  0.210
 Raman Active:       YES                    YES                    YES
               X      Y      Z        X      Y      Z        X      Y      Z
 C          0.009  0.003 -0.003   -0.026 -0.017  0.064    0.003 -0.000 -0.000
 C          0.003 -0.012 -0.004   -0.000 -0.002 -0.000    0.000 -0.000 -0.000
 O          0.001  0.002  0.002   -0.000  0.000 -0.000    0.000  0.000  0.000
 O         -0.002  0.006  0.000   -0.000  0.000 -0.000   -0.000  0.000 -0.000
 C         -0.047 -0.014  0.004    0.001 -0.003 -0.004   -0.001  0.004  0.003
 H          0.003  0.047  0.005    0.712  0.075 -0.494   -0.023 -0.002  0.016
 H         -0.012 -0.036  0.005   -0.386  0.124 -0.259   -0.014  0.006 -0.011
 O          0.007  0.008  0.045    0.000 -0.000 -0.000   -0.000 -0.000 -0.000
 H         -0.008  0.009 -0.055   -0.013  0.003 -0.012    0.018 -0.004  0.016
 H          0.124  0.043 -0.036    0.000  0.046  0.063   -0.001 -0.038 -0.048
 C          0.555  0.037 -0.522    0.000  0.000  0.000    0.001  0.000  0.002
 C         -0.025  0.007  0.079    0.000  0.001 -0.001    0.014 -0.019 -0.047
 H          0.105 -0.047 -0.277    0.009  0.002  0.002    0.409  0.070  0.102
 H         -0.111 -0.063  0.096   -0.005  0.007  0.001   -0.391  0.580  0.145
 H         -0.113  0.083  0.123   -0.008 -0.016  0.011   -0.195 -0.422  0.287
 O         -0.377 -0.034  0.296   -0.000 -0.000  0.000   -0.000 -0.000  0.000
 O          0.000  0.000  0.000   -0.000  0.000 -0.000   -0.000  0.000 -0.000
 H         -0.001 -0.001 -0.002    0.000 -0.000  0.000    0.000 -0.000 -0.000
 TransDip   0.718  0.084 -0.481   -0.012 -0.052  0.102    0.008  0.012  0.001

 Mode:                43                     44                     45
 Frequency:      3114.71                3121.12                3154.09
 Force Cnst:      6.1639                 6.2031                 6.4442
 Red. Mass:       1.0784                 1.0808                 1.0994
 IR Active:          YES                    YES                    YES
 IR Intens:       18.062                 43.703                  2.547
 Raman Active:       YES                    YES                    YES
               X      Y      Z        X      Y      Z        X      Y      Z
 C         -0.060  0.012 -0.016    0.062 -0.009  0.009    0.004 -0.001  0.002
 C         -0.001  0.002  0.001    0.001 -0.001  0.000    0.000 -0.000 -0.000
 O          0.000  0.000 -0.000   -0.000  0.000 -0.000   -0.000  0.000 -0.000
 O          0.000 -0.001  0.000   -0.000  0.000 -0.000   -0.000  0.000 -0.000
 C          0.029 -0.038 -0.008    0.024 -0.040 -0.021   -0.000 -0.000 -0.001
 H          0.229  0.023 -0.171   -0.301 -0.038  0.222   -0.013 -0.002  0.010
 H          0.498 -0.166  0.357   -0.455  0.154 -0.326   -0.042  0.013 -0.030
 O          0.001  0.001 -0.000    0.001  0.000 -0.000    0.000 -0.000 -0.000
 H         -0.358  0.103 -0.303   -0.271  0.080 -0.232    0.002 -0.000  0.002
 H          0.007  0.326  0.407    0.005  0.384  0.481   -0.001  0.006  0.007
 C         -0.001 -0.000 -0.000   -0.001 -0.000 -0.000    0.000 -0.001 -0.001
 C         -0.001 -0.005 -0.002   -0.001  0.003 -0.002    0.022 -0.085  0.025
 H          0.039  0.006  0.012    0.020  0.004  0.007   -0.172 -0.045 -0.042
 H         -0.039  0.052  0.013    0.004 -0.009 -0.004   -0.363  0.522  0.144
 H          0.000 -0.002  0.000   -0.016 -0.032  0.022    0.274  0.549 -0.393
 O          0.000  0.000 -0.000    0.000  0.000 -0.000   -0.000 -0.000  0.000
 O          0.000 -0.000 -0.000    0.000  0.000  0.000    0.000  0.000  0.000
 H         -0.001  0.000  0.000   -0.000 -0.000 -0.000    0.000 -0.000 -0.000
 TransDip  -0.032 -0.080 -0.105    0.185 -0.102 -0.015    0.022 -0.034  0.031

 Mode:                46                     47                     48
 Frequency:      3174.33                3191.82                3820.75
 Force Cnst:      6.5751                 6.6291                 9.1775
 Red. Mass:       1.1075                 1.1044                 1.0670
 IR Active:          YES                    YES                    YES
 IR Intens:       16.168                  6.034                 18.096
 Raman Active:       YES                    YES                    YES
               X      Y      Z        X      Y      Z        X      Y      Z
 C         -0.009  0.002 -0.005    0.002 -0.000  0.001   -0.000  0.000 -0.000
 C         -0.000  0.001 -0.001    0.000 -0.000  0.000   -0.000  0.000 -0.001
 O          0.000 -0.001  0.000   -0.000  0.000 -0.000    0.000 -0.000  0.000
 O          0.000 -0.000  0.000   -0.000 -0.000 -0.000    0.000 -0.000  0.000
 C         -0.050 -0.015 -0.079    0.004  0.002  0.007   -0.000 -0.000  0.000
 H          0.017  0.003 -0.011   -0.004 -0.001  0.003   -0.000  0.000  0.000
 H          0.084 -0.032  0.059   -0.018  0.006 -0.013    0.000  0.000  0.000
 O          0.000 -0.000  0.001    0.000  0.000  0.000    0.000  0.000  0.000
 H          0.594 -0.190  0.498   -0.045  0.014 -0.038   -0.001 -0.000 -0.000
 H          0.002  0.367  0.445    0.001 -0.043 -0.052    0.000  0.000  0.000
 C          0.000  0.000 -0.000   -0.002 -0.000  0.001   -0.000 -0.000 -0.000
 C         -0.008 -0.002 -0.001   -0.090 -0.024  0.002    0.000  0.000  0.000
 H          0.086  0.015  0.024    0.840  0.149  0.220    0.000 -0.000 -0.000
 H         -0.001 -0.005 -0.002    0.103 -0.175 -0.042    0.000 -0.000 -0.000
 H          0.008  0.018 -0.013    0.137  0.311 -0.218    0.000 -0.000 -0.000
 O          0.000  0.000  0.000    0.001  0.000 -0.000    0.000  0.000 -0.000
 O         -0.000 -0.000 -0.000    0.000  0.000 -0.000   -0.055  0.022  0.021
 H          0.001  0.000  0.000   -0.000 -0.000 -0.000    0.876 -0.341 -0.335
 TransDip  -0.080 -0.025 -0.098   -0.073 -0.027 -0.014    0.121 -0.056 -0.029

 STANDARD THERMODYNAMIC QUANTITIES AT   298.15 K  AND     1.00 ATM

   This Molecule has  0 Imaginary Frequencies
   Zero point vibrational energy:       82.988 kcal/mol

   Atom    1 Element C  Has Mass   12.00000
   Atom    2 Element C  Has Mass   12.00000
   Atom    3 Element O  Has Mass   15.99491
   Atom    4 Element O  Has Mass   15.99491
   Atom    5 Element C  Has Mass   12.00000
   Atom    6 Element H  Has Mass    1.00783
   Atom    7 Element H  Has Mass    1.00783
   Atom    8 Element O  Has Mass   15.99491
   Atom    9 Element H  Has Mass    1.00783
   Atom   10 Element H  Has Mass    1.00783
   Atom   11 Element C  Has Mass   12.00000
   Atom   12 Element C  Has Mass   12.00000
   Atom   13 Element H  Has Mass    1.00783
   Atom   14 Element H  Has Mass    1.00783
   Atom   15 Element H  Has Mass    1.00783
   Atom   16 Element O  Has Mass   15.99491
   Atom   17 Element O  Has Mass   15.99491
   Atom   18 Element H  Has Mass    1.00783
   Molecular Mass:   148.037190 amu
   Principal axes and moments of inertia in amu*Bohr^2:
                             1           2           3
    Eigenvalues --     1053.83222  2813.02850  3276.53172
          X               0.86745    -0.49752     0.00046
          Y               0.48102     0.83845    -0.25616
          Z               0.12706     0.22243     0.96663
   Rotational Symmetry Number is   1
   The Molecule is an Asymmetric Top
   Translational Enthalpy:        0.889 kcal/mol
   Rotational Enthalpy:           0.889 kcal/mol
   Vibrational Enthalpy:         89.044 kcal/mol
   gas constant (RT):             0.592 kcal/mol
   Translational Entropy:        40.887  cal/mol.K
   Rotational Entropy:           30.652  cal/mol.K
   Vibrational Entropy:          44.211  cal/mol.K

   Total Enthalpy:               91.413 kcal/mol
   Total Entropy:               115.750  cal/mol.K
Archival summary:
1\1\c4-80\FREQ\ProcedureUnspecified\BasisUnspecified\558(2-,1)\leeping\SatMar2115:31:462020SatMar2115:31:462020\0\\#,FREQ,ProcedureUnspecified,BasisUnspecified,\\-2,1\O\C,1,1.33695\O,2,1.21438,1,117.797\C,1,1.44984,2,122.101,3,-176.14,0\H,4,1.08958,1,104.45,2,-151.137,0\H,4,1.09121,1,109.986,2,-34.4973,0\C,2,1.50569,1,119.386,3,-178.71,0\H,7,1.08839,2,108.323,1,-175.465,0\H,7,1.09186,2,111.501,1,-54.4991,0\H,7,1.09389,2,109.846,1,65.1363,0\C,4,1.51316,1,110.913,2,89.9324,0\H,11,1.0936,4,111.134,1,-60.3562,0\H,11,1.09751,4,107.65,1,-177.262,0\C,11,1.54054,4,114.331,1,63.9906,0\O,14,1.25626,11,117.547,4,32.5016,0\O,14,1.25788,11,116.355,4,-149.345,0\H,15,2.4355,14,103.596,11,47.6521,0\O,17,0.964263,15,174.256,14,111.594,0\\\@

 Total job time:  50245.38s(wall), 518398.16s(cpu) 
 Sat Mar 21 15:31:46 2020

        *************************************************************
        *                                                           *
        *  Thank you very much for using Q-Chem.  Have a nice day.  *
        *                                                           *
        *************************************************************


