18   
From 1-reactant-freq.out: Frame 1 / 109, Energy=    -571.8080464782
C        0.3906255835    0.9899200552   -0.5443045241
C        0.5482869731    1.9945538748    0.6128953714
O        1.1770742293    1.6134612009    1.6315159542
O        0.0606109745    3.1393518659    0.4288743086
C        0.2889589337   -0.4548331092   -0.1061370787
H        1.2835480747    1.0842042424   -1.1754301829
H       -0.4674836287    1.2770045858   -1.1584636313
O       -0.9074627413   -0.6733111398    0.6830894429
H        1.1082229493   -0.7061168600    0.5667975634
H        0.3067409761   -1.1411429284   -0.9543117297
C       -2.0713215897   -1.0244572264    0.1267031254
C       -2.1266105828   -1.3149626216   -1.3496636834
H       -3.1635232265   -1.5009388263   -1.6231906445
H       -1.5270741573   -2.2013719737   -1.5764388077
H       -1.7323359881   -0.4827666409   -1.9363153717
O       -3.0406541591   -1.1175014471    0.8522766768
O        4.0345873556    0.2624024195    0.3889222797
H        3.1889286513    0.5927324955    0.7138024313
