19   
From 1-reactant-freq.out: Frame 1 / 115, Energy=    -646.9622423278
C       -0.4350709012   -0.0419873244   -1.7678488720
C       -1.4791253161    0.3376385993   -2.8266134729
O       -2.1181591909   -0.6032154502   -3.3688119869
O       -1.6508406212    1.5649942768   -3.0528833528
C       -1.1054672309   -0.1329567606   -0.3951085884
H        0.3563497815    0.7107848510   -1.7357845681
H        0.0023254825   -1.0147784406   -2.0170776304
O       -0.2259819677   -0.5893008152    0.6240019180
H       -1.9257496639   -0.8583283083   -0.4394685029
H       -1.5163550344    0.8395487810   -0.1073337790
C        0.4733360558    0.4479514030    1.3982011497
C        0.9487305351   -0.2822927871    2.6551244956
H        1.6054412618    0.3836308008    3.2208421802
H        1.4865281796   -1.2041298577    2.4227080901
H        0.0764180816   -0.5250926384    3.2677911932
O       -0.1558612775    1.5561248383    1.5666778353
O        1.6789375923    0.7768818717    0.5576660761
O        2.3633210604   -0.4177299567    0.1588671874
H        1.6158126019   -0.9632915330   -0.1473598516
