
Running Job 1 of 1 qc-freq2.in
qchem qc-freq2.in_22867.0 /scratch/leeping/1862937/qc-freq2.d/ 1
/home/leeping/opt/qchem/5.0.2-openmp/exe/qcprog.exe_s qc-freq2.in_22867.0 /scratch/leeping/1862937/qc-freq2.d/
Check license passed

                  Welcome to Q-Chem
     A Quantum Leap Into The Future Of Chemistry


 Q-Chem 5.0, Q-Chem, Inc., Pleasanton, CA (2017)

 Yihan Shao,  Zhengting Gan,  E. Epifanovsky,  A. T. B. Gilbert,  M. Wormit,  
 J. Kussmann,  A. W. Lange,  A. Behn,  Jia Deng,  Xintian Feng,  D. Ghosh,  
 M. Goldey,  P. R. Horn,  L. D. Jacobson,  I. Kaliman,  T. Kus,  A. Landau,  
 Jie Liu,  E. I. Proynov,  R. M. Richard,  R. P. Steele,  E. J. Sundstrom,  
 H. L. Woodcock III,  P. M. Zimmerman,  D. Zuev,  B. Albrecht,  E. Alguire,  
 S. A. Baeppler,  D. Barton,  Z. Benda,  Y. A. Bernard,  E. J. Berquist,  
 K. B. Bravaya,  H. Burton,  D. Casanova,  Chun-Min Chang,  Yunqing Chen,  
 A. Chien,  K. D. Closser,  M. P. Coons,  S. Dasgupta,  A. L. Dempwolff,  
 M. Diedenhofen,  Hainam Do,  R. G. Edgar,  Po-Tung Fang,  S. Fatehi,  
 Qingguo Feng,  J. Fosso-Tande,  Qinghui Ge,  A. Ghysels,  G. Gidofalvi,  
 J. Gomes,  J. Gonthier,  A. Gunina,  M. W. D. Hanson-Heine,  
 P. H. P. Harbach,  A. W. Hauser,  J. E. Herr,  E. G. Hohenstein,  
 Z. C. Holden,  Kerwin Hui,  T.-C. Jagau,  Hyunjun Ji,  B. Kaduk,  
 K. Khistyaev,  Jaehoon Kim,  P. Klunzinger,  K. Koh,  D. Kosenkov,  
 L. Koulias,  T. Kowalczyk,  C. M. Krauter,  A. Kunitsa,  Ka Un Lao,  
 A. Laurent,  K. V. Lawler,  Joonho Lee,  D. Lefrancois,  S. Lehtola,  
 D. S. Levine,  Yi-Pei Li,  You-Sheng Lin,  Fenglai Liu,  E. Livshits,  
 A. Luenser,  P. Manohar,  E. Mansoor,  S. F. Manzer,  Shan-Ping Mao,  
 Yuezhi Mao,  N. Mardirossian,  A. V. Marenich,  T. Markovich,  
 L. A. Martinez-Martinez,  S. A. Maurer,  N. J. Mayhall,  S. C. McKenzie,  
 J.-M. Mewes,  A. F. Morrison,  J. W. Mullinax,  K. Nanda,  
 T. S. Nguyen-Beck,  R. Olivares-Amaya,  J. A. Parkhill,  T. M. Perrine,  
 F. Plasser,  S. Prager,  A. Prociuk,  E. Ramos,  D. R. Rehn,  F. Rob,  
 M. Schneider,  N. Sergueev,  S. M. Sharada,  S. Sharma,  D. W. Small,  
 T. Stauch,  T. Stein,  Yu-Chuan Su,  A. J. W. Thom,  A. Tkatchenko,  
 T. Tsuchimochi,  L. Vogt,  O. Vydrov,  M. A. Watson,  J. Wenzel,  
 M. de Wergifosse,  T. A. Wesolowski,  A. White,  J. Witte,  A. Yamada,  
 Jun Yang,  K. Yao,  S. Yeganeh,  S. R. Yost,  Zhi-Qiang You,  A. Zech,  
 Igor Ying Zhang,  Xing Zhang,  Yan Zhao,  Ying Zhu,  B. R. Brooks,  
 G. K. L. Chan,  C. J. Cramer,  M. S. Gordon,  W. J. Hehre,  A. Klamt,  
 M. W. Schmidt,  C. D. Sherrill,  D. G. Truhlar,  A. Aspuru-Guzik,  R. Baer,  
 A. T. Bell,  N. A. Besley,  Jeng-Da Chai,  R. A. DiStasio Jr.,  A. Dreuw,  
 B. D. Dunietz,  T. R. Furlani,  Chao-Ping Hsu,  Yousung Jung,  Jing Kong,  
 D. S. Lambrecht,  WanZhen Liang,  C. Ochsenfeld,  V. A. Rassolov,  
 L. V. Slipchenko,  J. E. Subotnik,  T. Van Voorhis,  J. M. Herbert,  
 A. I. Krylov,  P. M. W. Gill,  M. Head-Gordon

 Contributors to earlier versions of Q-Chem not listed above: 
 R. D. Adamson,  B. Austin,  J. Baker,  G. J. O. Beran,  K. Brandhorst,  
 S. T. Brown,  E. F. C. Byrd,  A. K. Chakraborty,  C.-L. Cheng,  
 Siu Hung Chien,  D. M. Chipman,  D. L. Crittenden,  H. Dachsel,  
 R. J. Doerksen,  A. D. Dutoi,  L. Fusti-Molnar,  W. A. Goddard III,  
 A. Golubeva-Zadorozhnaya,  S. R. Gwaltney,  G. Hawkins,  A. Heyden,  
 S. Hirata,  G. Kedziora,  F. J. Keil,  C. Kelley,  Jihan Kim,  R. A. King,  
 R. Z. Khaliullin,  P. P. Korambath,  W. Kurlancheek,  A. M. Lee,  M. S. Lee,  
 S. V. Levchenko,  Ching Yeh Lin,  D. Liotard,  R. C. Lochan,  I. Lotan,  
 P. E. Maslen,  N. Nair,  D. P. O'Neill,  D. Neuhauser,  E. Neuscamman,  
 C. M. Oana,  R. Olson,  B. Peters,  R. Peverati,  P. A. Pieniazek,  
 Y. M. Rhee,  J. Ritchie,  M. A. Rohrdanz,  E. Rosta,  N. J. Russ,  
 H. F. Schaefer III,  N. E. Schultz,  N. Shenvi,  A. C. Simmonett,  A. Sodt,  
 D. Stuck,  K. S. Thanthiriwatte,  V. Vanovschi,  Tao Wang,  A. Warshel,  
 C. F. Williams,  Q. Wu,  X. Xu,  W. Zhang

 Please cite Q-Chem as follows:
 Y. Shao et al., Mol. Phys. 113, 184-215 (2015)
 DOI: 10.1080/00268976.2014.952696

 Q-Chem 5.0.2 for Intel X86 EM64T Linux

 Parts of Q-Chem use Armadillo 5.200.1 (Boston Tea Smuggler).
 http://arma.sourceforge.net/

 Q-Chem begins on Sat Mar 21 00:29:50 2020  

Host: 
0

     Scratch files written to /scratch/leeping/1862937/qc-freq2.d//
 Dec517 15110_ 26548  26544 5633   
Processing $rem in /home/leeping/opt/qchem/5.0.2-openmp/config/preferences.
 MEM_STATIC 2000
 MEM_TOTAL  8000
 SYMMETRY   OFF
 SYM_IGNORE TRUE 
Symmetry turned off for PCM/SM12/SMD calculation

Checking the input file for inconsistencies... 	...done.

--------------------------------------------------------------
User input:
--------------------------------------------------------------
$molecule
-2 1
C       -0.4026642934   -0.2877547841   -1.9704569266
C       -1.5485832261    0.6437762870   -2.3859438481
O       -2.3961212164    0.1904739575   -3.2002418610
O       -1.5828922405    1.7855673624   -1.8537244945
C       -0.7846351248   -1.0619205855   -0.7073324755
H        0.4950502106    0.3024464365   -1.7630027395
H       -0.1876018867   -1.0003066892   -2.7724763344
O        0.2415050301   -1.9336343247   -0.2670933505
H       -1.6702073568   -1.6762412657   -0.9079192183
H       -1.0547381783   -0.3491158816    0.0870789743
C        0.9636284473    1.1838070804    1.6323765178
C        0.7184180538    0.1720925524    2.7130440134
H        1.6678988599   -0.1468980789    3.1474424594
H        0.2420978334   -0.7167135199    2.2931714791
H        0.0810868448    0.6227352783    3.4733687949
O        0.4914442431    2.3129220257    1.6401018414
O        1.7337895835    0.8442458519    0.6084450283
O        2.2535148519   -0.4964964590    0.6458504472
H        1.0133090686   -1.3778827165    0.0593020286
$end

$rem
jobtype               freq
method                wb97x-v
basis                 def2-tzvpd
symmetry              off
sym_ignore            true
incdft                false
incfock               0
!scf_algorithm        diis_gdm
scf_convergence       8
thresh                14
!purecart             112
max_scf_cycles        1000
geom_opt_max_cycles   500
geom_opt_dmax         100
geom_opt_tol_gradient 10
solvent_method        pcm
ideriv                1
rpath_tol_displacement 1000
rpath_max_cycles      100
rpath_direction       1
!scf_guess            read
scf_guess             read
$end

$pcm
theory              cosmo
method              iswig
Radii               bondi
vdwScale            1.20
hpoints             110
heavypoints         110
$end

$solvent
dielectric 78.400000
$end

--------------------------------------------------------------
 ----------------------------------------------------------------
             Standard Nuclear Orientation (Angstroms)
    I     Atom           X                Y                Z
 ----------------------------------------------------------------
    1      C      -0.4026642934    -0.2877547841    -1.9704569266
    2      C      -1.5485832261     0.6437762870    -2.3859438481
    3      O      -2.3961212164     0.1904739575    -3.2002418610
    4      O      -1.5828922405     1.7855673624    -1.8537244945
    5      C      -0.7846351248    -1.0619205855    -0.7073324755
    6      H       0.4950502106     0.3024464365    -1.7630027395
    7      H      -0.1876018867    -1.0003066892    -2.7724763344
    8      O       0.2415050301    -1.9336343247    -0.2670933505
    9      H      -1.6702073568    -1.6762412657    -0.9079192183
   10      H      -1.0547381783    -0.3491158816     0.0870789743
   11      C       0.9636284473     1.1838070804     1.6323765178
   12      C       0.7184180538     0.1720925524     2.7130440134
   13      H       1.6678988599    -0.1468980789     3.1474424594
   14      H       0.2420978334    -0.7167135199     2.2931714791
   15      H       0.0810868448     0.6227352783     3.4733687949
   16      O       0.4914442431     2.3129220257     1.6401018414
   17      O       1.7337895835     0.8442458519     0.6084450283
   18      O       2.2535148519    -0.4964964590     0.6458504472
   19      H       1.0133090686    -1.3778827165     0.0593020286
 ----------------------------------------------------------------
 Nuclear Repulsion Energy =   625.8843375326 hartrees
 There are       44 alpha and       44 beta electrons
 Requested basis set is def2-TZVPD
 There are 189 shells and 497 basis functions

 Total QAlloc Memory Limit   8000 MB
 Mega-Array Size      1956 MB
 MEM_STATIC part      2000 MB
 Discretize the solute cavity surface with Lebedev spheres
	Using 110 Lebedev grid points for each H atom
	Using 110 Lebedev grid points for other atoms
	Atomic van der Waals radii will be scaled by 1.20
 Remove points where switching function is < 1.0e-08
 Keep 1196 surface tesserae and discard 894 interior tesserae
 Molecular Surface Area = 210.513 Angst**2
 A cutoff of  1.0D-14 yielded  16080 shell pairs
 There are    111282 function pairs (    141716 Cartesian)
 
 -------------------------------------------------------
 OpenMP Integral Computing Module                       
 Release: version 1.0, May 2013, Q-Chem Inc. Pittsburgh 
 -------------------------------------------------------
 Integral Job Info:
 Integral job number is                      11
 Integral operator is                         1
 short-range coefficients              16700000
 long-range coefficients              100000000
 Omega coefficients                         300
 if combine SR and LR in K                    1
 Integral screening is                        0
 Integral computing path is                   2
 max size of driver memory is            800000
 size of driver memory is                776718
 size of scratch memory is              4473992
 max col of scratch BK array              10000
 max len of scratch array in speh3          662
 max len of scratch index in speh4           32
 max int batch size is                      520
 min int batch size is                       52
 fixed nKL is                                52
 max L of basis functions is                  3
 order of int derivative is                   0
 number of shells is                        189
 number of basis is                         563
 number of cartesian basis is               563
 number of contracted shell pairs         16080
 number of primitive shell pairs          32040
 maxK2 (contraction) of shell pair           36
 max number of K2 of shell pair               1
 max number of CS2 of shell pair           2660
 max number of PS2 of shell pair           3672
 mem total for path MDJ                  827920
 -------------------------------------------------------
 Smallest overlap matrix eigenvalue = 5.43E-06
 Guess MOs from SCF MO coefficient file
 Reading MOs from coefficient file
 Reading MOs from coefficient file
 Long-range K will be added via erf
 Coulomb attenuation parameter = 0.3 bohr**(-1)
 A restricted hybrid HF-DFT SCF calculation will be
 performed using Pulay DIIS extrapolation
 Polarizable Continuum solvation model will be applied
 Exchange:     0.1670 Hartree-Fock + 1.0000 wB97X-V + LR-HF
 Correlation:  1.0000 wB97X-V
 Using SG-2 standard quadrature grid
 Nonlocal Correlation:  VV10 with C = 0.0100 and b = 6.00
 Grid used for NLC:  SG-1 standard quadrature
 SCF converges when DIIS error is below 1.0E-08
Using Q-Chem read-in guess as SCF_GUESS READ specified.

 using 16 threads for integral computing
 -------------------------------------------------------
 OpenMP Integral computing Module                
 Release: version 1.0, May 2013, Q-Chem Inc. Pittsburgh 
 -------------------------------------------------------
 using 16 threads for integral computing
 -------------------------------------------------------
 OpenMP Integral computing Module                
 Release: version 1.0, May 2013, Q-Chem Inc. Pittsburgh 
 -------------------------------------------------------
 -------------------------------------------------------
 OpenMP BLAS3 based DFT computing Module                
 Release: version 1.0, May 2013, Q-Chem Inc. Pittsburgh 
 -------------------------------------------------------
 -------------------------------------------------------
 OpenMP BLAS3 based DFT computing Module                
 Release: version 1.0, May 2013, Q-Chem Inc. Pittsburgh 
 -------------------------------------------------------
 -------------------------------------------------------
 OpenMP BLAS3 based DFT computing Module                
 Release: version 1.0, May 2013, Q-Chem Inc. Pittsburgh 
 -------------------------------------------------------
 ---------------------------------------
  Cycle       Energy         DIIS Error
 ---------------------------------------
    1    -646.6741675400      3.45E-04
    2    -646.9720278838      3.60E-04
    3    -646.9774240728      1.68E-04
    4    -646.9783293075      1.25E-04
    5    -646.9789008499      9.49E-05
    6    -646.9791823947      7.70E-05
    7    -646.9793841110      6.10E-05
    8    -646.9795289498      4.64E-05
    9    -646.9796190676      3.43E-05
   10    -646.9796612023      2.69E-05
   11    -646.9796933622      1.94E-05
   12    -646.9797064180      1.53E-05
   13    -646.9797142823      1.22E-05
   14    -646.9797195444      9.52E-06
   15    -646.9797223613      7.74E-06
   16    -646.9797248382      5.75E-06
   17    -646.9797278751      3.91E-09 Convergence criterion met
 ---------------------------------------

************** Final PCM Free Energy Summary **************
 G_electrostatic  =      -0.30556175 hartree =    -191.74289454 kcal/mol
 G_cavitation     =       0.00000000 hartree =       0.00000000 kcal/mol
 G_dispersion     =       0.00000000 hartree =       0.00000000 kcal/mol
 G_repulsion      =       0.00000000 hartree =       0.00000000 kcal/mol
 --------------------------------------------------
 Non-electrostatic Free Energy =       0.00000000 hartree =       0.00000000 kcal/mol
 Total                         =      -0.30556175 hartree =    -191.74289454 kcal/mol
 --------------------------------------------------
 SCF Energy (H0 + V/2)                       =    -646.97972788 
 Solute Internal Energy (H0)                 =    -646.67416612 
 Total Free Energy (H0 + V/2 + non-elec)     =    -646.97972788 hartree
                                             = -405985.90678662 kcal/mol
***********************************************************

 SCF time:  CPU 5332.16 s  wall 383.04 s
 SCF   energy in the final basis set = -646.97972788
 Total energy in the final basis set = -646.97972788
 
 --------------------------------------------------------------
 
                    Orbital Energies (a.u.)
 --------------------------------------------------------------
 
 Alpha MOs
 -- Occupied --
-19.267 -19.184 -19.177 -19.170 -19.140 -19.140 -10.386 -10.341
-10.297 -10.261 -10.242  -1.240  -1.146  -1.143  -1.116  -1.049
 -0.950  -0.868  -0.864  -0.736  -0.658  -0.613  -0.610  -0.593
 -0.573  -0.569  -0.552  -0.538  -0.515  -0.502  -0.500  -0.492
 -0.471  -0.466  -0.459  -0.444  -0.408  -0.384  -0.367  -0.347
 -0.334  -0.330  -0.328  -0.312
 -- Virtual --
  0.060   0.072   0.075   0.084   0.099   0.099   0.107   0.110
  0.113   0.120   0.133   0.134   0.139   0.142   0.149   0.153
  0.159   0.169   0.172   0.176   0.185   0.190   0.191   0.203
  0.206   0.214   0.218   0.229   0.236   0.241   0.244   0.255
  0.259   0.263   0.268   0.269   0.278   0.288   0.294   0.302
  0.306   0.306   0.316   0.325   0.334   0.339   0.342   0.346
  0.350   0.353   0.354   0.362   0.371   0.373   0.381   0.388
  0.396   0.400   0.406   0.409   0.413   0.418   0.424   0.426
  0.433   0.434   0.437   0.445   0.452   0.457   0.463   0.469
  0.472   0.476   0.480   0.485   0.488   0.495   0.505   0.510
  0.515   0.523   0.529   0.534   0.541   0.544   0.549   0.553
  0.560   0.563   0.567   0.578   0.587   0.590   0.599   0.607
  0.610   0.617   0.620   0.630   0.634   0.643   0.653   0.659
  0.664   0.672   0.677   0.681   0.686   0.695   0.700   0.712
  0.714   0.717   0.720   0.725   0.729   0.740   0.746   0.752
  0.756   0.762   0.773   0.774   0.787   0.788   0.796   0.797
  0.807   0.811   0.825   0.831   0.835   0.839   0.846   0.849
  0.858   0.865   0.874   0.882   0.886   0.896   0.906   0.913
  0.921   0.932   0.937   0.954   0.962   0.965   0.971   0.984
  0.991   1.004   1.021   1.033   1.041   1.047   1.050   1.060
  1.079   1.094   1.099   1.119   1.122   1.138   1.140   1.155
  1.169   1.185   1.196   1.207   1.219   1.232   1.237   1.259
  1.264   1.281   1.303   1.310   1.330   1.336   1.342   1.345
  1.358   1.373   1.391   1.402   1.412   1.424   1.427   1.434
  1.467   1.477   1.502   1.517   1.520   1.533   1.551   1.583
  1.603   1.617   1.644   1.653   1.758   1.771   1.819   1.864
  1.869   1.886   1.894   1.901   1.918   1.921   1.932   1.947
  1.949   1.960   1.975   1.985   1.997   2.001   2.006   2.018
  2.037   2.040   2.058   2.073   2.088   2.107   2.123   2.149
  2.158   2.165   2.190   2.194   2.217   2.218   2.245   2.271
  2.276   2.287   2.302   2.327   2.350   2.365   2.380   2.389
  2.411   2.412   2.419   2.440   2.464   2.476   2.481   2.500
  2.511   2.537   2.549   2.570   2.606   2.628   2.633   2.647
  2.663   2.684   2.694   2.725   2.763   2.783   2.801   2.823
  2.840   2.857   2.871   2.883   2.893   2.900   2.932   2.948
  2.970   2.978   2.999   3.011   3.020   3.051   3.075   3.102
  3.140   3.177   3.184   3.187   3.218   3.238   3.251   3.261
  3.270   3.284   3.303   3.329   3.348   3.360   3.363   3.376
  3.383   3.403   3.418   3.428   3.434   3.445   3.452   3.462
  3.479   3.493   3.514   3.519   3.530   3.557   3.573   3.589
  3.605   3.616   3.633   3.647   3.650   3.676   3.687   3.705
  3.726   3.726   3.746   3.749   3.757   3.766   3.775   3.797
  3.820   3.867   3.920   3.931   3.952   4.017   4.068   4.073
  4.092   4.104   4.141   4.176   4.236   4.254   4.310   4.323
  4.398   4.426   4.500   4.580   4.608   4.613   4.629   4.682
  4.743   4.803   4.806   4.834   4.859   4.869   4.897   4.966
  5.018   5.084   5.146   5.152   5.157   5.294   5.315   5.320
  5.352   5.354   5.359   5.375   5.387   5.392   5.442   5.456
  5.495   5.504   5.552   5.634   5.675   5.707   5.713   5.716
  5.761   5.775   5.982   5.990   5.996   6.057   6.130   6.155
  6.185   6.263   6.298   6.313   6.325   6.330   6.453   6.515
  6.617   6.628   6.643   6.657   6.667   6.698   6.706   6.737
  6.753   6.763   6.780   6.805   6.898   6.921   6.945   6.968
  6.970   7.002   7.021   7.049   7.060   7.133   7.205   7.232
  7.254   7.319   7.338   7.365   7.378   7.419   7.481   7.485
  7.561   8.354  22.687  22.834  22.843  23.631  23.705  44.145
 44.337  44.406  44.422  44.448  44.659
 --------------------------------------------------------------
 
          Ground-State Mulliken Net Atomic Charges

     Atom                 Charge (a.u.)
  ----------------------------------------
      1 C                     0.130757
      2 C                     0.134972
      3 O                    -0.702791
      4 O                    -0.692595
      5 C                    -0.403029
      6 H                     0.121989
      7 H                     0.154204
      8 O                    -0.589462
      9 H                     0.273509
     10 H                     0.140062
     11 C                     0.442448
     12 C                    -0.427516
     13 H                     0.222795
     14 H                     0.159166
     15 H                     0.191264
     16 O                    -0.604846
     17 O                    -0.120437
     18 O                    -0.772040
     19 H                     0.341551
  ----------------------------------------
  Sum of atomic charges =    -2.000000

 -----------------------------------------------------------------
                    Cartesian Multipole Moments
 -----------------------------------------------------------------
    Charge (ESU x 10^10)
                -9.6064
    Dipole Moment (Debye)
         X       3.2834      Y      -6.5828      Z      10.8675
       Tot      13.1232
    Quadrupole Moments (Debye-Ang)
        XX    -110.6726     XY      12.0146     YY    -104.4563
        XZ     -32.3452     YZ       3.6794     ZZ    -105.1971
    Octopole Moments (Debye-Ang^2)
       XXX      26.2785    XXY     -32.2503    XYY      12.0448
       YYY     -88.7113    XXZ      87.9689    XYZ     -21.3097
       YYZ      20.9420    XZZ      97.6067    YZZ     -47.0794
       ZZZ     178.3078
    Hexadecapole Moments (Debye-Ang^3)
      XXXX   -1157.7264   XXXY      84.7554   XXYY    -302.3826
      XYYY      55.6303   YYYY    -881.0153   XXXZ    -621.1777
      XXYZ      32.1418   XYYZ    -181.4587   YYYZ     -62.7065
      XXZZ    -635.5912   XYZZ      53.1392   YYZZ    -450.6189
      XZZZ    -699.5880   YZZZ     -15.8772   ZZZZ   -1873.1522
 -----------------------------------------------------------------
 Calculating analytic gradient of the SCF energy
 Gradient of SCF Energy
            1           2           3           4           5           6
    1   0.1293616  -0.0732731   0.0467005   0.0139506  -0.1034011  -0.0795489
    2  -0.0051698   0.0220003   0.0162061  -0.0548257   0.0409118  -0.0396089
    3  -0.0722893   0.0352876   0.0370708  -0.0194501   0.0388288  -0.0170387
            7           8           9          10          11          12
    1  -0.0064166   0.0414777   0.0454292   0.0291555   0.0087199  -0.0372198
    2   0.0485624  -0.0018499   0.0386444  -0.0584589   0.0315754  -0.0139309
    3   0.0491759   0.0155090   0.0106600  -0.0549765  -0.0618167   0.0750905
           13          14          15          16          17          18
    1  -0.0576714   0.0310199   0.0438401   0.0226885  -0.0424763   0.0425561
    2   0.0144808   0.0559595  -0.0252986  -0.0689368   0.0492223  -0.0449221
    3  -0.0246080   0.0278377  -0.0512692   0.0007161   0.0379247  -0.0060505
           19
    1  -0.0548926
    2  -0.0045613
    3  -0.0206022
 Max gradient component =       1.294E-01
 RMS gradient           =       4.605E-02
 Computing fast CPCM-ISWIG gradient
 Updating gradient with PCM contributions...
 -- total gradient after adding PCM contribution --
---------------------------------------------------
  Atom         X              Y              Z     
---------------------------------------------------
   1      -0.000004      -0.000038      -0.000047
   2      -0.000048      -0.000026      -0.000109
   3       0.000045       0.000016       0.000072
   4       0.000015       0.000055       0.000052
   5       0.000085      -0.000067       0.000062
   6      -0.000012       0.000013       0.000007
   7      -0.000012       0.000006       0.000004
   8      -0.000120       0.000009      -0.000038
   9      -0.000009       0.000003      -0.000005
  10      -0.000014       0.000021      -0.000010
  11      -0.000073       0.000064       0.000005
  12       0.000059      -0.000000       0.000016
  13       0.000006      -0.000001       0.000004
  14      -0.000016      -0.000000      -0.000026
  15       0.000002      -0.000004       0.000017
  16       0.000039      -0.000068       0.000008
  17       0.000017      -0.000021      -0.000044
  18      -0.000031      -0.000006       0.000007
  19       0.000073       0.000045       0.000024
---------------------------------------------------
 Number of fixed atoms: 0
 Gradient time:  CPU 1103.53 s  wall 80.03 s
 ######################################################
 ######################################################
 # Starting finite difference calculation for IDERIV  #
 Finite diff step size:  1.88973e-03 a.u.
 ----------------------------------------------------------------
             Standard Nuclear Orientation (Angstroms)
    I     Atom           X                Y                Z
 ----------------------------------------------------------------
    1      C      -0.4016642934    -0.2877547841    -1.9704569266
    2      C      -1.5485832261     0.6437762870    -2.3859438481
    3      O      -2.3961212164     0.1904739575    -3.2002418610
    4      O      -1.5828922405     1.7855673624    -1.8537244945
    5      C      -0.7846351248    -1.0619205855    -0.7073324755
    6      H       0.4950502106     0.3024464365    -1.7630027395
    7      H      -0.1876018867    -1.0003066892    -2.7724763344
    8      O       0.2415050301    -1.9336343247    -0.2670933505
    9      H      -1.6702073568    -1.6762412657    -0.9079192183
   10      H      -1.0547381783    -0.3491158816     0.0870789743
   11      C       0.9636284473     1.1838070804     1.6323765178
   12      C       0.7184180538     0.1720925524     2.7130440134
   13      H       1.6678988599    -0.1468980789     3.1474424594
   14      H       0.2420978334    -0.7167135199     2.2931714791
   15      H       0.0810868448     0.6227352783     3.4733687949
   16      O       0.4914442431     2.3129220257     1.6401018414
   17      O       1.7337895835     0.8442458519     0.6084450283
   18      O       2.2535148519    -0.4964964590     0.6458504472
   19      H       1.0133090686    -1.3778827165     0.0593020286
 ----------------------------------------------------------------
 Nuclear Repulsion Energy =   625.8771780774 hartrees
 There are       44 alpha and       44 beta electrons
 Discretize the solute cavity surface with Lebedev spheres
	Using 110 Lebedev grid points for each H atom
	Using 110 Lebedev grid points for other atoms
	Atomic van der Waals radii will be scaled by 1.20
 Remove points where switching function is < 1.0e-08
 Keep 1196 surface tesserae and discard 894 interior tesserae
 Molecular Surface Area = 210.513 Angst**2
 Requested basis set is def2-TZVPD
 There are 189 shells and 497 basis functions
 A cutoff of  1.0D-14 yielded  16080 shell pairs
 There are    111282 function pairs (    141716 Cartesian)
 Smallest overlap matrix eigenvalue = 5.43E-06
 Guess MOs from SCF MO coefficient file
 Reading MOs from coefficient file
 Reading MOs from coefficient file
 Long-range K will be added via erf
 Coulomb attenuation parameter = 0.3 bohr**(-1)
 A restricted hybrid HF-DFT SCF calculation will be
 performed using Pulay DIIS extrapolation
 Polarizable Continuum solvation model will be applied
 Exchange:     0.1670 Hartree-Fock + 1.0000 wB97X-V + LR-HF
 Correlation:  1.0000 wB97X-V
 Using SG-2 standard quadrature grid
 Nonlocal Correlation:  VV10 with C = 0.0100 and b = 6.00
 Grid used for NLC:  SG-1 standard quadrature
 SCF converges when DIIS error is below 1.0E-08
Using Q-Chem read-in guess as SCF_GUESS READ specified.

 using 16 threads for integral computing
 -------------------------------------------------------
 OpenMP Integral computing Module                
 Release: version 1.0, May 2013, Q-Chem Inc. Pittsburgh 
 -------------------------------------------------------
 using 16 threads for integral computing
 -------------------------------------------------------
 OpenMP Integral computing Module                
 Release: version 1.0, May 2013, Q-Chem Inc. Pittsburgh 
 -------------------------------------------------------
 -------------------------------------------------------
 OpenMP BLAS3 based DFT computing Module                
 Release: version 1.0, May 2013, Q-Chem Inc. Pittsburgh 
 -------------------------------------------------------
 -------------------------------------------------------
 OpenMP BLAS3 based DFT computing Module                
 Release: version 1.0, May 2013, Q-Chem Inc. Pittsburgh 
 -------------------------------------------------------
 -------------------------------------------------------
 OpenMP BLAS3 based DFT computing Module                
 Release: version 1.0, May 2013, Q-Chem Inc. Pittsburgh 
 -------------------------------------------------------
 ---------------------------------------
  Cycle       Energy         DIIS Error
 ---------------------------------------
    1    -646.6745914647      3.46E-04
    2    -646.9720163844      3.61E-04
    3    -646.9774219831      1.68E-04
    4    -646.9783294579      1.25E-04
    5    -646.9789066203      9.45E-05
    6    -646.9792036437      7.54E-05
    7    -646.9794408543      5.57E-05
    8    -646.9796256285      3.31E-05
    9    -646.9797075526      1.45E-05
   10    -646.9797243906      5.25E-06
   11    -646.9797268327      9.52E-07
   12    -646.9797269101      2.27E-07
   13    -646.9797269144      4.20E-08
   14    -646.9797269146      7.76E-09 Convergence criterion met
 ---------------------------------------

************** Final PCM Free Energy Summary **************
 G_electrostatic  =      -0.30555996 hartree =    -191.74176874 kcal/mol
 G_cavitation     =       0.00000000 hartree =       0.00000000 kcal/mol
 G_dispersion     =       0.00000000 hartree =       0.00000000 kcal/mol
 G_repulsion      =       0.00000000 hartree =       0.00000000 kcal/mol
 --------------------------------------------------
 Non-electrostatic Free Energy =       0.00000000 hartree =       0.00000000 kcal/mol
 Total                         =      -0.30555996 hartree =    -191.74176874 kcal/mol
 --------------------------------------------------
 SCF Energy (H0 + V/2)                       =    -646.97972691 
 Solute Internal Energy (H0)                 =    -646.67416695 
 Total Free Energy (H0 + V/2 + non-elec)     =    -646.97972691 hartree
                                             = -405985.90618387 kcal/mol
***********************************************************

 SCF time:  CPU 4380.47 s  wall 314.16 s
 SCF   energy in the final basis set = -646.97972691
 Total energy in the final basis set = -646.97972691
 
 --------------------------------------------------------------
 
                    Orbital Energies (a.u.)
 --------------------------------------------------------------
 
 Alpha MOs
 -- Occupied --
-19.267 -19.184 -19.177 -19.170 -19.140 -19.140 -10.386 -10.341
-10.297 -10.261 -10.242  -1.240  -1.146  -1.143  -1.116  -1.049
 -0.950  -0.868  -0.864  -0.736  -0.658  -0.613  -0.609  -0.593
 -0.573  -0.569  -0.552  -0.538  -0.515  -0.502  -0.500  -0.492
 -0.471  -0.466  -0.459  -0.444  -0.408  -0.384  -0.367  -0.347
 -0.334  -0.330  -0.328  -0.312
 -- Virtual --
  0.060   0.072   0.075   0.084   0.099   0.099   0.107   0.110
  0.113   0.120   0.133   0.134   0.139   0.142   0.149   0.153
  0.159   0.169   0.172   0.176   0.185   0.190   0.191   0.203
  0.206   0.214   0.219   0.229   0.236   0.241   0.244   0.255
  0.259   0.263   0.268   0.269   0.278   0.288   0.294   0.302
  0.306   0.306   0.316   0.325   0.334   0.338   0.342   0.346
  0.350   0.353   0.354   0.362   0.371   0.373   0.381   0.388
  0.396   0.400   0.406   0.409   0.413   0.418   0.424   0.426
  0.433   0.434   0.437   0.445   0.452   0.457   0.463   0.469
  0.472   0.476   0.480   0.485   0.488   0.495   0.505   0.510
  0.515   0.523   0.529   0.534   0.541   0.544   0.549   0.553
  0.560   0.563   0.567   0.578   0.587   0.590   0.599   0.606
  0.610   0.617   0.620   0.630   0.634   0.643   0.653   0.659
  0.664   0.672   0.677   0.681   0.686   0.695   0.700   0.712
  0.714   0.717   0.720   0.725   0.729   0.740   0.746   0.752
  0.756   0.762   0.773   0.774   0.787   0.788   0.796   0.797
  0.807   0.811   0.825   0.831   0.835   0.839   0.846   0.849
  0.858   0.865   0.874   0.882   0.886   0.896   0.906   0.913
  0.921   0.932   0.937   0.954   0.962   0.965   0.971   0.984
  0.991   1.004   1.021   1.033   1.041   1.047   1.050   1.060
  1.079   1.094   1.099   1.119   1.122   1.138   1.140   1.155
  1.169   1.185   1.196   1.207   1.219   1.232   1.237   1.259
  1.264   1.281   1.303   1.310   1.330   1.336   1.342   1.345
  1.358   1.373   1.391   1.402   1.412   1.424   1.427   1.434
  1.467   1.477   1.502   1.517   1.520   1.533   1.551   1.583
  1.603   1.617   1.644   1.653   1.758   1.771   1.819   1.864
  1.869   1.886   1.894   1.901   1.918   1.921   1.932   1.947
  1.948   1.960   1.975   1.985   1.997   2.001   2.006   2.018
  2.036   2.040   2.058   2.073   2.088   2.107   2.123   2.149
  2.158   2.165   2.190   2.194   2.217   2.218   2.245   2.271
  2.276   2.287   2.302   2.327   2.350   2.365   2.380   2.389
  2.411   2.412   2.419   2.440   2.464   2.476   2.481   2.500
  2.511   2.537   2.549   2.570   2.606   2.628   2.633   2.647
  2.663   2.684   2.694   2.725   2.763   2.783   2.801   2.823
  2.840   2.857   2.871   2.882   2.893   2.900   2.932   2.948
  2.970   2.978   2.999   3.011   3.020   3.051   3.075   3.102
  3.140   3.177   3.184   3.187   3.218   3.238   3.251   3.261
  3.270   3.284   3.303   3.329   3.348   3.360   3.363   3.376
  3.383   3.402   3.418   3.428   3.434   3.445   3.452   3.462
  3.479   3.493   3.514   3.519   3.530   3.557   3.573   3.589
  3.605   3.616   3.633   3.647   3.650   3.676   3.687   3.705
  3.726   3.726   3.746   3.749   3.757   3.766   3.775   3.797
  3.820   3.867   3.919   3.931   3.952   4.017   4.067   4.073
  4.092   4.104   4.141   4.176   4.236   4.253   4.310   4.323
  4.398   4.426   4.500   4.580   4.608   4.613   4.629   4.682
  4.743   4.802   4.806   4.835   4.859   4.869   4.897   4.966
  5.018   5.084   5.146   5.152   5.157   5.294   5.315   5.319
  5.352   5.354   5.359   5.374   5.387   5.392   5.442   5.456
  5.495   5.504   5.552   5.634   5.675   5.707   5.713   5.716
  5.761   5.775   5.982   5.990   5.996   6.057   6.130   6.155
  6.185   6.263   6.298   6.313   6.325   6.330   6.453   6.515
  6.617   6.628   6.643   6.657   6.667   6.698   6.706   6.737
  6.753   6.763   6.780   6.805   6.898   6.921   6.944   6.968
  6.970   7.002   7.021   7.049   7.060   7.133   7.205   7.232
  7.254   7.319   7.338   7.365   7.378   7.419   7.481   7.485
  7.561   8.354  22.687  22.834  22.843  23.631  23.704  44.145
 44.337  44.406  44.422  44.448  44.659
 --------------------------------------------------------------
 
          Ground-State Mulliken Net Atomic Charges

     Atom                 Charge (a.u.)
  ----------------------------------------
      1 C                     0.129448
      2 C                     0.135588
      3 O                    -0.702790
      4 O                    -0.692591
      5 C                    -0.403050
      6 H                     0.122643
      7 H                     0.154130
      8 O                    -0.589525
      9 H                     0.273695
     10 H                     0.140074
     11 C                     0.442450
     12 C                    -0.427532
     13 H                     0.222794
     14 H                     0.159176
     15 H                     0.191271
     16 O                    -0.604846
     17 O                    -0.120453
     18 O                    -0.772026
     19 H                     0.341544
  ----------------------------------------
  Sum of atomic charges =    -2.000000

 -----------------------------------------------------------------
                    Cartesian Multipole Moments
 -----------------------------------------------------------------
    Charge (ESU x 10^10)
                -9.6064
    Dipole Moment (Debye)
         X       3.2830      Y      -6.5819      Z      10.8671
       Tot      13.1223
    Quadrupole Moments (Debye-Ang)
        XX    -110.6711     XY      12.0163     YY    -104.4564
        XZ     -32.3439     YZ       3.6786     ZZ    -105.1957
    Octopole Moments (Debye-Ang^2)
       XXX      26.2609    XXY     -32.2511    XYY      12.0368
       YYY     -88.7072    XXZ      87.9636    XYZ     -21.3102
       YYZ      20.9385    XZZ      97.5943    YZZ     -47.0766
       ZZZ     178.2993
    Hexadecapole Moments (Debye-Ang^3)
      XXXX   -1157.6954   XXXY      84.7643   XXYY    -302.3750
      XYYY      55.6427   YYYY    -881.0242   XXXZ    -621.1371
      XXYZ      32.1376   XYYZ    -181.4452   YYYZ     -62.7059
      XXZZ    -635.5651   XYZZ      53.1401   YYZZ    -450.6119
      XZZZ    -699.5267   YZZZ     -15.8827   ZZZZ   -1873.1159
 -----------------------------------------------------------------
 Calculating analytic gradient of the SCF energy
 Gradient of SCF Energy
            1           2           3           4           5           6
    1   0.1302035  -0.0734446   0.0466810   0.0139656  -0.1035514  -0.0800281
    2  -0.0051378   0.0221412   0.0162237  -0.0548150   0.0408873  -0.0398497
    3  -0.0723061   0.0351590   0.0370490  -0.0194511   0.0389510  -0.0170901
            7           8           9          10          11          12
    1  -0.0064559   0.0414905   0.0454343   0.0291414   0.0087232  -0.0372194
    2   0.0486439  -0.0018476   0.0386372  -0.0584738   0.0315751  -0.0139332
    3   0.0492744   0.0154756   0.0107007  -0.0549891  -0.0618184   0.0750886
           13          14          15          16          17          18
    1  -0.0576730   0.0310175   0.0438410   0.0226894  -0.0424765   0.0425549
    2   0.0144813   0.0559626  -0.0252999  -0.0689358   0.0492190  -0.0449258
    3  -0.0246082   0.0278421  -0.0512692   0.0007175   0.0379228  -0.0060503
           19
    1  -0.0548935
    2  -0.0045529
    3  -0.0205984
 Max gradient component =       1.302E-01
 RMS gradient           =       4.612E-02
 Computing fast CPCM-ISWIG gradient
 Updating gradient with PCM contributions...
 -- total gradient after adding PCM contribution --
---------------------------------------------------
  Atom         X              Y              Z     
---------------------------------------------------
   1       0.001021       0.000025      -0.000026
   2      -0.000310       0.000054      -0.000126
   3      -0.000004       0.000046       0.000019
   4       0.000023       0.000077       0.000041
   5      -0.000085      -0.000122       0.000146
   6      -0.000440      -0.000211      -0.000076
   7      -0.000127       0.000069       0.000072
   8      -0.000123       0.000056      -0.000098
   9      -0.000021      -0.000020       0.000037
  10      -0.000015       0.000014      -0.000002
  11      -0.000073       0.000064       0.000004
  12       0.000059      -0.000001       0.000016
  13       0.000006      -0.000001       0.000004
  14      -0.000016       0.000000      -0.000025
  15       0.000002      -0.000004       0.000016
  16       0.000040      -0.000068       0.000008
  17       0.000017      -0.000022      -0.000043
  18      -0.000033      -0.000007       0.000007
  19       0.000079       0.000049       0.000024
---------------------------------------------------
 Number of fixed atoms: 0
 Gradient time:  CPU 1055.35 s  wall 78.64 s
 ----------------------------------------------------------------
             Standard Nuclear Orientation (Angstroms)
    I     Atom           X                Y                Z
 ----------------------------------------------------------------
    1      C      -0.4036642934    -0.2877547841    -1.9704569266
    2      C      -1.5485832261     0.6437762870    -2.3859438481
    3      O      -2.3961212164     0.1904739575    -3.2002418610
    4      O      -1.5828922405     1.7855673624    -1.8537244945
    5      C      -0.7846351248    -1.0619205855    -0.7073324755
    6      H       0.4950502106     0.3024464365    -1.7630027395
    7      H      -0.1876018867    -1.0003066892    -2.7724763344
    8      O       0.2415050301    -1.9336343247    -0.2670933505
    9      H      -1.6702073568    -1.6762412657    -0.9079192183
   10      H      -1.0547381783    -0.3491158816     0.0870789743
   11      C       0.9636284473     1.1838070804     1.6323765178
   12      C       0.7184180538     0.1720925524     2.7130440134
   13      H       1.6678988599    -0.1468980789     3.1474424594
   14      H       0.2420978334    -0.7167135199     2.2931714791
   15      H       0.0810868448     0.6227352783     3.4733687949
   16      O       0.4914442431     2.3129220257     1.6401018414
   17      O       1.7337895835     0.8442458519     0.6084450283
   18      O       2.2535148519    -0.4964964590     0.6458504472
   19      H       1.0133090686    -1.3778827165     0.0593020286
 ----------------------------------------------------------------
 Nuclear Repulsion Energy =   625.8914961355 hartrees
 There are       44 alpha and       44 beta electrons
 Discretize the solute cavity surface with Lebedev spheres
	Using 110 Lebedev grid points for each H atom
	Using 110 Lebedev grid points for other atoms
	Atomic van der Waals radii will be scaled by 1.20
 Remove points where switching function is < 1.0e-08
 Keep 1196 surface tesserae and discard 894 interior tesserae
 Molecular Surface Area = 210.513 Angst**2
 Requested basis set is def2-TZVPD
 There are 189 shells and 497 basis functions
 A cutoff of  1.0D-14 yielded  16080 shell pairs
 There are    111282 function pairs (    141716 Cartesian)
 Smallest overlap matrix eigenvalue = 5.43E-06
 Guess MOs from SCF MO coefficient file
 Reading MOs from coefficient file
 Reading MOs from coefficient file
 Long-range K will be added via erf
 Coulomb attenuation parameter = 0.3 bohr**(-1)
 A restricted hybrid HF-DFT SCF calculation will be
 performed using Pulay DIIS extrapolation
 Polarizable Continuum solvation model will be applied
 Exchange:     0.1670 Hartree-Fock + 1.0000 wB97X-V + LR-HF
 Correlation:  1.0000 wB97X-V
 Using SG-2 standard quadrature grid
 Nonlocal Correlation:  VV10 with C = 0.0100 and b = 6.00
 Grid used for NLC:  SG-1 standard quadrature
 SCF converges when DIIS error is below 1.0E-08
Using Q-Chem read-in guess as SCF_GUESS READ specified.

 using 16 threads for integral computing
 -------------------------------------------------------
 OpenMP Integral computing Module                
 Release: version 1.0, May 2013, Q-Chem Inc. Pittsburgh 
 -------------------------------------------------------
 using 16 threads for integral computing
 -------------------------------------------------------
 OpenMP Integral computing Module                
 Release: version 1.0, May 2013, Q-Chem Inc. Pittsburgh 
 -------------------------------------------------------
 -------------------------------------------------------
 OpenMP BLAS3 based DFT computing Module                
 Release: version 1.0, May 2013, Q-Chem Inc. Pittsburgh 
 -------------------------------------------------------
 -------------------------------------------------------
 OpenMP BLAS3 based DFT computing Module                
 Release: version 1.0, May 2013, Q-Chem Inc. Pittsburgh 
 -------------------------------------------------------
 -------------------------------------------------------
 OpenMP BLAS3 based DFT computing Module                
 Release: version 1.0, May 2013, Q-Chem Inc. Pittsburgh 
 -------------------------------------------------------
 ---------------------------------------
  Cycle       Energy         DIIS Error
 ---------------------------------------
    1    -646.6733200669      3.46E-04
    2    -646.9720489445      3.60E-04
    3    -646.9774340217      1.67E-04
    4    -646.9783394832      1.24E-04
    5    -646.9789299338      9.31E-05
    6    -646.9792614480      7.10E-05
    7    -646.9795460506      4.42E-05
    8    -646.9796993535      1.72E-05
    9    -646.9797250340      4.49E-06
   10    -646.9797267853      1.14E-06
   11    -646.9797268962      1.84E-07
   12    -646.9797268988      5.42E-08
   13    -646.9797268990      1.27E-08
   14    -646.9797268990      7.18E-09 Convergence criterion met
 ---------------------------------------

************** Final PCM Free Energy Summary **************
 G_electrostatic  =      -0.30556367 hartree =    -191.74409589 kcal/mol
 G_cavitation     =       0.00000000 hartree =       0.00000000 kcal/mol
 G_dispersion     =       0.00000000 hartree =       0.00000000 kcal/mol
 G_repulsion      =       0.00000000 hartree =       0.00000000 kcal/mol
 --------------------------------------------------
 Non-electrostatic Free Energy =       0.00000000 hartree =       0.00000000 kcal/mol
 Total                         =      -0.30556367 hartree =    -191.74409589 kcal/mol
 --------------------------------------------------
 SCF Energy (H0 + V/2)                       =    -646.97972690 
 Solute Internal Energy (H0)                 =    -646.67416323 
 Total Free Energy (H0 + V/2 + non-elec)     =    -646.97972690 hartree
                                             = -405985.90617409 kcal/mol
***********************************************************

 SCF time:  CPU 4380.57 s  wall 314.21 s
 SCF   energy in the final basis set = -646.97972690
 Total energy in the final basis set = -646.97972690
 
 --------------------------------------------------------------
 
                    Orbital Energies (a.u.)
 --------------------------------------------------------------
 
 Alpha MOs
 -- Occupied --
-19.267 -19.184 -19.177 -19.170 -19.140 -19.140 -10.386 -10.341
-10.297 -10.261 -10.242  -1.240  -1.146  -1.143  -1.116  -1.049
 -0.950  -0.868  -0.864  -0.736  -0.658  -0.613  -0.610  -0.593
 -0.573  -0.569  -0.552  -0.538  -0.515  -0.502  -0.500  -0.492
 -0.471  -0.466  -0.459  -0.444  -0.408  -0.384  -0.367  -0.347
 -0.334  -0.330  -0.328  -0.312
 -- Virtual --
  0.060   0.072   0.075   0.084   0.099   0.099   0.107   0.110
  0.113   0.120   0.133   0.134   0.139   0.142   0.149   0.153
  0.159   0.169   0.172   0.176   0.185   0.190   0.191   0.203
  0.206   0.214   0.218   0.229   0.236   0.241   0.244   0.255
  0.259   0.263   0.268   0.269   0.278   0.288   0.294   0.302
  0.306   0.306   0.316   0.325   0.334   0.339   0.342   0.346
  0.350   0.353   0.354   0.362   0.371   0.373   0.381   0.388
  0.396   0.400   0.406   0.409   0.413   0.418   0.424   0.427
  0.433   0.434   0.437   0.445   0.452   0.457   0.463   0.469
  0.472   0.476   0.480   0.485   0.488   0.495   0.506   0.510
  0.515   0.523   0.529   0.534   0.541   0.544   0.549   0.553
  0.560   0.563   0.567   0.578   0.587   0.590   0.599   0.607
  0.610   0.617   0.620   0.630   0.634   0.643   0.653   0.659
  0.664   0.672   0.677   0.681   0.686   0.695   0.700   0.712
  0.714   0.717   0.720   0.725   0.729   0.740   0.746   0.752
  0.756   0.762   0.773   0.774   0.787   0.788   0.796   0.797
  0.807   0.811   0.825   0.831   0.835   0.839   0.846   0.849
  0.858   0.865   0.874   0.882   0.886   0.896   0.906   0.913
  0.921   0.932   0.937   0.954   0.962   0.965   0.971   0.984
  0.991   1.004   1.021   1.033   1.041   1.048   1.051   1.060
  1.079   1.094   1.099   1.119   1.122   1.138   1.140   1.155
  1.169   1.185   1.196   1.207   1.219   1.232   1.237   1.259
  1.264   1.281   1.303   1.310   1.330   1.336   1.342   1.345
  1.358   1.373   1.391   1.402   1.412   1.424   1.427   1.434
  1.467   1.477   1.502   1.517   1.520   1.533   1.551   1.583
  1.603   1.617   1.644   1.654   1.758   1.771   1.819   1.864
  1.869   1.886   1.894   1.901   1.918   1.921   1.932   1.947
  1.949   1.960   1.975   1.985   1.997   2.001   2.006   2.018
  2.037   2.040   2.058   2.073   2.088   2.107   2.123   2.149
  2.158   2.165   2.190   2.194   2.217   2.218   2.245   2.271
  2.276   2.287   2.302   2.327   2.350   2.365   2.380   2.389
  2.411   2.412   2.419   2.440   2.464   2.476   2.481   2.500
  2.511   2.537   2.549   2.570   2.607   2.628   2.633   2.648
  2.663   2.684   2.694   2.725   2.763   2.783   2.801   2.823
  2.840   2.857   2.871   2.883   2.893   2.900   2.932   2.948
  2.970   2.978   2.999   3.011   3.020   3.051   3.075   3.102
  3.140   3.177   3.184   3.187   3.218   3.238   3.251   3.261
  3.270   3.284   3.303   3.329   3.348   3.360   3.363   3.376
  3.383   3.403   3.418   3.428   3.434   3.445   3.452   3.462
  3.479   3.493   3.514   3.519   3.530   3.557   3.573   3.589
  3.605   3.615   3.633   3.647   3.650   3.676   3.687   3.704
  3.726   3.726   3.746   3.749   3.757   3.767   3.775   3.797
  3.820   3.867   3.920   3.932   3.952   4.017   4.068   4.074
  4.092   4.104   4.141   4.176   4.236   4.254   4.311   4.323
  4.398   4.426   4.500   4.580   4.608   4.612   4.629   4.682
  4.743   4.803   4.806   4.834   4.859   4.869   4.897   4.966
  5.018   5.084   5.146   5.152   5.157   5.294   5.315   5.320
  5.352   5.354   5.359   5.375   5.387   5.392   5.442   5.456
  5.495   5.504   5.552   5.634   5.675   5.707   5.713   5.716
  5.761   5.775   5.982   5.990   5.996   6.057   6.130   6.155
  6.185   6.263   6.298   6.313   6.325   6.330   6.453   6.515
  6.617   6.628   6.643   6.657   6.667   6.698   6.706   6.737
  6.753   6.763   6.780   6.805   6.898   6.921   6.945   6.968
  6.970   7.002   7.021   7.049   7.060   7.133   7.205   7.232
  7.254   7.319   7.338   7.365   7.378   7.419   7.481   7.485
  7.561   8.354  22.687  22.834  22.843  23.631  23.705  44.145
 44.337  44.406  44.422  44.448  44.659
 --------------------------------------------------------------
 
          Ground-State Mulliken Net Atomic Charges

     Atom                 Charge (a.u.)
  ----------------------------------------
      1 C                     0.132054
      2 C                     0.134358
      3 O                    -0.702794
      4 O                    -0.692598
      5 C                    -0.403004
      6 H                     0.121338
      7 H                     0.154280
      8 O                    -0.589399
      9 H                     0.273323
     10 H                     0.140049
     11 C                     0.442445
     12 C                    -0.427500
     13 H                     0.222796
     14 H                     0.159157
     15 H                     0.191258
     16 O                    -0.604846
     17 O                    -0.120421
     18 O                    -0.772054
     19 H                     0.341559
  ----------------------------------------
  Sum of atomic charges =    -2.000000

 -----------------------------------------------------------------
                    Cartesian Multipole Moments
 -----------------------------------------------------------------
    Charge (ESU x 10^10)
                -9.6064
    Dipole Moment (Debye)
         X       3.2838      Y      -6.5836      Z      10.8680
       Tot      13.1240
    Quadrupole Moments (Debye-Ang)
        XX    -110.6741     XY      12.0129     YY    -104.4561
        XZ     -32.3464     YZ       3.6803     ZZ    -105.1985
    Octopole Moments (Debye-Ang^2)
       XXX      26.2962    XXY     -32.2495    XYY      12.0527
       YYY     -88.7154    XXZ      87.9743    XYZ     -21.3092
       YYZ      20.9455    XZZ      97.6191    YZZ     -47.0822
       ZZZ     178.3164
    Hexadecapole Moments (Debye-Ang^3)
      XXXX   -1157.7573   XXXY      84.7465   XXYY    -302.3901
      XYYY      55.6178   YYYY    -881.0063   XXXZ    -621.2181
      XXYZ      32.1459   XYYZ    -181.4721   YYYZ     -62.7071
      XXZZ    -635.6172   XYZZ      53.1383   YYZZ    -450.6258
      XZZZ    -699.6492   YZZZ     -15.8715   ZZZZ   -1873.1881
 -----------------------------------------------------------------
 Calculating analytic gradient of the SCF energy
 Gradient of SCF Energy
            1           2           3           4           5           6
    1   0.1285199  -0.0731009   0.0467204   0.0139355  -0.1032509  -0.0790713
    2  -0.0052003   0.0218591   0.0161885  -0.0548367   0.0409365  -0.0393693
    3  -0.0722732   0.0354164   0.0370929  -0.0194493   0.0387073  -0.0169878
            7           8           9          10          11          12
    1  -0.0063771   0.0414650   0.0454243   0.0291699   0.0087167  -0.0372204
    2   0.0484812  -0.0018522   0.0386518  -0.0584444   0.0315760  -0.0139289
    3   0.0490777   0.0155427   0.0106196  -0.0549645  -0.0618157   0.0750928
           13          14          15          16          17          18
    1  -0.0576702   0.0310225   0.0438396   0.0226878  -0.0424763   0.0425575
    2   0.0144803   0.0559567  -0.0252975  -0.0689382   0.0492260  -0.0449187
    3  -0.0246079   0.0278335  -0.0512696   0.0007149   0.0379269  -0.0060505
           19
    1  -0.0548920
    2  -0.0045699
    3  -0.0206062
 Max gradient component =       1.285E-01
 RMS gradient           =       4.597E-02
 Computing fast CPCM-ISWIG gradient
 Updating gradient with PCM contributions...
 -- total gradient after adding PCM contribution --
---------------------------------------------------
  Atom         X              Y              Z     
---------------------------------------------------
   1      -0.001028      -0.000098      -0.000067
   2       0.000214      -0.000108      -0.000091
   3       0.000095      -0.000014       0.000126
   4       0.000006       0.000032       0.000063
   5       0.000254      -0.000011      -0.000022
   6       0.000414       0.000235       0.000090
   7       0.000104      -0.000057      -0.000065
   8      -0.000118      -0.000039       0.000023
   9       0.000003       0.000026      -0.000047
  10      -0.000013       0.000027      -0.000018
  11      -0.000073       0.000064       0.000004
  12       0.000059      -0.000000       0.000016
  13       0.000006      -0.000001       0.000004
  14      -0.000016       0.000000      -0.000026
  15       0.000002      -0.000004       0.000017
  16       0.000039      -0.000068       0.000008
  17       0.000016      -0.000021      -0.000044
  18      -0.000030      -0.000006       0.000007
  19       0.000066       0.000041       0.000023
---------------------------------------------------
 Number of fixed atoms: 0
 Gradient time:  CPU 1059.61 s  wall 76.99 s
 ----------------------------------------------------------------
             Standard Nuclear Orientation (Angstroms)
    I     Atom           X                Y                Z
 ----------------------------------------------------------------
    1      C      -0.4026642934    -0.2867547841    -1.9704569266
    2      C      -1.5485832261     0.6437762870    -2.3859438481
    3      O      -2.3961212164     0.1904739575    -3.2002418610
    4      O      -1.5828922405     1.7855673624    -1.8537244945
    5      C      -0.7846351248    -1.0619205855    -0.7073324755
    6      H       0.4950502106     0.3024464365    -1.7630027395
    7      H      -0.1876018867    -1.0003066892    -2.7724763344
    8      O       0.2415050301    -1.9336343247    -0.2670933505
    9      H      -1.6702073568    -1.6762412657    -0.9079192183
   10      H      -1.0547381783    -0.3491158816     0.0870789743
   11      C       0.9636284473     1.1838070804     1.6323765178
   12      C       0.7184180538     0.1720925524     2.7130440134
   13      H       1.6678988599    -0.1468980789     3.1474424594
   14      H       0.2420978334    -0.7167135199     2.2931714791
   15      H       0.0810868448     0.6227352783     3.4733687949
   16      O       0.4914442431     2.3129220257     1.6401018414
   17      O       1.7337895835     0.8442458519     0.6084450283
   18      O       2.2535148519    -0.4964964590     0.6458504472
   19      H       1.0133090686    -1.3778827165     0.0593020286
 ----------------------------------------------------------------
 Nuclear Repulsion Energy =   625.8878677111 hartrees
 There are       44 alpha and       44 beta electrons
 Discretize the solute cavity surface with Lebedev spheres
	Using 110 Lebedev grid points for each H atom
	Using 110 Lebedev grid points for other atoms
	Atomic van der Waals radii will be scaled by 1.20
 Remove points where switching function is < 1.0e-08
 Keep 1196 surface tesserae and discard 894 interior tesserae
 Molecular Surface Area = 210.511 Angst**2
 Requested basis set is def2-TZVPD
 There are 189 shells and 497 basis functions
 A cutoff of  1.0D-14 yielded  16080 shell pairs
 There are    111282 function pairs (    141716 Cartesian)
 Smallest overlap matrix eigenvalue = 5.43E-06
 Guess MOs from SCF MO coefficient file
 Reading MOs from coefficient file
 Reading MOs from coefficient file
 Long-range K will be added via erf
 Coulomb attenuation parameter = 0.3 bohr**(-1)
 A restricted hybrid HF-DFT SCF calculation will be
 performed using Pulay DIIS extrapolation
 Polarizable Continuum solvation model will be applied
 Exchange:     0.1670 Hartree-Fock + 1.0000 wB97X-V + LR-HF
 Correlation:  1.0000 wB97X-V
 Using SG-2 standard quadrature grid
 Nonlocal Correlation:  VV10 with C = 0.0100 and b = 6.00
 Grid used for NLC:  SG-1 standard quadrature
 SCF converges when DIIS error is below 1.0E-08
Using Q-Chem read-in guess as SCF_GUESS READ specified.

 using 16 threads for integral computing
 -------------------------------------------------------
 OpenMP Integral computing Module                
 Release: version 1.0, May 2013, Q-Chem Inc. Pittsburgh 
 -------------------------------------------------------
 using 16 threads for integral computing
 -------------------------------------------------------
 OpenMP Integral computing Module                
 Release: version 1.0, May 2013, Q-Chem Inc. Pittsburgh 
 -------------------------------------------------------
 -------------------------------------------------------
 OpenMP BLAS3 based DFT computing Module                
 Release: version 1.0, May 2013, Q-Chem Inc. Pittsburgh 
 -------------------------------------------------------
 -------------------------------------------------------
 OpenMP BLAS3 based DFT computing Module                
 Release: version 1.0, May 2013, Q-Chem Inc. Pittsburgh 
 -------------------------------------------------------
 -------------------------------------------------------
 OpenMP BLAS3 based DFT computing Module                
 Release: version 1.0, May 2013, Q-Chem Inc. Pittsburgh 
 -------------------------------------------------------
 ---------------------------------------
  Cycle       Energy         DIIS Error
 ---------------------------------------
    1    -646.6744143687      3.46E-04
    2    -646.9720166297      3.61E-04
    3    -646.9774236676      1.68E-04
    4    -646.9783318400      1.25E-04
    5    -646.9789144547      9.40E-05
    6    -646.9792237426      7.39E-05
    7    -646.9794808406      5.16E-05
    8    -646.9796639875      2.61E-05
    9    -646.9797195336      8.98E-06
   10    -646.9797263616      2.62E-06
   11    -646.9797269721      3.82E-07
   12    -646.9797269844      8.37E-08
   13    -646.9797269848      1.39E-08
   14    -646.9797269848      7.88E-09 Convergence criterion met
 ---------------------------------------

************** Final PCM Free Energy Summary **************
 G_electrostatic  =      -0.30556012 hartree =    -191.74186824 kcal/mol
 G_cavitation     =       0.00000000 hartree =       0.00000000 kcal/mol
 G_dispersion     =       0.00000000 hartree =       0.00000000 kcal/mol
 G_repulsion      =       0.00000000 hartree =       0.00000000 kcal/mol
 --------------------------------------------------
 Non-electrostatic Free Energy =       0.00000000 hartree =       0.00000000 kcal/mol
 Total                         =      -0.30556012 hartree =    -191.74186824 kcal/mol
 --------------------------------------------------
 SCF Energy (H0 + V/2)                       =    -646.97972698 
 Solute Internal Energy (H0)                 =    -646.67416687 
 Total Free Energy (H0 + V/2 + non-elec)     =    -646.97972698 hartree
                                             = -405985.90622799 kcal/mol
***********************************************************

 SCF time:  CPU 4385.91 s  wall 314.28 s
 SCF   energy in the final basis set = -646.97972698
 Total energy in the final basis set = -646.97972698
 
 --------------------------------------------------------------
 
                    Orbital Energies (a.u.)
 --------------------------------------------------------------
 
 Alpha MOs
 -- Occupied --
-19.267 -19.184 -19.177 -19.170 -19.140 -19.140 -10.386 -10.341
-10.297 -10.261 -10.242  -1.240  -1.146  -1.143  -1.116  -1.049
 -0.950  -0.868  -0.864  -0.736  -0.658  -0.613  -0.610  -0.593
 -0.573  -0.569  -0.552  -0.538  -0.515  -0.502  -0.500  -0.492
 -0.471  -0.466  -0.459  -0.444  -0.408  -0.384  -0.367  -0.347
 -0.334  -0.330  -0.328  -0.312
 -- Virtual --
  0.060   0.072   0.075   0.084   0.099   0.099   0.107   0.110
  0.113   0.120   0.133   0.134   0.139   0.142   0.149   0.153
  0.159   0.169   0.172   0.176   0.185   0.190   0.191   0.203
  0.206   0.214   0.218   0.229   0.236   0.241   0.244   0.255
  0.259   0.263   0.268   0.269   0.278   0.288   0.294   0.302
  0.306   0.306   0.316   0.325   0.334   0.339   0.342   0.346
  0.350   0.353   0.354   0.362   0.371   0.373   0.381   0.388
  0.395   0.400   0.406   0.409   0.413   0.418   0.424   0.427
  0.433   0.434   0.437   0.445   0.452   0.457   0.463   0.469
  0.472   0.476   0.480   0.485   0.488   0.495   0.505   0.510
  0.515   0.523   0.529   0.534   0.541   0.544   0.549   0.553
  0.560   0.563   0.567   0.578   0.587   0.590   0.599   0.606
  0.610   0.617   0.620   0.630   0.634   0.643   0.653   0.659
  0.664   0.672   0.677   0.681   0.686   0.695   0.700   0.712
  0.714   0.717   0.720   0.725   0.729   0.740   0.746   0.752
  0.756   0.762   0.773   0.774   0.787   0.788   0.796   0.797
  0.807   0.811   0.825   0.831   0.835   0.839   0.846   0.849
  0.858   0.865   0.874   0.882   0.886   0.896   0.906   0.913
  0.921   0.932   0.937   0.954   0.962   0.965   0.971   0.984
  0.991   1.004   1.021   1.033   1.041   1.047   1.051   1.060
  1.079   1.094   1.099   1.119   1.122   1.138   1.140   1.155
  1.169   1.185   1.196   1.207   1.219   1.232   1.237   1.259
  1.264   1.281   1.303   1.310   1.330   1.336   1.342   1.345
  1.358   1.373   1.391   1.402   1.412   1.424   1.427   1.434
  1.467   1.477   1.502   1.517   1.520   1.533   1.551   1.583
  1.603   1.617   1.644   1.653   1.758   1.771   1.819   1.864
  1.869   1.886   1.894   1.901   1.918   1.921   1.932   1.947
  1.949   1.960   1.974   1.985   1.997   2.001   2.006   2.018
  2.037   2.040   2.058   2.073   2.088   2.107   2.123   2.149
  2.158   2.165   2.190   2.194   2.217   2.218   2.245   2.271
  2.276   2.287   2.302   2.327   2.350   2.365   2.380   2.389
  2.411   2.412   2.419   2.440   2.464   2.476   2.481   2.500
  2.511   2.537   2.549   2.570   2.606   2.628   2.633   2.648
  2.663   2.684   2.694   2.725   2.763   2.783   2.801   2.823
  2.840   2.857   2.871   2.882   2.893   2.900   2.932   2.948
  2.970   2.978   2.999   3.011   3.020   3.051   3.075   3.102
  3.140   3.177   3.184   3.187   3.218   3.238   3.251   3.261
  3.270   3.284   3.303   3.329   3.348   3.359   3.363   3.376
  3.383   3.402   3.418   3.428   3.434   3.445   3.452   3.462
  3.479   3.493   3.514   3.518   3.530   3.557   3.573   3.589
  3.605   3.615   3.633   3.647   3.650   3.676   3.687   3.705
  3.726   3.726   3.746   3.749   3.757   3.766   3.775   3.797
  3.820   3.867   3.920   3.932   3.952   4.017   4.068   4.074
  4.092   4.104   4.141   4.176   4.237   4.254   4.310   4.323
  4.398   4.426   4.500   4.580   4.608   4.613   4.629   4.682
  4.743   4.803   4.806   4.834   4.859   4.869   4.897   4.966
  5.018   5.084   5.146   5.152   5.157   5.294   5.315   5.320
  5.352   5.354   5.359   5.375   5.387   5.392   5.442   5.456
  5.495   5.504   5.552   5.634   5.675   5.707   5.713   5.716
  5.761   5.775   5.982   5.990   5.996   6.057   6.130   6.155
  6.185   6.263   6.298   6.313   6.325   6.330   6.453   6.515
  6.617   6.628   6.643   6.657   6.667   6.698   6.706   6.737
  6.753   6.763   6.780   6.805   6.898   6.921   6.945   6.968
  6.970   7.002   7.021   7.049   7.060   7.133   7.205   7.232
  7.254   7.319   7.338   7.365   7.378   7.419   7.481   7.485
  7.561   8.354  22.687  22.834  22.843  23.631  23.705  44.145
 44.337  44.406  44.422  44.448  44.659
 --------------------------------------------------------------
 
          Ground-State Mulliken Net Atomic Charges

     Atom                 Charge (a.u.)
  ----------------------------------------
      1 C                     0.130804
      2 C                     0.134812
      3 O                    -0.702841
      4 O                    -0.692636
      5 C                    -0.403395
      6 H                     0.122895
      7 H                     0.153628
      8 O                    -0.589419
      9 H                     0.273677
     10 H                     0.140035
     11 C                     0.442487
     12 C                    -0.427548
     13 H                     0.222798
     14 H                     0.159164
     15 H                     0.191273
     16 O                    -0.604844
     17 O                    -0.120452
     18 O                    -0.772039
     19 H                     0.341600
  ----------------------------------------
  Sum of atomic charges =    -2.000000

 -----------------------------------------------------------------
                    Cartesian Multipole Moments
 -----------------------------------------------------------------
    Charge (ESU x 10^10)
                -9.6064
    Dipole Moment (Debye)
         X       3.2848      Y      -6.5835      Z      10.8689
       Tot      13.1250
    Quadrupole Moments (Debye-Ang)
        XX    -110.6730     XY      12.0161     YY    -104.4562
        XZ     -32.3465     YZ       3.6778     ZZ    -105.2028
    Octopole Moments (Debye-Ang^2)
       XXX      26.2851    XXY     -32.2593    XYY      12.0483
       YYY     -88.7343    XXZ      87.9699    XYZ     -21.3116
       YYZ      20.9475    XZZ      97.6093    YZZ     -47.0771
       ZZZ     178.3301
    Hexadecapole Moments (Debye-Ang^3)
      XXXX   -1157.7301   XXXY      84.7720   XXYY    -302.3852
      XYYY      55.6478   YYYY    -880.9954   XXXZ    -621.1820
      XXYZ      32.1540   XYYZ    -181.4645   YYYZ     -62.6772
      XXZZ    -635.5901   XYZZ      53.1416   YYZZ    -450.6276
      XZZZ    -699.5845   YZZZ     -15.8786   ZZZZ   -1873.2293
 -----------------------------------------------------------------
 Calculating analytic gradient of the SCF energy
 Gradient of SCF Energy
            1           2           3           4           5           6
    1   0.1295338  -0.0732957   0.0467006   0.0139843  -0.1034108  -0.0798579
    2  -0.0044179   0.0218359   0.0162333  -0.0548538   0.0407397  -0.0397573
    3  -0.0721153   0.0354140   0.0370722  -0.0194522   0.0388764  -0.0170990
            7           8           9          10          11          12
    1  -0.0063018   0.0414856   0.0454288   0.0291624   0.0087239  -0.0372226
    2   0.0483117  -0.0018659   0.0386419  -0.0584485   0.0315752  -0.0139322
    3   0.0488681   0.0155305   0.0106914  -0.0550164  -0.0618070   0.0750830
           13          14          15          16          17          18
    1  -0.0576693   0.0310211   0.0438405   0.0226867  -0.0424758   0.0425550
    2   0.0144805   0.0559599  -0.0252988  -0.0689351   0.0492208  -0.0449203
    3  -0.0246059   0.0278380  -0.0512674   0.0007153   0.0379254  -0.0060523
           19
    1  -0.0548889
    2  -0.0045691
    3  -0.0205990
 Max gradient component =       1.295E-01
 RMS gradient           =       4.605E-02
 Computing fast CPCM-ISWIG gradient
 Updating gradient with PCM contributions...
 -- total gradient after adding PCM contribution --
---------------------------------------------------
  Atom         X              Y              Z     
---------------------------------------------------
   1       0.000059       0.000980       0.000129
   2       0.000019      -0.000228      -0.000067
   3       0.000040       0.000040       0.000054
   4       0.000078      -0.000022       0.000039
   5       0.000051      -0.000246       0.000125
   6      -0.000231      -0.000227      -0.000055
   7       0.000043      -0.000296      -0.000241
   8      -0.000105      -0.000032       0.000018
   9      -0.000023      -0.000016       0.000030
  10      -0.000005       0.000039      -0.000041
  11      -0.000072       0.000064       0.000003
  12       0.000059      -0.000000       0.000017
  13       0.000005      -0.000000       0.000004
  14      -0.000016       0.000000      -0.000025
  15       0.000002      -0.000004       0.000016
  16       0.000039      -0.000068       0.000009
  17       0.000016      -0.000022      -0.000043
  18      -0.000028      -0.000005       0.000009
  19       0.000068       0.000044       0.000019
---------------------------------------------------
 Number of fixed atoms: 0
 Gradient time:  CPU 1048.84 s  wall 76.71 s
 ----------------------------------------------------------------
             Standard Nuclear Orientation (Angstroms)
    I     Atom           X                Y                Z
 ----------------------------------------------------------------
    1      C      -0.4026642934    -0.2887547841    -1.9704569266
    2      C      -1.5485832261     0.6437762870    -2.3859438481
    3      O      -2.3961212164     0.1904739575    -3.2002418610
    4      O      -1.5828922405     1.7855673624    -1.8537244945
    5      C      -0.7846351248    -1.0619205855    -0.7073324755
    6      H       0.4950502106     0.3024464365    -1.7630027395
    7      H      -0.1876018867    -1.0003066892    -2.7724763344
    8      O       0.2415050301    -1.9336343247    -0.2670933505
    9      H      -1.6702073568    -1.6762412657    -0.9079192183
   10      H      -1.0547381783    -0.3491158816     0.0870789743
   11      C       0.9636284473     1.1838070804     1.6323765178
   12      C       0.7184180538     0.1720925524     2.7130440134
   13      H       1.6678988599    -0.1468980789     3.1474424594
   14      H       0.2420978334    -0.7167135199     2.2931714791
   15      H       0.0810868448     0.6227352783     3.4733687949
   16      O       0.4914442431     2.3129220257     1.6401018414
   17      O       1.7337895835     0.8442458519     0.6084450283
   18      O       2.2535148519    -0.4964964590     0.6458504472
   19      H       1.0133090686    -1.3778827165     0.0593020286
 ----------------------------------------------------------------
 Nuclear Repulsion Energy =   625.8808067326 hartrees
 There are       44 alpha and       44 beta electrons
 Discretize the solute cavity surface with Lebedev spheres
	Using 110 Lebedev grid points for each H atom
	Using 110 Lebedev grid points for other atoms
	Atomic van der Waals radii will be scaled by 1.20
 Remove points where switching function is < 1.0e-08
 Keep 1196 surface tesserae and discard 894 interior tesserae
 Molecular Surface Area = 210.516 Angst**2
 Requested basis set is def2-TZVPD
 There are 189 shells and 497 basis functions
 A cutoff of  1.0D-14 yielded  16080 shell pairs
 There are    111282 function pairs (    141716 Cartesian)
 Smallest overlap matrix eigenvalue = 5.43E-06
 Guess MOs from SCF MO coefficient file
 Reading MOs from coefficient file
 Reading MOs from coefficient file
 Long-range K will be added via erf
 Coulomb attenuation parameter = 0.3 bohr**(-1)
 A restricted hybrid HF-DFT SCF calculation will be
 performed using Pulay DIIS extrapolation
 Polarizable Continuum solvation model will be applied
 Exchange:     0.1670 Hartree-Fock + 1.0000 wB97X-V + LR-HF
 Correlation:  1.0000 wB97X-V
 Using SG-2 standard quadrature grid
 Nonlocal Correlation:  VV10 with C = 0.0100 and b = 6.00
 Grid used for NLC:  SG-1 standard quadrature
 SCF converges when DIIS error is below 1.0E-08
Using Q-Chem read-in guess as SCF_GUESS READ specified.

 using 16 threads for integral computing
 -------------------------------------------------------
 OpenMP Integral computing Module                
 Release: version 1.0, May 2013, Q-Chem Inc. Pittsburgh 
 -------------------------------------------------------
 using 16 threads for integral computing
 -------------------------------------------------------
 OpenMP Integral computing Module                
 Release: version 1.0, May 2013, Q-Chem Inc. Pittsburgh 
 -------------------------------------------------------
 -------------------------------------------------------
 OpenMP BLAS3 based DFT computing Module                
 Release: version 1.0, May 2013, Q-Chem Inc. Pittsburgh 
 -------------------------------------------------------
 -------------------------------------------------------
 OpenMP BLAS3 based DFT computing Module                
 Release: version 1.0, May 2013, Q-Chem Inc. Pittsburgh 
 -------------------------------------------------------
 -------------------------------------------------------
 OpenMP BLAS3 based DFT computing Module                
 Release: version 1.0, May 2013, Q-Chem Inc. Pittsburgh 
 -------------------------------------------------------
 ---------------------------------------
  Cycle       Energy         DIIS Error
 ---------------------------------------
    1    -646.6745232878      3.47E-04
    2    -646.9720241305      3.61E-04
    3    -646.9774272711      1.68E-04
    4    -646.9783360068      1.24E-04
    5    -646.9789257184      9.33E-05
    6    -646.9792584913      7.13E-05
    7    -646.9795451266      4.43E-05
    8    -646.9796989949      1.73E-05
    9    -646.9797249105      4.57E-06
   10    -646.9797267255      1.15E-06
   11    -646.9797268389      1.75E-07
   12    -646.9797268412      5.68E-08
   13    -646.9797268414      1.27E-08
   14    -646.9797268414      7.24E-09 Convergence criterion met
 ---------------------------------------

************** Final PCM Free Energy Summary **************
 G_electrostatic  =      -0.30556360 hartree =    -191.74405202 kcal/mol
 G_cavitation     =       0.00000000 hartree =       0.00000000 kcal/mol
 G_dispersion     =       0.00000000 hartree =       0.00000000 kcal/mol
 G_repulsion      =       0.00000000 hartree =       0.00000000 kcal/mol
 --------------------------------------------------
 Non-electrostatic Free Energy =       0.00000000 hartree =       0.00000000 kcal/mol
 Total                         =      -0.30556360 hartree =    -191.74405202 kcal/mol
 --------------------------------------------------
 SCF Energy (H0 + V/2)                       =    -646.97972684 
 Solute Internal Energy (H0)                 =    -646.67416324 
 Total Free Energy (H0 + V/2 + non-elec)     =    -646.97972684 hartree
                                             = -405985.90613797 kcal/mol
***********************************************************

 SCF time:  CPU 4371.26 s  wall 313.41 s
 SCF   energy in the final basis set = -646.97972684
 Total energy in the final basis set = -646.97972684
 
 --------------------------------------------------------------
 
                    Orbital Energies (a.u.)
 --------------------------------------------------------------
 
 Alpha MOs
 -- Occupied --
-19.267 -19.184 -19.177 -19.170 -19.140 -19.140 -10.386 -10.341
-10.297 -10.261 -10.242  -1.240  -1.146  -1.143  -1.116  -1.049
 -0.950  -0.868  -0.864  -0.736  -0.658  -0.613  -0.609  -0.593
 -0.573  -0.569  -0.552  -0.538  -0.515  -0.502  -0.500  -0.492
 -0.471  -0.466  -0.459  -0.444  -0.408  -0.384  -0.367  -0.347
 -0.334  -0.330  -0.328  -0.312
 -- Virtual --
  0.060   0.072   0.075   0.084   0.099   0.099   0.107   0.110
  0.113   0.120   0.133   0.134   0.139   0.142   0.149   0.153
  0.159   0.169   0.172   0.176   0.185   0.190   0.191   0.203
  0.206   0.214   0.218   0.229   0.236   0.241   0.244   0.255
  0.259   0.263   0.268   0.269   0.278   0.288   0.294   0.302
  0.306   0.306   0.316   0.325   0.334   0.338   0.342   0.346
  0.350   0.353   0.354   0.362   0.371   0.373   0.381   0.388
  0.396   0.400   0.406   0.409   0.413   0.418   0.424   0.426
  0.433   0.434   0.437   0.445   0.452   0.457   0.463   0.469
  0.472   0.476   0.480   0.485   0.488   0.495   0.506   0.510
  0.515   0.523   0.529   0.534   0.541   0.544   0.549   0.553
  0.560   0.563   0.567   0.578   0.587   0.590   0.599   0.607
  0.610   0.617   0.620   0.630   0.634   0.643   0.653   0.659
  0.664   0.672   0.677   0.681   0.686   0.695   0.700   0.712
  0.714   0.717   0.720   0.725   0.729   0.740   0.746   0.752
  0.756   0.762   0.773   0.774   0.787   0.788   0.796   0.797
  0.807   0.811   0.825   0.831   0.835   0.839   0.846   0.849
  0.858   0.865   0.874   0.882   0.886   0.896   0.906   0.913
  0.921   0.932   0.937   0.954   0.962   0.965   0.971   0.984
  0.991   1.004   1.021   1.033   1.041   1.047   1.050   1.060
  1.079   1.094   1.099   1.119   1.122   1.138   1.140   1.155
  1.168   1.185   1.196   1.207   1.219   1.232   1.237   1.259
  1.264   1.281   1.303   1.310   1.330   1.336   1.342   1.345
  1.358   1.373   1.391   1.402   1.412   1.424   1.427   1.434
  1.467   1.477   1.502   1.517   1.520   1.533   1.551   1.583
  1.603   1.617   1.644   1.653   1.758   1.771   1.819   1.864
  1.869   1.886   1.894   1.901   1.918   1.921   1.932   1.948
  1.948   1.960   1.975   1.986   1.997   2.001   2.006   2.018
  2.036   2.040   2.058   2.073   2.088   2.107   2.123   2.149
  2.158   2.165   2.190   2.194   2.217   2.218   2.245   2.271
  2.276   2.287   2.302   2.327   2.350   2.365   2.380   2.389
  2.411   2.412   2.419   2.440   2.464   2.476   2.481   2.500
  2.511   2.537   2.549   2.570   2.607   2.628   2.633   2.647
  2.663   2.684   2.694   2.725   2.763   2.783   2.801   2.823
  2.840   2.857   2.871   2.883   2.893   2.900   2.932   2.948
  2.970   2.978   2.999   3.011   3.020   3.051   3.075   3.102
  3.140   3.177   3.184   3.187   3.218   3.238   3.251   3.261
  3.270   3.284   3.303   3.329   3.348   3.360   3.363   3.376
  3.383   3.403   3.418   3.428   3.434   3.445   3.452   3.462
  3.479   3.493   3.514   3.519   3.530   3.557   3.573   3.589
  3.605   3.616   3.633   3.647   3.650   3.676   3.687   3.705
  3.726   3.726   3.746   3.749   3.757   3.767   3.775   3.797
  3.821   3.867   3.919   3.931   3.952   4.017   4.067   4.073
  4.092   4.104   4.142   4.176   4.235   4.254   4.310   4.323
  4.398   4.426   4.500   4.580   4.608   4.613   4.629   4.682
  4.743   4.802   4.806   4.834   4.859   4.869   4.897   4.966
  5.018   5.084   5.146   5.152   5.157   5.294   5.315   5.320
  5.352   5.354   5.359   5.374   5.387   5.392   5.442   5.456
  5.495   5.504   5.552   5.634   5.675   5.707   5.713   5.716
  5.761   5.775   5.982   5.990   5.996   6.057   6.131   6.155
  6.185   6.263   6.298   6.313   6.325   6.330   6.453   6.515
  6.617   6.628   6.643   6.657   6.667   6.698   6.706   6.737
  6.753   6.763   6.780   6.805   6.898   6.921   6.944   6.968
  6.970   7.002   7.021   7.049   7.060   7.133   7.205   7.232
  7.254   7.319   7.338   7.365   7.378   7.419   7.481   7.485
  7.561   8.354  22.687  22.835  22.843  23.631  23.704  44.145
 44.337  44.406  44.422  44.448  44.659
 --------------------------------------------------------------
 
          Ground-State Mulliken Net Atomic Charges

     Atom                 Charge (a.u.)
  ----------------------------------------
      1 C                     0.130698
      2 C                     0.135133
      3 O                    -0.702742
      4 O                    -0.692554
      5 C                    -0.402662
      6 H                     0.121085
      7 H                     0.154786
      8 O                    -0.589506
      9 H                     0.273340
     10 H                     0.140090
     11 C                     0.442409
     12 C                    -0.427484
     13 H                     0.222793
     14 H                     0.159169
     15 H                     0.191256
     16 O                    -0.604848
     17 O                    -0.120423
     18 O                    -0.772041
     19 H                     0.341502
  ----------------------------------------
  Sum of atomic charges =    -2.000000

 -----------------------------------------------------------------
                    Cartesian Multipole Moments
 -----------------------------------------------------------------
    Charge (ESU x 10^10)
[...]
 IR Active:          YES                    YES                    YES
 IR Intens:       25.163                191.173                 25.887
 Raman Active:       YES                    YES                    YES
               X      Y      Z        X      Y      Z        X      Y      Z
 C         -0.017  0.072  0.191   -0.012 -0.015  0.025   -0.003 -0.015 -0.013
 C          0.026  0.022 -0.040   -0.041 -0.011  0.038    0.002  0.007  0.013
 O         -0.045 -0.004 -0.020    0.018  0.014  0.009   -0.018 -0.004 -0.016
 O          0.008 -0.058 -0.007    0.001 -0.013 -0.016    0.005 -0.019 -0.007
 C          0.051 -0.047 -0.148   -0.308  0.296 -0.189    0.032  0.089  0.061
 H          0.336 -0.464  0.180    0.021 -0.157  0.237    0.114 -0.329  0.392
 H         -0.534  0.176 -0.042    0.013 -0.243  0.245   -0.099  0.346 -0.352
 O         -0.011  0.024  0.022    0.281 -0.211  0.103   -0.010 -0.017 -0.022
 H         -0.144  0.171  0.063   -0.265  0.287 -0.264    0.314 -0.303  0.042
 H          0.382  0.093 -0.158   -0.232  0.300 -0.207   -0.385  0.155 -0.131
 C          0.003  0.003  0.002    0.007  0.001  0.009    0.002  0.000  0.001
 C         -0.002 -0.003 -0.003   -0.004 -0.008 -0.008   -0.001 -0.002  0.000
 H          0.003  0.012  0.000    0.008  0.035  0.001    0.002  0.008  0.000
 H         -0.004 -0.010  0.016   -0.008 -0.021  0.028    0.000 -0.002 -0.000
 H          0.008  0.011 -0.003    0.028  0.044 -0.012    0.005  0.005  0.002
 O         -0.002  0.001  0.000    0.000 -0.001 -0.004   -0.000  0.000 -0.000
 O          0.000 -0.005 -0.000   -0.008  0.014  0.002    0.001  0.002  0.001
 O          0.002  0.002  0.001   -0.005 -0.019 -0.002   -0.005  0.002 -0.002
 H         -0.026  0.083 -0.029    0.155  0.052 -0.006    0.110 -0.245  0.050
 TransDip   0.052  0.151  0.015   -0.278  0.298 -0.172    0.104  0.032  0.121

 Mode:                31                     32                     33
 Frequency:      1277.02                1317.17                1329.89
 Force Cnst:      1.4019                 1.1217                 2.7311
 Red. Mass:       1.4591                 1.0974                 2.6210
 IR Active:          YES                    YES                    YES
 IR Intens:        3.622                 10.305                373.550
 Raman Active:       YES                    YES                    YES
               X      Y      Z        X      Y      Z        X      Y      Z
 C          0.038 -0.122  0.115   -0.031 -0.045 -0.048    0.000  0.005 -0.001
 C          0.058  0.001 -0.035   -0.001  0.008  0.008    0.005 -0.005  0.001
 O         -0.032 -0.016 -0.018   -0.002 -0.001 -0.002   -0.002 -0.001 -0.002
 O         -0.007  0.030  0.022    0.001 -0.008 -0.004   -0.000  0.004  0.002
 C         -0.026  0.005  0.030    0.023  0.029  0.023    0.001 -0.009  0.007
 H         -0.186  0.401 -0.404   -0.014 -0.198  0.322   -0.008  0.017 -0.007
 H         -0.154  0.457 -0.449    0.068  0.179 -0.220   -0.012 -0.021  0.019
 O          0.023 -0.008 -0.011    0.005  0.011  0.015   -0.003 -0.003 -0.004
 H         -0.111  0.209 -0.221   -0.134  0.394 -0.435   -0.012  0.013 -0.011
 H         -0.108  0.162 -0.139    0.144 -0.410  0.442   -0.022  0.046 -0.048
 C          0.001  0.000 -0.002   -0.007  0.001  0.009   -0.161 -0.014  0.271
 C         -0.000  0.000  0.000    0.003  0.002 -0.003    0.036 -0.070 -0.009
 H         -0.001 -0.002 -0.000   -0.003 -0.008 -0.000    0.218  0.435 -0.065
 H          0.001 -0.001  0.001   -0.004  0.001  0.006   -0.260  0.259 -0.340
 H         -0.001 -0.004  0.002   -0.007  0.003 -0.012    0.002  0.483 -0.363
 O         -0.000  0.000  0.000    0.001 -0.001 -0.001    0.009  0.014 -0.023
 O         -0.001 -0.000  0.001    0.002 -0.002 -0.004    0.098 -0.047 -0.129
 O          0.002 -0.001  0.000    0.002  0.000  0.001   -0.008  0.024  0.004
 H         -0.027  0.070 -0.001   -0.038  0.119 -0.038    0.026 -0.007  0.020
 TransDip   0.000  0.048 -0.038   -0.019  0.093  0.039   -0.320  0.337  0.409

 Mode:                34                     35                     36
 Frequency:      1403.07                1407.55                1426.35
 Force Cnst:      1.6365                 1.9767                 5.0846
 Red. Mass:       1.4110                 1.6934                 4.2418
 IR Active:          YES                    YES                    YES
 IR Intens:      118.861                187.499                302.467
 Raman Active:       YES                    YES                    YES
               X      Y      Z        X      Y      Z        X      Y      Z
 C          0.040 -0.054  0.042    0.023 -0.027  0.022   -0.007  0.047 -0.057
 C         -0.028  0.028 -0.016   -0.004  0.006 -0.006    0.303 -0.248  0.100
 O          0.012  0.004  0.012    0.001  0.000  0.002   -0.153 -0.047 -0.131
 O          0.001 -0.017 -0.005   -0.000 -0.001  0.000   -0.030  0.197  0.073
 C         -0.027  0.086 -0.100   -0.017  0.049 -0.057   -0.020  0.036 -0.053
 H         -0.024  0.111 -0.154   -0.026  0.079 -0.074   -0.250  0.214  0.403
 H         -0.008  0.132 -0.135   -0.031  0.056 -0.064   -0.474 -0.220  0.092
 O         -0.010  0.006  0.012   -0.007  0.000  0.007   -0.002  0.000  0.017
 H          0.123 -0.311  0.464    0.084 -0.198  0.265    0.118 -0.187  0.081
 H          0.098 -0.456  0.419    0.056 -0.235  0.216    0.211 -0.159  0.179
 C          0.029 -0.005 -0.044   -0.079  0.004  0.124    0.009  0.000 -0.013
 C         -0.016 -0.043  0.059    0.037  0.091 -0.131   -0.004 -0.005  0.015
 H          0.141  0.113 -0.170   -0.300 -0.241  0.360    0.025 -0.027 -0.064
 H          0.013  0.074 -0.223   -0.020 -0.155  0.458    0.037 -0.011 -0.023
 H         -0.041  0.195 -0.106    0.098 -0.368  0.200   -0.027  0.053 -0.041
 O         -0.006  0.009  0.004    0.013 -0.016 -0.011   -0.002  0.002  0.001
 O         -0.012  0.005  0.016    0.036 -0.013 -0.049   -0.004  0.002  0.007
 O         -0.002 -0.004 -0.002   -0.004  0.005  0.002   -0.001  0.000 -0.001
 H         -0.013 -0.043  0.013    0.010 -0.018 -0.011    0.070 -0.103  0.010
 TransDip  -0.092  0.101 -0.321   -0.294  0.166  0.280    0.396 -0.367  0.138

 Mode:                37                     38                     39
 Frequency:      1444.45                1452.27                1478.87
 Force Cnst:      1.3239                 1.3018                 1.6337
 Red. Mass:       1.0770                 1.0476                 1.2678
 IR Active:          YES                    YES                    YES
 IR Intens:       19.812                 14.336                 60.943
 Raman Active:       YES                    YES                    YES
               X      Y      Z        X      Y      Z        X      Y      Z
 C         -0.001  0.000 -0.001   -0.001  0.000 -0.001   -0.091  0.029  0.027
 C          0.006 -0.005  0.002    0.002 -0.002  0.001    0.063 -0.057  0.031
 O         -0.003 -0.001 -0.003   -0.001 -0.000 -0.001   -0.030 -0.009 -0.027
 O         -0.001  0.004  0.001   -0.000  0.001  0.000   -0.006  0.038  0.013
 C          0.001  0.002 -0.003    0.002 -0.003 -0.000    0.018  0.008 -0.023
 H         -0.003  0.000  0.006   -0.000 -0.001  0.002    0.303 -0.383 -0.447
 H         -0.003  0.000 -0.001    0.001 -0.000  0.000    0.614  0.230  0.021
 O          0.000  0.000  0.001    0.000  0.002 -0.001    0.005 -0.006  0.003
 H         -0.010  0.010  0.018   -0.018  0.023  0.003   -0.111  0.119  0.167
 H         -0.011 -0.024  0.016   -0.012 -0.010  0.003   -0.211 -0.094  0.002
 C          0.016  0.020 -0.047   -0.021 -0.011 -0.011   -0.000 -0.001  0.003
 C          0.017 -0.031 -0.022   -0.048 -0.018 -0.016    0.001  0.001 -0.000
 H          0.041  0.555  0.338   -0.203  0.001  0.362    0.000 -0.011 -0.009
 H         -0.491  0.304 -0.135    0.375 -0.057 -0.393    0.004 -0.006  0.012
 H          0.109 -0.364  0.270    0.576  0.309  0.309   -0.009  0.000 -0.008
 O          0.008 -0.026  0.006    0.001  0.004  0.001   -0.000  0.001 -0.000
 O         -0.010  0.003  0.016    0.004  0.001  0.002    0.000 -0.000 -0.001
 O         -0.000 -0.000  0.001    0.000  0.000 -0.000    0.000  0.000  0.000
 H          0.004 -0.005 -0.001    0.005 -0.020  0.027    0.016 -0.008  0.000
 TransDip  -0.007  0.138 -0.037    0.112  0.009  0.047    0.209 -0.130  0.041

 Mode:                40                     41                     42
 Frequency:      1508.25                1569.78                1582.53
 Force Cnst:      1.4580                 1.6358                12.9798
 Red. Mass:       1.0878                 1.1267                 8.7966
 IR Active:          YES                    YES                    YES
 IR Intens:        4.143                 78.806               1283.792
 Raman Active:       YES                    YES                    YES
               X      Y      Z        X      Y      Z        X      Y      Z
 C         -0.022  0.001  0.013   -0.008  0.001 -0.005   -0.016 -0.039 -0.034
 C          0.003 -0.005  0.005    0.021  0.017  0.022    0.261  0.505  0.428
 O         -0.001 -0.000 -0.002   -0.013 -0.006 -0.011   -0.176 -0.109 -0.176
 O         -0.000  0.002  0.000   -0.001 -0.007 -0.004   -0.004 -0.239 -0.119
 C         -0.073  0.017  0.029    0.048  0.036  0.014   -0.022 -0.019 -0.011
 H          0.095 -0.107 -0.170   -0.009 -0.009  0.053   -0.168  0.261 -0.148
 H          0.199  0.100 -0.021   -0.008 -0.010  0.010    0.187 -0.193  0.185
 O         -0.005  0.001  0.002   -0.006 -0.060 -0.005    0.002  0.021  0.002
 H          0.346 -0.408 -0.406    0.148 -0.118  0.098   -0.056  0.028 -0.013
 H          0.626  0.208  0.059   -0.114  0.046 -0.041    0.052 -0.008  0.004
 C         -0.002 -0.000 -0.001   -0.003  0.002 -0.001    0.001 -0.002  0.002
 C         -0.000 -0.002 -0.000   -0.001 -0.002  0.001    0.000  0.001 -0.001
 H         -0.003  0.017  0.017   -0.002  0.005  0.007    0.000 -0.001 -0.002
 H         -0.005  0.011 -0.022    0.008  0.004 -0.021   -0.004 -0.001  0.007
 H          0.017  0.003  0.012    0.014  0.012  0.005   -0.004 -0.005 -0.002
 O          0.001 -0.001  0.000    0.001 -0.001  0.000   -0.001  0.002 -0.000
 O          0.000 -0.000 -0.000   -0.002 -0.007 -0.002    0.001  0.002 -0.000
 O         -0.001 -0.001 -0.000    0.010 -0.004  0.003   -0.004  0.001 -0.001
 H         -0.039  0.027 -0.004   -0.539  0.777 -0.175    0.186 -0.272  0.066
 TransDip   0.020  0.019 -0.059   -0.107  0.262  0.029    0.444  0.792  0.702

 Mode:                43                     44                     45
 Frequency:      1717.23                2959.86                3012.20
 Force Cnst:     18.4388                 5.5558                 5.7315
 Red. Mass:      10.6127                 1.0764                 1.0721
 IR Active:          YES                    YES                    YES
 IR Intens:      780.325               1994.435                384.924
 Raman Active:       YES                    YES                    YES
               X      Y      Z        X      Y      Z        X      Y      Z
 C          0.001 -0.001  0.002   -0.001 -0.001  0.001    0.000  0.003  0.002
 C         -0.002  0.003  0.000   -0.001  0.000 -0.000    0.001 -0.001 -0.000
 O          0.001 -0.000  0.000    0.000 -0.000  0.000   -0.000  0.000 -0.000
 O          0.000 -0.002 -0.001    0.000 -0.000  0.000   -0.000  0.000  0.000
 C         -0.002  0.002 -0.003    0.019 -0.002 -0.017    0.029 -0.038 -0.052
 H          0.001  0.003 -0.018    0.013  0.011  0.003   -0.019 -0.011 -0.003
 H          0.009  0.001  0.001    0.002 -0.009 -0.011    0.008 -0.028 -0.030
 O         -0.004 -0.002 -0.001   -0.049 -0.035 -0.020    0.020  0.012  0.009
 H         -0.004 -0.007  0.013   -0.169 -0.150 -0.040   -0.161 -0.114 -0.053
 H         -0.011 -0.004 -0.002   -0.060  0.197  0.232   -0.204  0.590  0.662
 C         -0.237  0.711 -0.089    0.003 -0.003 -0.003   -0.001  0.001  0.001
 C          0.001 -0.081  0.055   -0.001  0.001  0.001    0.000 -0.000 -0.001
 H          0.002 -0.200 -0.049   -0.000 -0.000 -0.001    0.002 -0.001  0.001
 H          0.135 -0.144  0.048    0.001 -0.002 -0.000    0.000  0.001  0.001
 H         -0.034  0.299 -0.160    0.006 -0.005 -0.007   -0.004  0.003  0.004
 O          0.171 -0.428  0.009   -0.001  0.002  0.001    0.000 -0.001 -0.000
 O         -0.009 -0.042  0.042   -0.002  0.001  0.002    0.000 -0.000 -0.001
 O          0.010  0.002 -0.013    0.005  0.002  0.002   -0.001 -0.001 -0.001
 H          0.063 -0.015  0.003    0.709  0.504  0.299   -0.270 -0.193 -0.110
 TransDip  -0.320  0.834  0.046    1.128  0.676  0.564   -0.213 -0.411 -0.425

 Mode:                46                     47                     48
 Frequency:      3069.90                3072.19                3082.44
 Force Cnst:      5.8773                 6.0838                 5.7958
 Red. Mass:       1.0585                 1.0940                 1.0353
 IR Active:          YES                    YES                    YES
 IR Intens:       44.539                  2.310                  4.653
 Raman Active:       YES                    YES                    YES
               X      Y      Z        X      Y      Z        X      Y      Z
 C         -0.058  0.010  0.034    0.008  0.012  0.008   -0.001 -0.001  0.000
 C          0.002 -0.002  0.001   -0.001  0.000  0.000    0.000 -0.000  0.000
 O         -0.000 -0.000 -0.000    0.000  0.000  0.000   -0.000 -0.000 -0.000
 O         -0.000  0.000  0.000    0.000 -0.000  0.000   -0.000  0.000 -0.000
 C         -0.003  0.001 -0.000   -0.058 -0.057 -0.029    0.001  0.001  0.001
 H          0.544  0.371  0.137   -0.123 -0.079 -0.030    0.017  0.011  0.004
 H          0.130 -0.483 -0.540    0.024 -0.072 -0.080    0.001 -0.004 -0.004
 O          0.001  0.000  0.000   -0.008 -0.004 -0.004   -0.000 -0.000 -0.000
 H          0.021  0.014  0.005    0.752  0.533  0.173   -0.014 -0.010 -0.003
 H          0.004 -0.012 -0.012   -0.062  0.145  0.176    0.002 -0.004 -0.005
 C         -0.000  0.000  0.000    0.000 -0.000 -0.000   -0.000 -0.001  0.001
 C         -0.000 -0.001  0.000    0.000  0.001 -0.001    0.006  0.038 -0.032
 H         -0.008  0.003 -0.004    0.011 -0.004  0.005    0.512 -0.167  0.233
 H          0.005  0.010  0.005   -0.006 -0.011 -0.005   -0.266 -0.491 -0.237
 H          0.006 -0.004 -0.007   -0.006  0.004  0.007   -0.312  0.224  0.370
 O          0.000 -0.000 -0.000   -0.000  0.000  0.000    0.000 -0.000  0.000
 O         -0.000 -0.000 -0.000   -0.000  0.000  0.000   -0.000  0.000 -0.000
 O         -0.000 -0.000 -0.000    0.001  0.000  0.000   -0.000 -0.000  0.000
 H         -0.008 -0.008 -0.003    0.118  0.076  0.051    0.002  0.002  0.001
 TransDip  -0.179  0.043  0.109   -0.019 -0.027  0.036    0.035 -0.011 -0.058

 Mode:                49                     50                     51
 Frequency:      3125.29                3158.31                3181.62
 Force Cnst:      6.3718                 6.4654                 6.5978
 Red. Mass:       1.1072                 1.1001                 1.1062
 IR Active:          YES                    YES                    YES
 IR Intens:       59.103                  2.558                 12.618
 Raman Active:       YES                    YES                    YES
               X      Y      Z        X      Y      Z        X      Y      Z
 C         -0.038 -0.068 -0.051    0.000 -0.000 -0.000    0.000  0.000  0.000
 C         -0.001 -0.002 -0.002   -0.000  0.000  0.000    0.000 -0.000  0.000
 O          0.000  0.000  0.001   -0.000  0.000  0.000    0.000 -0.000 -0.000
 O          0.000  0.000  0.000   -0.000 -0.000  0.000    0.000  0.000 -0.000
 C         -0.010 -0.013 -0.008   -0.000  0.000  0.000   -0.000  0.000  0.000
 H          0.592  0.390  0.134   -0.001 -0.001 -0.000   -0.001 -0.001 -0.000
 H         -0.129  0.428  0.485   -0.000  0.001  0.001    0.000 -0.001 -0.001
 O         -0.000  0.000 -0.000   -0.000 -0.000 -0.000   -0.001 -0.000 -0.000
 H          0.134  0.098  0.029    0.000 -0.000 -0.000    0.000 -0.000  0.000
 H         -0.019  0.053  0.064    0.001 -0.001 -0.001    0.001 -0.001 -0.001
 C         -0.000  0.000  0.000   -0.001 -0.000 -0.000    0.001 -0.002 -0.000
 C          0.000 -0.000  0.000   -0.072 -0.032 -0.047    0.057 -0.060 -0.046
 H         -0.005  0.001 -0.002    0.601 -0.216  0.274   -0.350  0.112 -0.171
 H          0.003  0.005  0.002    0.300  0.587  0.267    0.160  0.272  0.126
 H          0.002 -0.001 -0.002   -0.037  0.016  0.027   -0.492  0.349  0.589
 O          0.000 -0.000 -0.000   -0.000 -0.000 -0.000   -0.000  0.001  0.000
 O         -0.000  0.000 -0.000   -0.000 -0.000 -0.000   -0.000 -0.000  0.000
 O          0.000 -0.000 -0.000    0.000  0.000  0.000    0.000  0.000 -0.000
 H          0.009  0.001  0.005    0.002  0.002  0.001    0.008  0.006  0.004
 TransDip  -0.086 -0.187 -0.136   -0.040 -0.013 -0.029    0.083 -0.033 -0.071

 STANDARD THERMODYNAMIC QUANTITIES AT   298.15 K  AND     1.00 ATM

   This Molecule has  0 Imaginary Frequencies
   Zero point vibrational energy:       86.191 kcal/mol

   Atom    1 Element C  Has Mass   12.00000
   Atom    2 Element C  Has Mass   12.00000
   Atom    3 Element O  Has Mass   15.99491
   Atom    4 Element O  Has Mass   15.99491
   Atom    5 Element C  Has Mass   12.00000
   Atom    6 Element H  Has Mass    1.00783
   Atom    7 Element H  Has Mass    1.00783
   Atom    8 Element O  Has Mass   15.99491
   Atom    9 Element H  Has Mass    1.00783
   Atom   10 Element H  Has Mass    1.00783
   Atom   11 Element C  Has Mass   12.00000
   Atom   12 Element C  Has Mass   12.00000
   Atom   13 Element H  Has Mass    1.00783
   Atom   14 Element H  Has Mass    1.00783
   Atom   15 Element H  Has Mass    1.00783
   Atom   16 Element O  Has Mass   15.99491
   Atom   17 Element O  Has Mass   15.99491
   Atom   18 Element O  Has Mass   15.99491
   Atom   19 Element H  Has Mass    1.00783
   Molecular Mass:   164.032100 amu
   Principal axes and moments of inertia in amu*Bohr^2:
                             1           2           3
    Eigenvalues --     1175.85987  3079.89904  3717.63936
          X               0.58435    -0.25030     0.77193
          Y               0.05554     0.96135     0.26967
          Z               0.80960     0.11471    -0.57567
   Rotational Symmetry Number is   1
   The Molecule is an Asymmetric Top
   Translational Enthalpy:        0.889 kcal/mol
   Rotational Enthalpy:           0.889 kcal/mol
   Vibrational Enthalpy:         92.453 kcal/mol
   gas constant (RT):             0.592 kcal/mol
   Translational Entropy:        41.193  cal/mol.K
   Rotational Entropy:           30.977  cal/mol.K
   Vibrational Entropy:          46.474  cal/mol.K

   Total Enthalpy:               94.823 kcal/mol
   Total Entropy:               118.644  cal/mol.K
Archival summary:
1\1\c5-83\FREQ\ProcedureUnspecified\BasisUnspecified\658(2-,1)\leeping\SatMar2113:47:132020SatMar2113:47:132020\0\\#,FREQ,ProcedureUnspecified,BasisUnspecified,\\-2,1\O\C,1,1.32548\O,2,1.22389,1,117.735\O,1,1.43844,2,115.381,3,-179.564,0\C,2,1.50051,1,118.593,3,-179.985,0\H,5,1.08966,2,108.619,1,179.251,0\H,5,1.09177,2,109.964,1,58.0922,0\H,5,1.09231,2,110.063,1,-59.6934,0\H,4,1.63064,1,102.688,2,82.193,0\O,9,1.00552,4,177.834,1,-105.566,0\C,10,1.41657,9,108.468,4,112.222,0\H,11,1.0963,10,107.288,9,-171.202,0\H,11,1.10097,10,110.602,9,-54.5281,0\C,11,1.52994,10,112.775,9,68.118,0\H,14,1.09417,11,108.948,10,59.621,0\H,14,1.0942,11,108.738,10,-59.3096,0\C,14,1.53412,11,110.143,10,-179.514,0\O,17,1.25972,14,117.33,11,-91.7532,0\O,17,1.26021,14,117.136,11,86.2889,0\\\@

 Total job time:  47843.13s(wall), 664767.66s(cpu) 
 Sat Mar 21 13:47:13 2020

        *************************************************************
        *                                                           *
        *  Thank you very much for using Q-Chem.  Have a nice day.  *
        *                                                           *
        *************************************************************


