
Running Job 1 of 1 qc-freq1.in
qchem qc-freq1.in_27494.0 /scratch/leeping/1862740/qc-freq1.d/ 1
/home/leeping/opt/qchem/5.0.2-openmp/exe/qcprog.exe_s qc-freq1.in_27494.0 /scratch/leeping/1862740/qc-freq1.d/
Check license passed

                  Welcome to Q-Chem
     A Quantum Leap Into The Future Of Chemistry


 Q-Chem 5.0, Q-Chem, Inc., Pleasanton, CA (2017)

 Yihan Shao,  Zhengting Gan,  E. Epifanovsky,  A. T. B. Gilbert,  M. Wormit,  
 J. Kussmann,  A. W. Lange,  A. Behn,  Jia Deng,  Xintian Feng,  D. Ghosh,  
 M. Goldey,  P. R. Horn,  L. D. Jacobson,  I. Kaliman,  T. Kus,  A. Landau,  
 Jie Liu,  E. I. Proynov,  R. M. Richard,  R. P. Steele,  E. J. Sundstrom,  
 H. L. Woodcock III,  P. M. Zimmerman,  D. Zuev,  B. Albrecht,  E. Alguire,  
 S. A. Baeppler,  D. Barton,  Z. Benda,  Y. A. Bernard,  E. J. Berquist,  
 K. B. Bravaya,  H. Burton,  D. Casanova,  Chun-Min Chang,  Yunqing Chen,  
 A. Chien,  K. D. Closser,  M. P. Coons,  S. Dasgupta,  A. L. Dempwolff,  
 M. Diedenhofen,  Hainam Do,  R. G. Edgar,  Po-Tung Fang,  S. Fatehi,  
 Qingguo Feng,  J. Fosso-Tande,  Qinghui Ge,  A. Ghysels,  G. Gidofalvi,  
 J. Gomes,  J. Gonthier,  A. Gunina,  M. W. D. Hanson-Heine,  
 P. H. P. Harbach,  A. W. Hauser,  J. E. Herr,  E. G. Hohenstein,  
 Z. C. Holden,  Kerwin Hui,  T.-C. Jagau,  Hyunjun Ji,  B. Kaduk,  
 K. Khistyaev,  Jaehoon Kim,  P. Klunzinger,  K. Koh,  D. Kosenkov,  
 L. Koulias,  T. Kowalczyk,  C. M. Krauter,  A. Kunitsa,  Ka Un Lao,  
 A. Laurent,  K. V. Lawler,  Joonho Lee,  D. Lefrancois,  S. Lehtola,  
 D. S. Levine,  Yi-Pei Li,  You-Sheng Lin,  Fenglai Liu,  E. Livshits,  
 A. Luenser,  P. Manohar,  E. Mansoor,  S. F. Manzer,  Shan-Ping Mao,  
 Yuezhi Mao,  N. Mardirossian,  A. V. Marenich,  T. Markovich,  
 L. A. Martinez-Martinez,  S. A. Maurer,  N. J. Mayhall,  S. C. McKenzie,  
 J.-M. Mewes,  A. F. Morrison,  J. W. Mullinax,  K. Nanda,  
 T. S. Nguyen-Beck,  R. Olivares-Amaya,  J. A. Parkhill,  T. M. Perrine,  
 F. Plasser,  S. Prager,  A. Prociuk,  E. Ramos,  D. R. Rehn,  F. Rob,  
 M. Schneider,  N. Sergueev,  S. M. Sharada,  S. Sharma,  D. W. Small,  
 T. Stauch,  T. Stein,  Yu-Chuan Su,  A. J. W. Thom,  A. Tkatchenko,  
 T. Tsuchimochi,  L. Vogt,  O. Vydrov,  M. A. Watson,  J. Wenzel,  
 M. de Wergifosse,  T. A. Wesolowski,  A. White,  J. Witte,  A. Yamada,  
 Jun Yang,  K. Yao,  S. Yeganeh,  S. R. Yost,  Zhi-Qiang You,  A. Zech,  
 Igor Ying Zhang,  Xing Zhang,  Yan Zhao,  Ying Zhu,  B. R. Brooks,  
 G. K. L. Chan,  C. J. Cramer,  M. S. Gordon,  W. J. Hehre,  A. Klamt,  
 M. W. Schmidt,  C. D. Sherrill,  D. G. Truhlar,  A. Aspuru-Guzik,  R. Baer,  
 A. T. Bell,  N. A. Besley,  Jeng-Da Chai,  R. A. DiStasio Jr.,  A. Dreuw,  
 B. D. Dunietz,  T. R. Furlani,  Chao-Ping Hsu,  Yousung Jung,  Jing Kong,  
 D. S. Lambrecht,  WanZhen Liang,  C. Ochsenfeld,  V. A. Rassolov,  
 L. V. Slipchenko,  J. E. Subotnik,  T. Van Voorhis,  J. M. Herbert,  
 A. I. Krylov,  P. M. W. Gill,  M. Head-Gordon

 Contributors to earlier versions of Q-Chem not listed above: 
 R. D. Adamson,  B. Austin,  J. Baker,  G. J. O. Beran,  K. Brandhorst,  
 S. T. Brown,  E. F. C. Byrd,  A. K. Chakraborty,  C.-L. Cheng,  
 Siu Hung Chien,  D. M. Chipman,  D. L. Crittenden,  H. Dachsel,  
 R. J. Doerksen,  A. D. Dutoi,  L. Fusti-Molnar,  W. A. Goddard III,  
 A. Golubeva-Zadorozhnaya,  S. R. Gwaltney,  G. Hawkins,  A. Heyden,  
 S. Hirata,  G. Kedziora,  F. J. Keil,  C. Kelley,  Jihan Kim,  R. A. King,  
 R. Z. Khaliullin,  P. P. Korambath,  W. Kurlancheek,  A. M. Lee,  M. S. Lee,  
 S. V. Levchenko,  Ching Yeh Lin,  D. Liotard,  R. C. Lochan,  I. Lotan,  
 P. E. Maslen,  N. Nair,  D. P. O'Neill,  D. Neuhauser,  E. Neuscamman,  
 C. M. Oana,  R. Olson,  B. Peters,  R. Peverati,  P. A. Pieniazek,  
 Y. M. Rhee,  J. Ritchie,  M. A. Rohrdanz,  E. Rosta,  N. J. Russ,  
 H. F. Schaefer III,  N. E. Schultz,  N. Shenvi,  A. C. Simmonett,  A. Sodt,  
 D. Stuck,  K. S. Thanthiriwatte,  V. Vanovschi,  Tao Wang,  A. Warshel,  
 C. F. Williams,  Q. Wu,  X. Xu,  W. Zhang

 Please cite Q-Chem as follows:
 Y. Shao et al., Mol. Phys. 113, 184-215 (2015)
 DOI: 10.1080/00268976.2014.952696

 Q-Chem 5.0.2 for Intel X86 EM64T Linux

 Parts of Q-Chem use Armadillo 5.200.1 (Boston Tea Smuggler).
 http://arma.sourceforge.net/

 Q-Chem begins on Fri Mar 20 16:38:05 2020  

Host: 
0

     Scratch files written to /scratch/leeping/1862740/qc-freq1.d//
 Dec517 15110_ 26548  26544 5633   
Processing $rem in /home/leeping/opt/qchem/5.0.2-openmp/config/preferences.
 MEM_STATIC 2000
 MEM_TOTAL  8000
 SYMMETRY   OFF
 SYM_IGNORE TRUE 
Symmetry turned off for PCM/SM12/SMD calculation

Checking the input file for inconsistencies... 	...done.

--------------------------------------------------------------
User input:
--------------------------------------------------------------
$molecule
-2 1
C       -2.7844910152   -0.1446053999   -0.0521519864
H       -2.8412634970   -0.0232708130   -1.1373253196
H       -2.9819023665   -1.1900434862    0.2021176070
H       -3.5441613993    0.4847125750    0.4184886303
C       -1.4128347521    0.2597810223    0.4784132201
C        0.8867565681   -0.2645190796    0.0634784718
H        1.0631317065   -0.7978046766    1.0052195529
H        1.1054974961    0.7978114010    0.2259930110
C        1.7795779362   -0.8203494714   -1.0368093182
H        1.5476406289   -1.8783360958   -1.1917324275
H        1.5844063295   -0.2733160737   -1.9644356180
C        3.2563504033   -0.6589485136   -0.6452404357
O        3.7971622058   -1.6096998628   -0.0212126165
O        3.8143411883    0.4273024761   -0.9536893848
O       -0.4661639591   -0.4185159788   -0.3461035008
O       -1.2204949852    1.7195825027    0.0612116049
O       -1.2096162396    2.5121009826    1.2528580447
O       -1.2324264739    0.1495452844    1.7685916386
H       -1.1577495115    1.7355280703    1.8998395166
$end

$rem
jobtype               freq
method                wb97x-v
basis                 def2-tzvpd
symmetry              off
sym_ignore            true
incdft                false
incfock               0
!scf_algorithm        diis_gdm
scf_convergence       8
thresh                14
!purecart             112
max_scf_cycles        1000
geom_opt_max_cycles   500
geom_opt_dmax         100
geom_opt_tol_gradient 10
solvent_method        pcm
ideriv                1
rpath_tol_displacement 1000
rpath_max_cycles      100
rpath_direction       1
!scf_guess            read
scf_guess             read
$end

$pcm
theory              cosmo
method              iswig
Radii               bondi
vdwScale            1.20
hpoints             110
heavypoints         110
$end

$solvent
dielectric 78.400000
$end

--------------------------------------------------------------
 ----------------------------------------------------------------
             Standard Nuclear Orientation (Angstroms)
    I     Atom           X                Y                Z
 ----------------------------------------------------------------
    1      C      -2.7844910152    -0.1446053999    -0.0521519864
    2      H      -2.8412634970    -0.0232708130    -1.1373253196
    3      H      -2.9819023665    -1.1900434862     0.2021176070
    4      H      -3.5441613993     0.4847125750     0.4184886303
    5      C      -1.4128347521     0.2597810223     0.4784132201
    6      C       0.8867565681    -0.2645190796     0.0634784718
    7      H       1.0631317065    -0.7978046766     1.0052195529
    8      H       1.1054974961     0.7978114010     0.2259930110
    9      C       1.7795779362    -0.8203494714    -1.0368093182
   10      H       1.5476406289    -1.8783360958    -1.1917324275
   11      H       1.5844063295    -0.2733160737    -1.9644356180
   12      C       3.2563504033    -0.6589485136    -0.6452404357
   13      O       3.7971622058    -1.6096998628    -0.0212126165
   14      O       3.8143411883     0.4273024761    -0.9536893848
   15      O      -0.4661639591    -0.4185159788    -0.3461035008
   16      O      -1.2204949852     1.7195825027     0.0612116049
   17      O      -1.2096162396     2.5121009826     1.2528580447
   18      O      -1.2324264739     0.1495452844     1.7685916386
   19      H      -1.1577495115     1.7355280703     1.8998395166
 ----------------------------------------------------------------
 Nuclear Repulsion Energy =   643.1198127101 hartrees
 There are       44 alpha and       44 beta electrons
 Requested basis set is def2-TZVPD
 There are 189 shells and 497 basis functions

 Total QAlloc Memory Limit   8000 MB
 Mega-Array Size      1956 MB
 MEM_STATIC part      2000 MB
 Discretize the solute cavity surface with Lebedev spheres
	Using 110 Lebedev grid points for each H atom
	Using 110 Lebedev grid points for other atoms
	Atomic van der Waals radii will be scaled by 1.20
 Remove points where switching function is < 1.0e-08
 Keep 1125 surface tesserae and discard 965 interior tesserae
 Molecular Surface Area = 200.685 Angst**2
 A cutoff of  1.0D-14 yielded  15985 shell pairs
 There are    110387 function pairs (    140568 Cartesian)
 
 -------------------------------------------------------
 OpenMP Integral Computing Module                       
 Release: version 1.0, May 2013, Q-Chem Inc. Pittsburgh 
 -------------------------------------------------------
 Integral Job Info:
 Integral job number is                      11
 Integral operator is                         1
 short-range coefficients              16700000
 long-range coefficients              100000000
 Omega coefficients                         300
 if combine SR and LR in K                    1
 Integral screening is                        0
 Integral computing path is                   2
 max size of driver memory is            800000
 size of driver memory is                776718
 size of scratch memory is              4473992
 max col of scratch BK array              10000
 max len of scratch array in speh3          662
 max len of scratch index in speh4           32
 max int batch size is                      520
 min int batch size is                       52
 fixed nKL is                                52
 max L of basis functions is                  3
 order of int derivative is                   0
 number of shells is                        189
 number of basis is                         563
 number of cartesian basis is               563
 number of contracted shell pairs         15985
 number of primitive shell pairs          32181
 maxK2 (contraction) of shell pair           36
 max number of K2 of shell pair               1
 max number of CS2 of shell pair           2638
 max number of PS2 of shell pair           3708
 mem total for path MDJ                  821704
 -------------------------------------------------------
 Smallest overlap matrix eigenvalue = 3.98E-06
 Guess MOs from SCF MO coefficient file
 Reading MOs from coefficient file
 Reading MOs from coefficient file
 Long-range K will be added via erf
 Coulomb attenuation parameter = 0.3 bohr**(-1)
 A restricted hybrid HF-DFT SCF calculation will be
 performed using Pulay DIIS extrapolation
 Polarizable Continuum solvation model will be applied
 Exchange:     0.1670 Hartree-Fock + 1.0000 wB97X-V + LR-HF
 Correlation:  1.0000 wB97X-V
 Using SG-2 standard quadrature grid
 Nonlocal Correlation:  VV10 with C = 0.0100 and b = 6.00
 Grid used for NLC:  SG-1 standard quadrature
 SCF converges when DIIS error is below 1.0E-08
Using Q-Chem read-in guess as SCF_GUESS READ specified.

 using 16 threads for integral computing
 -------------------------------------------------------
 OpenMP Integral computing Module                
 Release: version 1.0, May 2013, Q-Chem Inc. Pittsburgh 
 -------------------------------------------------------
 using 16 threads for integral computing
 -------------------------------------------------------
 OpenMP Integral computing Module                
 Release: version 1.0, May 2013, Q-Chem Inc. Pittsburgh 
 -------------------------------------------------------
 -------------------------------------------------------
 OpenMP BLAS3 based DFT computing Module                
 Release: version 1.0, May 2013, Q-Chem Inc. Pittsburgh 
 -------------------------------------------------------
 -------------------------------------------------------
 OpenMP BLAS3 based DFT computing Module                
 Release: version 1.0, May 2013, Q-Chem Inc. Pittsburgh 
 -------------------------------------------------------
 -------------------------------------------------------
 OpenMP BLAS3 based DFT computing Module                
 Release: version 1.0, May 2013, Q-Chem Inc. Pittsburgh 
 -------------------------------------------------------
 ---------------------------------------
  Cycle       Energy         DIIS Error
 ---------------------------------------
    1    -646.6718626269      2.79E-04
    2    -646.9607652895      2.88E-04
    3    -646.9644894558      1.34E-04
    4    -646.9651085074      1.01E-04
    5    -646.9654760641      7.79E-05
    6    -646.9656828043      6.24E-05
    7    -646.9658224801      4.92E-05
    8    -646.9659126032      3.83E-05
    9    -646.9659828594      2.70E-05
   10    -646.9660098674      2.11E-05
   11    -646.9660287138      1.56E-05
   12    -646.9660380432      1.21E-05
   13    -646.9660439526      9.10E-06
   14    -646.9660472644      6.91E-06
   15    -646.9660487493      5.65E-06
   16    -646.9660498904      4.45E-06
   17    -646.9660517588      3.42E-09 Convergence criterion met
 ---------------------------------------

************** Final PCM Free Energy Summary **************
 G_electrostatic  =      -0.29419102 hartree =    -184.60765416 kcal/mol
 G_cavitation     =       0.00000000 hartree =       0.00000000 kcal/mol
 G_dispersion     =       0.00000000 hartree =       0.00000000 kcal/mol
 G_repulsion      =       0.00000000 hartree =       0.00000000 kcal/mol
 --------------------------------------------------
 Non-electrostatic Free Energy =       0.00000000 hartree =       0.00000000 kcal/mol
 Total                         =      -0.29419102 hartree =    -184.60765416 kcal/mol
 --------------------------------------------------
 SCF Energy (H0 + V/2)                       =    -646.96605176 
 Solute Internal Energy (H0)                 =    -646.67186073 
 Total Free Energy (H0 + V/2 + non-elec)     =    -646.96605176 hartree
                                             = -405977.32489414 kcal/mol
***********************************************************

 SCF time:  CPU 5311.88 s  wall 378.41 s
 SCF   energy in the final basis set = -646.96605176
 Total energy in the final basis set = -646.96605176
 
 --------------------------------------------------------------
 
                    Orbital Energies (a.u.)
 --------------------------------------------------------------
 
 Alpha MOs
 -- Occupied --
-19.225 -19.224 -19.198 -19.141 -19.141 -19.128 -10.378 -10.342
-10.296 -10.246 -10.239  -1.226  -1.156  -1.144  -1.065  -1.050
 -0.966  -0.881  -0.834  -0.740  -0.673  -0.638  -0.601  -0.580
 -0.565  -0.556  -0.530  -0.525  -0.513  -0.500  -0.498  -0.478
 -0.470  -0.457  -0.446  -0.430  -0.418  -0.369  -0.352  -0.347
 -0.342  -0.333  -0.330  -0.313
 -- Virtual --
  0.060   0.072   0.079   0.083   0.098   0.101   0.103   0.116
  0.121   0.128   0.136   0.137   0.142   0.147   0.153   0.164
  0.172   0.174   0.178   0.178   0.183   0.185   0.199   0.214
  0.217   0.223   0.227   0.237   0.243   0.250   0.257   0.262
  0.269   0.277   0.280   0.286   0.292   0.294   0.297   0.305
  0.313   0.319   0.326   0.331   0.335   0.340   0.343   0.348
  0.354   0.362   0.366   0.373   0.375   0.379   0.385   0.388
  0.396   0.398   0.400   0.409   0.411   0.418   0.425   0.429
  0.431   0.433   0.442   0.445   0.450   0.455   0.461   0.469
  0.475   0.478   0.483   0.490   0.496   0.497   0.501   0.511
  0.516   0.526   0.529   0.532   0.536   0.538   0.545   0.555
  0.562   0.565   0.573   0.575   0.584   0.591   0.600   0.611
  0.615   0.619   0.629   0.632   0.638   0.648   0.655   0.660
  0.666   0.668   0.675   0.682   0.689   0.701   0.712   0.713
  0.726   0.728   0.736   0.742   0.746   0.755   0.763   0.766
  0.775   0.780   0.785   0.795   0.798   0.806   0.808   0.812
  0.815   0.821   0.829   0.834   0.845   0.854   0.856   0.864
  0.880   0.881   0.886   0.890   0.901   0.904   0.918   0.926
  0.939   0.943   0.947   0.948   0.971   0.982   0.988   0.995
  1.010   1.018   1.028   1.042   1.060   1.067   1.081   1.087
  1.098   1.118   1.125   1.134   1.147   1.150   1.175   1.186
  1.190   1.196   1.205   1.215   1.239   1.256   1.269   1.289
  1.302   1.308   1.317   1.321   1.335   1.344   1.358   1.374
  1.382   1.394   1.421   1.426   1.438   1.442   1.475   1.479
  1.501   1.516   1.531   1.533   1.566   1.579   1.613   1.621
  1.635   1.665   1.672   1.684   1.731   1.766   1.810   1.829
  1.874   1.878   1.896   1.905   1.917   1.926   1.944   1.960
  1.978   1.983   1.997   2.002   2.008   2.016   2.023   2.041
  2.044   2.064   2.076   2.084   2.111   2.135   2.164   2.183
  2.190   2.197   2.217   2.225   2.246   2.249   2.273   2.294
  2.310   2.317   2.333   2.353   2.366   2.385   2.395   2.417
  2.428   2.457   2.461   2.480   2.491   2.507   2.537   2.566
  2.574   2.595   2.621   2.640   2.650   2.665   2.687   2.693
  2.712   2.719   2.746   2.754   2.769   2.774   2.808   2.823
  2.852   2.867   2.914   2.923   2.932   2.952   2.961   2.970
  2.984   3.014   3.031   3.047   3.051   3.084   3.089   3.125
  3.142   3.164   3.171   3.192   3.230   3.236   3.265   3.268
  3.299   3.311   3.330   3.347   3.356   3.388   3.396   3.414
  3.424   3.446   3.460   3.469   3.484   3.500   3.510   3.536
  3.542   3.555   3.570   3.585   3.592   3.606   3.627   3.648
  3.661   3.682   3.685   3.698   3.714   3.727   3.734   3.747
  3.765   3.769   3.785   3.801   3.852   3.878   3.889   3.890
  3.910   3.914   3.944   4.007   4.030   4.065   4.082   4.104
  4.155   4.186   4.207   4.227   4.256   4.273   4.331   4.404
  4.445   4.516   4.603   4.612   4.635   4.647   4.694   4.730
  4.749   4.820   4.839   4.857   4.887   4.909   4.950   5.007
  5.054   5.140   5.160   5.164   5.201   5.270   5.318   5.346
  5.353   5.356   5.371   5.385   5.456   5.501   5.538   5.549
  5.583   5.622   5.644   5.693   5.711   5.714   5.730   5.775
  5.786   5.841   5.963   5.987   6.046   6.074   6.114   6.207
  6.250   6.276   6.293   6.299   6.323   6.405   6.432   6.515
  6.579   6.608   6.623   6.631   6.655   6.688   6.693   6.755
  6.759   6.771   6.808   6.856   6.928   6.945   6.972   6.987
  7.033   7.054   7.093   7.135   7.161   7.193   7.231   7.265
  7.352   7.359   7.375   7.395   7.416   7.519   7.595   7.659
  7.731   8.332  22.692  22.852  22.922  23.243  23.716  44.181
 44.353  44.423  44.508  44.663  44.764
 --------------------------------------------------------------
 
          Ground-State Mulliken Net Atomic Charges

     Atom                 Charge (a.u.)
  ----------------------------------------
      1 C                    -1.146283
      2 H                     0.217187
      3 H                     0.250802
      4 H                     0.226095
      5 C                     0.859449
      6 C                    -0.483778
      7 H                     0.177916
      8 H                     0.186580
      9 C                     0.118843
     10 H                     0.173890
     11 H                     0.174338
     12 C                     0.192535
     13 O                    -0.703560
     14 O                    -0.704948
     15 O                    -0.280646
     16 O                    -0.284166
     17 O                    -0.430129
     18 O                    -0.917920
     19 H                     0.373795
  ----------------------------------------
  Sum of atomic charges =    -2.000000

 -----------------------------------------------------------------
                    Cartesian Multipole Moments
 -----------------------------------------------------------------
    Charge (ESU x 10^10)
                -9.6064
    Dipole Moment (Debye)
         X     -13.9509      Y      -2.3081      Z      -2.5927
       Tot      14.3763
    Quadrupole Moments (Debye-Ang)
        XX    -156.8875     XY      17.1312     YY     -94.8512
        XZ      14.1809     YZ       0.1616     ZZ     -81.8865
    Octopole Moments (Debye-Ang^2)
       XXX    -416.7633    XXY      29.2820    XYY     -48.0942
       YYY     -45.4654    XXZ      20.1856    XYZ      14.0119
       YYZ     -14.0062    XZZ     -25.0222    YZZ      -9.0435
       ZZZ     -27.3656
    Hexadecapole Moments (Debye-Ang^3)
      XXXX   -3725.7593   XXXY     440.7808   XXYY    -663.7005
      XYYY     357.8867   YYYY    -744.2858   XXXZ     367.7962
      XXYZ       2.8594   XYYZ      84.8127   YYYZ    -124.7786
      XXZZ    -513.6533   XYZZ      71.9243   YYZZ    -176.3827
      XZZZ     252.7075   YZZZ     -80.3930   ZZZZ    -425.4462
 -----------------------------------------------------------------
 Calculating analytic gradient of the SCF energy
 Gradient of SCF Energy
            1           2           3           4           5           6
    1  -0.1300022  -0.0000653   0.0114406   0.0575128   0.0893134   0.1044335
    2  -0.0212243  -0.0101167   0.0698750  -0.0417849  -0.0029237   0.0569281
    3  -0.0066500   0.0710911  -0.0211306  -0.0317394  -0.0400498   0.0753480
            7           8           9          10          11          12
    1  -0.0078391  -0.0163035  -0.0970042   0.0213076   0.0206044   0.0508911
    2   0.0192874  -0.0758149  -0.0346769   0.0614569  -0.0339697   0.0208050
    3  -0.0582249  -0.0140080  -0.0962799   0.0063911   0.0592584   0.0461846
           13          14          15          16          17          18
    1  -0.0350719  -0.0370779  -0.0119183  -0.0060707   0.0012601  -0.0155133
    2   0.0409179  -0.0479314   0.0069181  -0.0272044  -0.0078300  -0.0070737
    3  -0.0297545   0.0116642   0.0106260  -0.0207162   0.0638068   0.0064749
           19
    1   0.0001029
    2   0.0343624
    3  -0.0322915
 Max gradient component =       1.300E-01
 RMS gradient           =       4.659E-02
 Computing fast CPCM-ISWIG gradient
 Updating gradient with PCM contributions...
 -- total gradient after adding PCM contribution --
---------------------------------------------------
  Atom         X              Y              Z     
---------------------------------------------------
   1      -0.000090      -0.000199       0.000118
   2       0.000123      -0.000180      -0.000003
   3      -0.000196       0.000064       0.000196
   4       0.000040       0.000186      -0.000184
   5       0.000309      -0.000016      -0.002125
   6      -0.000085       0.000222       0.000747
   7       0.000276       0.000086       0.000237
   8      -0.000035      -0.000135      -0.000199
   9      -0.000427      -0.000227      -0.000016
  10      -0.000092       0.000026      -0.000170
  11       0.000008       0.000159      -0.000118
  12      -0.000061       0.000291       0.000851
  13       0.000157      -0.000050      -0.000262
  14      -0.000102      -0.000141      -0.000301
  15      -0.000408       0.000417      -0.000235
  16       0.000078      -0.000329       0.000185
  17      -0.000141       0.000856      -0.000626
  18       0.000455      -0.000507       0.000807
  19       0.000189      -0.000523       0.001097
---------------------------------------------------
 Number of fixed atoms: 0
 Gradient time:  CPU 1090.66 s  wall 79.11 s
 ######################################################
 ######################################################
 # Starting finite difference calculation for IDERIV  #
 Finite diff step size:  1.88973e-03 a.u.
 ----------------------------------------------------------------
             Standard Nuclear Orientation (Angstroms)
    I     Atom           X                Y                Z
 ----------------------------------------------------------------
    1      C      -2.7834910152    -0.1446053999    -0.0521519864
    2      H      -2.8412634970    -0.0232708130    -1.1373253196
    3      H      -2.9819023665    -1.1900434862     0.2021176070
    4      H      -3.5441613993     0.4847125750     0.4184886303
    5      C      -1.4128347521     0.2597810223     0.4784132201
    6      C       0.8867565681    -0.2645190796     0.0634784718
    7      H       1.0631317065    -0.7978046766     1.0052195529
    8      H       1.1054974961     0.7978114010     0.2259930110
    9      C       1.7795779362    -0.8203494714    -1.0368093182
   10      H       1.5476406289    -1.8783360958    -1.1917324275
   11      H       1.5844063295    -0.2733160737    -1.9644356180
   12      C       3.2563504033    -0.6589485136    -0.6452404357
   13      O       3.7971622058    -1.6096998628    -0.0212126165
   14      O       3.8143411883     0.4273024761    -0.9536893848
   15      O      -0.4661639591    -0.4185159788    -0.3461035008
   16      O      -1.2204949852     1.7195825027     0.0612116049
   17      O      -1.2096162396     2.5121009826     1.2528580447
   18      O      -1.2324264739     0.1495452844     1.7685916386
   19      H      -1.1577495115     1.7355280703     1.8998395166
 ----------------------------------------------------------------
 Nuclear Repulsion Energy =   643.1405068129 hartrees
 There are       44 alpha and       44 beta electrons
 Discretize the solute cavity surface with Lebedev spheres
	Using 110 Lebedev grid points for each H atom
	Using 110 Lebedev grid points for other atoms
	Atomic van der Waals radii will be scaled by 1.20
 Remove points where switching function is < 1.0e-08
 Keep 1125 surface tesserae and discard 965 interior tesserae
 Molecular Surface Area = 200.682 Angst**2
 Requested basis set is def2-TZVPD
 There are 189 shells and 497 basis functions
 A cutoff of  1.0D-14 yielded  15985 shell pairs
 There are    110387 function pairs (    140568 Cartesian)
 Smallest overlap matrix eigenvalue = 3.97E-06
 Guess MOs from SCF MO coefficient file
 Reading MOs from coefficient file
 Reading MOs from coefficient file
 Long-range K will be added via erf
 Coulomb attenuation parameter = 0.3 bohr**(-1)
 A restricted hybrid HF-DFT SCF calculation will be
 performed using Pulay DIIS extrapolation
 Polarizable Continuum solvation model will be applied
 Exchange:     0.1670 Hartree-Fock + 1.0000 wB97X-V + LR-HF
 Correlation:  1.0000 wB97X-V
 Using SG-2 standard quadrature grid
 Nonlocal Correlation:  VV10 with C = 0.0100 and b = 6.00
 Grid used for NLC:  SG-1 standard quadrature
 SCF converges when DIIS error is below 1.0E-08
Using Q-Chem read-in guess as SCF_GUESS READ specified.

 using 16 threads for integral computing
 -------------------------------------------------------
 OpenMP Integral computing Module                
 Release: version 1.0, May 2013, Q-Chem Inc. Pittsburgh 
 -------------------------------------------------------
 using 16 threads for integral computing
 -------------------------------------------------------
 OpenMP Integral computing Module                
 Release: version 1.0, May 2013, Q-Chem Inc. Pittsburgh 
 -------------------------------------------------------
 -------------------------------------------------------
 OpenMP BLAS3 based DFT computing Module                
 Release: version 1.0, May 2013, Q-Chem Inc. Pittsburgh 
 -------------------------------------------------------
 -------------------------------------------------------
 OpenMP BLAS3 based DFT computing Module                
 Release: version 1.0, May 2013, Q-Chem Inc. Pittsburgh 
 -------------------------------------------------------
 -------------------------------------------------------
 OpenMP BLAS3 based DFT computing Module                
 Release: version 1.0, May 2013, Q-Chem Inc. Pittsburgh 
 -------------------------------------------------------
 ---------------------------------------
  Cycle       Energy         DIIS Error
 ---------------------------------------
    1    -646.6714839518      2.80E-04
    2    -646.9607629735      2.88E-04
    3    -646.9644895931      1.34E-04
    4    -646.9651095553      1.00E-04
    5    -646.9654825682      7.74E-05
    6    -646.9657015992      6.07E-05
    7    -646.9658712747      4.35E-05
    8    -646.9659805647      2.73E-05
    9    -646.9660411453      1.02E-05
   10    -646.9660500373      3.26E-06
   11    -646.9660509832      6.72E-07
   12    -646.9660510228      1.50E-07
   13    -646.9660510248      1.10E-08
   14    -646.9660510248      7.31E-09 Convergence criterion met
 ---------------------------------------

************** Final PCM Free Energy Summary **************
 G_electrostatic  =      -0.29420012 hartree =    -184.61336134 kcal/mol
 G_cavitation     =       0.00000000 hartree =       0.00000000 kcal/mol
 G_dispersion     =       0.00000000 hartree =       0.00000000 kcal/mol
 G_repulsion      =       0.00000000 hartree =       0.00000000 kcal/mol
 --------------------------------------------------
 Non-electrostatic Free Energy =       0.00000000 hartree =       0.00000000 kcal/mol
 Total                         =      -0.29420012 hartree =    -184.61336134 kcal/mol
 --------------------------------------------------
 SCF Energy (H0 + V/2)                       =    -646.96605102 
 Solute Internal Energy (H0)                 =    -646.67185091 
 Total Free Energy (H0 + V/2 + non-elec)     =    -646.96605102 hartree
                                             = -405977.32443352 kcal/mol
***********************************************************

 SCF time:  CPU 4382.63 s  wall 311.77 s
 SCF   energy in the final basis set = -646.96605102
 Total energy in the final basis set = -646.96605102
 
 --------------------------------------------------------------
 
                    Orbital Energies (a.u.)
 --------------------------------------------------------------
 
 Alpha MOs
 -- Occupied --
-19.225 -19.224 -19.198 -19.141 -19.141 -19.128 -10.378 -10.342
-10.296 -10.246 -10.239  -1.226  -1.156  -1.144  -1.065  -1.050
 -0.966  -0.881  -0.834  -0.739  -0.673  -0.638  -0.601  -0.580
 -0.565  -0.556  -0.530  -0.525  -0.513  -0.500  -0.498  -0.478
 -0.470  -0.457  -0.446  -0.430  -0.418  -0.369  -0.352  -0.347
 -0.342  -0.333  -0.330  -0.313
 -- Virtual --
  0.060   0.072   0.079   0.083   0.098   0.101   0.103   0.116
  0.121   0.128   0.136   0.137   0.142   0.147   0.153   0.164
  0.172   0.174   0.178   0.178   0.183   0.185   0.199   0.214
  0.217   0.223   0.227   0.237   0.243   0.250   0.257   0.262
  0.269   0.277   0.280   0.286   0.292   0.294   0.297   0.305
  0.313   0.319   0.326   0.331   0.335   0.340   0.343   0.348
  0.355   0.362   0.366   0.373   0.375   0.379   0.385   0.388
  0.396   0.398   0.400   0.409   0.411   0.418   0.425   0.429
  0.431   0.433   0.442   0.445   0.450   0.455   0.461   0.469
  0.475   0.478   0.483   0.490   0.496   0.497   0.502   0.511
  0.516   0.526   0.529   0.532   0.536   0.538   0.545   0.555
  0.562   0.565   0.573   0.575   0.584   0.591   0.600   0.611
  0.616   0.619   0.629   0.632   0.638   0.648   0.655   0.660
  0.666   0.668   0.675   0.682   0.689   0.701   0.712   0.713
  0.726   0.728   0.736   0.742   0.746   0.755   0.763   0.766
  0.775   0.780   0.785   0.795   0.798   0.806   0.808   0.812
  0.815   0.821   0.829   0.834   0.845   0.854   0.856   0.864
  0.880   0.881   0.886   0.890   0.901   0.904   0.918   0.926
  0.939   0.943   0.947   0.948   0.971   0.982   0.988   0.995
  1.010   1.019   1.028   1.042   1.060   1.067   1.081   1.087
  1.098   1.118   1.125   1.134   1.147   1.150   1.175   1.186
  1.190   1.196   1.205   1.215   1.239   1.256   1.269   1.289
  1.302   1.308   1.317   1.321   1.335   1.344   1.358   1.374
  1.382   1.394   1.421   1.426   1.438   1.442   1.475   1.480
  1.501   1.516   1.531   1.533   1.566   1.579   1.613   1.621
  1.635   1.665   1.672   1.684   1.731   1.766   1.810   1.829
  1.874   1.878   1.896   1.905   1.917   1.926   1.944   1.960
  1.978   1.983   1.997   2.002   2.008   2.016   2.023   2.041
  2.044   2.064   2.076   2.084   2.111   2.135   2.164   2.183
  2.190   2.197   2.217   2.225   2.246   2.249   2.273   2.294
  2.310   2.317   2.333   2.353   2.366   2.385   2.395   2.417
  2.428   2.457   2.461   2.480   2.491   2.507   2.537   2.566
  2.574   2.595   2.621   2.640   2.650   2.665   2.687   2.693
  2.712   2.719   2.746   2.754   2.769   2.774   2.808   2.823
  2.852   2.867   2.914   2.923   2.932   2.952   2.961   2.970
  2.984   3.014   3.031   3.047   3.051   3.085   3.089   3.125
  3.142   3.164   3.171   3.192   3.230   3.236   3.265   3.268
  3.299   3.311   3.330   3.347   3.356   3.388   3.396   3.414
  3.424   3.446   3.460   3.469   3.484   3.500   3.510   3.536
  3.542   3.555   3.570   3.585   3.592   3.605   3.627   3.648
  3.661   3.682   3.685   3.698   3.714   3.727   3.734   3.747
  3.765   3.769   3.785   3.801   3.852   3.878   3.889   3.890
  3.910   3.915   3.944   4.008   4.030   4.066   4.082   4.104
  4.155   4.186   4.207   4.227   4.257   4.273   4.331   4.404
  4.445   4.516   4.603   4.612   4.635   4.647   4.693   4.730
  4.749   4.820   4.839   4.857   4.887   4.909   4.950   5.007
  5.054   5.140   5.160   5.165   5.201   5.270   5.318   5.346
  5.353   5.356   5.371   5.385   5.456   5.501   5.538   5.549
  5.583   5.622   5.644   5.693   5.711   5.714   5.730   5.775
  5.786   5.841   5.963   5.987   6.046   6.074   6.114   6.207
  6.250   6.276   6.293   6.299   6.323   6.405   6.432   6.515
  6.580   6.608   6.623   6.631   6.655   6.688   6.693   6.755
  6.759   6.771   6.808   6.856   6.928   6.945   6.972   6.987
  7.033   7.054   7.093   7.135   7.161   7.193   7.231   7.265
  7.352   7.359   7.375   7.395   7.416   7.519   7.595   7.659
  7.731   8.332  22.692  22.852  22.922  23.243  23.716  44.181
 44.353  44.423  44.508  44.663  44.764
 --------------------------------------------------------------
 
          Ground-State Mulliken Net Atomic Charges

     Atom                 Charge (a.u.)
  ----------------------------------------
      1 C                    -1.147006
      2 H                     0.217300
      3 H                     0.250791
      4 H                     0.225912
      5 C                     0.860349
      6 C                    -0.483963
      7 H                     0.177935
      8 H                     0.186565
      9 C                     0.118909
     10 H                     0.173894
     11 H                     0.174354
     12 C                     0.192524
     13 O                    -0.703563
     14 O                    -0.704950
     15 O                    -0.280611
     16 O                    -0.284169
     17 O                    -0.430121
     18 O                    -0.917951
     19 H                     0.373803
  ----------------------------------------
  Sum of atomic charges =    -2.000000

 -----------------------------------------------------------------
                    Cartesian Multipole Moments
 -----------------------------------------------------------------
    Charge (ESU x 10^10)
                -9.6064
    Dipole Moment (Debye)
         X     -13.9524      Y      -2.3085      Z      -2.5935
       Tot      14.3779
    Quadrupole Moments (Debye-Ang)
        XX    -156.8820     XY      17.1339     YY     -94.8521
        XZ      14.1842     YZ       0.1614     ZZ     -81.8872
    Octopole Moments (Debye-Ang^2)
       XXX    -416.8080    XXY      29.2704    XYY     -48.0979
       YYY     -45.4650    XXZ      20.1730    XYZ      14.0126
       YYZ     -14.0065    XZZ     -25.0267    YZZ      -9.0436
       ZZZ     -27.3675
    Hexadecapole Moments (Debye-Ang^3)
      XXXX   -3725.4871   XXXY     440.8343   XXYY    -663.6769
      XYYY     357.8937   YYYY    -744.2881   XXXZ     367.8480
      XXYZ       2.8565   XYYZ      84.8151   YYYZ    -124.7784
      XXZZ    -513.6259   XYZZ      71.9270   YYZZ    -176.3832
      XZZZ     252.7175   YZZZ     -80.3932   ZZZZ    -425.4488
 -----------------------------------------------------------------
 Calculating analytic gradient of the SCF energy
 Gradient of SCF Energy
            1           2           3           4           5           6
    1  -0.1294033  -0.0000715   0.0114173   0.0571902   0.0891665   0.1044232
    2  -0.0212539  -0.0101210   0.0697875  -0.0415428  -0.0030499   0.0569345
    3  -0.0066948   0.0710708  -0.0211032  -0.0315586  -0.0401839   0.0753591
            7           8           9          10          11          12
    1  -0.0078390  -0.0163018  -0.0969950   0.0213057   0.0206075   0.0508916
    2   0.0192891  -0.0758180  -0.0346752   0.0614549  -0.0339682   0.0208082
    3  -0.0582315  -0.0140082  -0.0962725   0.0063923   0.0592599   0.0461843
           13          14          15          16          17          18
    1  -0.0350737  -0.0370797  -0.0119837  -0.0060779   0.0012561  -0.0155300
    2   0.0409194  -0.0479329   0.0069282  -0.0272255  -0.0078320  -0.0070689
    3  -0.0297554   0.0116646   0.0106292  -0.0207148   0.0638086   0.0064444
           19
    1   0.0000976
    2   0.0343662
    3  -0.0322902
 Max gradient component =       1.294E-01
 RMS gradient           =       4.654E-02
 Computing fast CPCM-ISWIG gradient
 Updating gradient with PCM contributions...
 -- total gradient after adding PCM contribution --
---------------------------------------------------
  Atom         X              Y              Z     
---------------------------------------------------
   1       0.000865      -0.000251       0.000057
   2       0.000031      -0.000179      -0.000029
   3      -0.000300      -0.000022       0.000217
   4      -0.000291       0.000395      -0.000029
   5      -0.000021      -0.000072      -0.002187
   6      -0.000081       0.000227       0.000755
   7       0.000275       0.000086       0.000236
   8      -0.000035      -0.000137      -0.000199
   9      -0.000431      -0.000228      -0.000018
  10      -0.000092       0.000027      -0.000170
  11       0.000008       0.000158      -0.000118
  12      -0.000059       0.000292       0.000853
  13       0.000155      -0.000050      -0.000262
  14      -0.000103      -0.000142      -0.000301
  15      -0.000494       0.000417      -0.000239
  16       0.000070      -0.000346       0.000181
  17      -0.000141       0.000857      -0.000623
  18       0.000453      -0.000512       0.000780
  19       0.000188      -0.000521       0.001096
---------------------------------------------------
 Number of fixed atoms: 0
 Gradient time:  CPU 1245.34 s  wall 88.88 s
 ----------------------------------------------------------------
             Standard Nuclear Orientation (Angstroms)
    I     Atom           X                Y                Z
 ----------------------------------------------------------------
    1      C      -2.7854910152    -0.1446053999    -0.0521519864
    2      H      -2.8412634970    -0.0232708130    -1.1373253196
    3      H      -2.9819023665    -1.1900434862     0.2021176070
    4      H      -3.5441613993     0.4847125750     0.4184886303
    5      C      -1.4128347521     0.2597810223     0.4784132201
    6      C       0.8867565681    -0.2645190796     0.0634784718
    7      H       1.0631317065    -0.7978046766     1.0052195529
    8      H       1.1054974961     0.7978114010     0.2259930110
    9      C       1.7795779362    -0.8203494714    -1.0368093182
   10      H       1.5476406289    -1.8783360958    -1.1917324275
   11      H       1.5844063295    -0.2733160737    -1.9644356180
   12      C       3.2563504033    -0.6589485136    -0.6452404357
   13      O       3.7971622058    -1.6096998628    -0.0212126165
   14      O       3.8143411883     0.4273024761    -0.9536893848
   15      O      -0.4661639591    -0.4185159788    -0.3461035008
   16      O      -1.2204949852     1.7195825027     0.0612116049
   17      O      -1.2096162396     2.5121009826     1.2528580447
   18      O      -1.2324264739     0.1495452844     1.7685916386
   19      H      -1.1577495115     1.7355280703     1.8998395166
 ----------------------------------------------------------------
 Nuclear Repulsion Energy =   643.0991289292 hartrees
 There are       44 alpha and       44 beta electrons
 Discretize the solute cavity surface with Lebedev spheres
	Using 110 Lebedev grid points for each H atom
	Using 110 Lebedev grid points for other atoms
	Atomic van der Waals radii will be scaled by 1.20
 Remove points where switching function is < 1.0e-08
 Keep 1125 surface tesserae and discard 965 interior tesserae
 Molecular Surface Area = 200.688 Angst**2
 Requested basis set is def2-TZVPD
 There are 189 shells and 497 basis functions
 A cutoff of  1.0D-14 yielded  15985 shell pairs
 There are    110387 function pairs (    140568 Cartesian)
 Smallest overlap matrix eigenvalue = 3.98E-06
 Guess MOs from SCF MO coefficient file
 Reading MOs from coefficient file
 Reading MOs from coefficient file
 Long-range K will be added via erf
 Coulomb attenuation parameter = 0.3 bohr**(-1)
 A restricted hybrid HF-DFT SCF calculation will be
 performed using Pulay DIIS extrapolation
 Polarizable Continuum solvation model will be applied
 Exchange:     0.1670 Hartree-Fock + 1.0000 wB97X-V + LR-HF
 Correlation:  1.0000 wB97X-V
 Using SG-2 standard quadrature grid
 Nonlocal Correlation:  VV10 with C = 0.0100 and b = 6.00
 Grid used for NLC:  SG-1 standard quadrature
 SCF converges when DIIS error is below 1.0E-08
Using Q-Chem read-in guess as SCF_GUESS READ specified.

 using 16 threads for integral computing
 -------------------------------------------------------
 OpenMP Integral computing Module                
 Release: version 1.0, May 2013, Q-Chem Inc. Pittsburgh 
 -------------------------------------------------------
 using 16 threads for integral computing
 -------------------------------------------------------
 OpenMP Integral computing Module                
 Release: version 1.0, May 2013, Q-Chem Inc. Pittsburgh 
 -------------------------------------------------------
 -------------------------------------------------------
 OpenMP BLAS3 based DFT computing Module                
 Release: version 1.0, May 2013, Q-Chem Inc. Pittsburgh 
 -------------------------------------------------------
 -------------------------------------------------------
 OpenMP BLAS3 based DFT computing Module                
 Release: version 1.0, May 2013, Q-Chem Inc. Pittsburgh 
 -------------------------------------------------------
 -------------------------------------------------------
 OpenMP BLAS3 based DFT computing Module                
 Release: version 1.0, May 2013, Q-Chem Inc. Pittsburgh 
 -------------------------------------------------------
 ---------------------------------------
  Cycle       Energy         DIIS Error
 ---------------------------------------
    1    -646.6726072666      2.80E-04
    2    -646.9607653284      2.88E-04
    3    -646.9644923658      1.34E-04
    4    -646.9651133276      1.00E-04
    5    -646.9654922727      7.67E-05
    6    -646.9657433935      5.69E-05
    7    -646.9659508453      3.25E-05
    8    -646.9660316005      1.42E-05
    9    -646.9660499256      2.85E-06
   10    -646.9660506563      5.98E-07
   11    -646.9660506858      8.98E-08
   12    -646.9660506864      3.06E-08
   13    -646.9660506864      9.19E-09 Convergence criterion met
 ---------------------------------------

************** Final PCM Free Energy Summary **************
 G_electrostatic  =      -0.29418223 hartree =    -184.60213600 kcal/mol
 G_cavitation     =       0.00000000 hartree =       0.00000000 kcal/mol
 G_dispersion     =       0.00000000 hartree =       0.00000000 kcal/mol
 G_repulsion      =       0.00000000 hartree =       0.00000000 kcal/mol
 --------------------------------------------------
 Non-electrostatic Free Energy =       0.00000000 hartree =       0.00000000 kcal/mol
 Total                         =      -0.29418223 hartree =    -184.60213600 kcal/mol
 --------------------------------------------------
 SCF Energy (H0 + V/2)                       =    -646.96605069 
 Solute Internal Energy (H0)                 =    -646.67186846 
 Total Free Energy (H0 + V/2 + non-elec)     =    -646.96605069 hartree
                                             = -405977.32422120 kcal/mol
***********************************************************

 SCF time:  CPU 4067.61 s  wall 289.70 s
 SCF   energy in the final basis set = -646.96605069
 Total energy in the final basis set = -646.96605069
 
 --------------------------------------------------------------
 
                    Orbital Energies (a.u.)
 --------------------------------------------------------------
 
 Alpha MOs
 -- Occupied --
-19.225 -19.224 -19.198 -19.141 -19.141 -19.128 -10.378 -10.342
-10.296 -10.246 -10.239  -1.226  -1.156  -1.144  -1.065  -1.050
 -0.966  -0.881  -0.834  -0.740  -0.673  -0.638  -0.601  -0.580
 -0.565  -0.556  -0.530  -0.525  -0.513  -0.500  -0.498  -0.478
 -0.470  -0.457  -0.445  -0.430  -0.418  -0.369  -0.352  -0.347
 -0.342  -0.333  -0.330  -0.313
 -- Virtual --
  0.060   0.072   0.079   0.083   0.098   0.101   0.103   0.116
  0.121   0.128   0.136   0.137   0.142   0.147   0.153   0.164
  0.172   0.174   0.178   0.178   0.183   0.185   0.199   0.214
  0.217   0.223   0.227   0.237   0.243   0.250   0.257   0.262
  0.269   0.277   0.280   0.286   0.292   0.294   0.297   0.305
  0.313   0.319   0.326   0.331   0.335   0.340   0.343   0.348
  0.354   0.362   0.366   0.373   0.375   0.379   0.385   0.388
  0.396   0.398   0.400   0.409   0.411   0.418   0.425   0.429
  0.431   0.433   0.442   0.445   0.450   0.455   0.461   0.469
  0.475   0.478   0.483   0.490   0.496   0.497   0.501   0.511
  0.516   0.526   0.529   0.531   0.536   0.538   0.545   0.555
  0.562   0.565   0.573   0.575   0.584   0.591   0.600   0.611
  0.615   0.619   0.629   0.632   0.638   0.648   0.655   0.660
  0.666   0.668   0.675   0.682   0.689   0.701   0.712   0.713
  0.726   0.728   0.736   0.742   0.746   0.755   0.763   0.766
  0.775   0.780   0.786   0.795   0.798   0.806   0.808   0.812
  0.815   0.821   0.829   0.834   0.845   0.854   0.856   0.864
  0.880   0.881   0.886   0.890   0.901   0.904   0.918   0.926
  0.939   0.943   0.947   0.948   0.971   0.982   0.988   0.995
  1.010   1.018   1.028   1.042   1.060   1.067   1.081   1.087
  1.098   1.118   1.125   1.134   1.147   1.150   1.175   1.186
  1.190   1.196   1.205   1.215   1.239   1.256   1.269   1.289
  1.302   1.308   1.317   1.321   1.335   1.344   1.358   1.374
  1.382   1.394   1.421   1.426   1.438   1.442   1.475   1.479
  1.500   1.516   1.531   1.533   1.566   1.579   1.613   1.621
  1.635   1.665   1.672   1.684   1.731   1.766   1.810   1.829
  1.874   1.878   1.896   1.905   1.917   1.926   1.944   1.960
  1.978   1.983   1.997   2.002   2.008   2.016   2.023   2.041
  2.044   2.064   2.076   2.084   2.111   2.135   2.164   2.183
  2.190   2.197   2.217   2.225   2.246   2.249   2.273   2.294
  2.310   2.317   2.333   2.352   2.366   2.385   2.395   2.417
  2.428   2.457   2.461   2.480   2.491   2.507   2.537   2.566
  2.574   2.595   2.621   2.640   2.650   2.665   2.686   2.693
  2.712   2.719   2.746   2.754   2.768   2.774   2.808   2.823
  2.852   2.867   2.914   2.923   2.932   2.952   2.961   2.970
  2.984   3.014   3.031   3.047   3.051   3.084   3.089   3.125
  3.142   3.164   3.171   3.192   3.230   3.236   3.265   3.268
  3.299   3.311   3.330   3.347   3.356   3.388   3.396   3.414
  3.424   3.446   3.460   3.470   3.484   3.500   3.510   3.536
  3.542   3.555   3.570   3.585   3.592   3.606   3.627   3.648
  3.661   3.682   3.685   3.698   3.714   3.727   3.734   3.747
  3.765   3.769   3.785   3.801   3.852   3.878   3.889   3.890
  3.910   3.914   3.944   4.007   4.030   4.065   4.082   4.104
  4.155   4.185   4.206   4.226   4.255   4.273   4.331   4.404
  4.445   4.516   4.603   4.612   4.634   4.647   4.695   4.730
  4.749   4.820   4.839   4.857   4.887   4.909   4.950   5.007
  5.054   5.140   5.160   5.164   5.201   5.270   5.318   5.346
  5.353   5.356   5.371   5.385   5.456   5.501   5.538   5.549
  5.583   5.621   5.644   5.693   5.711   5.714   5.730   5.775
  5.786   5.841   5.963   5.987   6.046   6.074   6.114   6.207
  6.250   6.275   6.293   6.299   6.323   6.405   6.432   6.514
  6.579   6.608   6.623   6.631   6.655   6.688   6.693   6.755
  6.759   6.771   6.808   6.856   6.928   6.945   6.972   6.987
  7.033   7.054   7.093   7.134   7.161   7.193   7.231   7.265
  7.352   7.359   7.375   7.395   7.416   7.519   7.595   7.659
  7.731   8.332  22.692  22.852  22.922  23.242  23.716  44.181
 44.353  44.422  44.507  44.663  44.764
 --------------------------------------------------------------
 
          Ground-State Mulliken Net Atomic Charges

     Atom                 Charge (a.u.)
  ----------------------------------------
      1 C                    -1.145564
      2 H                     0.217077
      3 H                     0.250816
      4 H                     0.226283
      5 C                     0.858543
      6 C                    -0.483592
      7 H                     0.177897
      8 H                     0.186594
      9 C                     0.118772
     10 H                     0.173888
     11 H                     0.174324
     12 C                     0.192546
     13 O                    -0.703557
     14 O                    -0.704947
     15 O                    -0.280681
     16 O                    -0.284163
     17 O                    -0.430137
     18 O                    -0.917887
     19 H                     0.373787
  ----------------------------------------
  Sum of atomic charges =    -2.000000

 -----------------------------------------------------------------
                    Cartesian Multipole Moments
 -----------------------------------------------------------------
    Charge (ESU x 10^10)
                -9.6064
    Dipole Moment (Debye)
         X     -13.9495      Y      -2.3078      Z      -2.5920
       Tot      14.3748
    Quadrupole Moments (Debye-Ang)
        XX    -156.8930     XY      17.1285     YY     -94.8504
        XZ      14.1777     YZ       0.1619     ZZ     -81.8857
    Octopole Moments (Debye-Ang^2)
       XXX    -416.7193    XXY      29.2935    XYY     -48.0905
       YYY     -45.4659    XXZ      20.1981    XYZ      14.0111
       YYZ     -14.0059    XZZ     -25.0176    YZZ      -9.0433
       ZZZ     -27.3639
    Hexadecapole Moments (Debye-Ang^3)
      XXXX   -3726.0316   XXXY     440.7272   XXYY    -663.7239
      XYYY     357.8795   YYYY    -744.2832   XXXZ     367.7443
      XXYZ       2.8623   XYYZ      84.8102   YYYZ    -124.7785
      XXZZ    -513.6805   XYZZ      71.9215   YYZZ    -176.3820
      XZZZ     252.6974   YZZZ     -80.3926   ZZZZ    -425.4433
 -----------------------------------------------------------------
 Calculating analytic gradient of the SCF energy
 Gradient of SCF Energy
            1           2           3           4           5           6
    1  -0.1306024  -0.0000592   0.0114638   0.0578373   0.0894605   0.1044465
    2  -0.0211936  -0.0101126   0.0699639  -0.0420292  -0.0027979   0.0569231
    3  -0.0066038   0.0711127  -0.0211586  -0.0319218  -0.0399167   0.0753391
            7           8           9          10          11          12
    1  -0.0078394  -0.0163057  -0.0970155   0.0213101   0.0206017   0.0508920
    2   0.0192862  -0.0758135  -0.0346799   0.0614607  -0.0339723   0.0208025
    3  -0.0582198  -0.0140081  -0.0962903   0.0063900   0.0592586   0.0461861
           13          14          15          16          17          18
    1  -0.0350710  -0.0370771  -0.0118530  -0.0060637   0.0012643  -0.0154972
    2   0.0409173  -0.0479313   0.0069081  -0.0271840  -0.0078282  -0.0070785
    3  -0.0297545   0.0116640   0.0106229  -0.0207181   0.0638066   0.0065054
           19
    1   0.0001081
    2   0.0343594
    3  -0.0322937
 Max gradient component =       1.306E-01
 RMS gradient           =       4.664E-02
 Computing fast CPCM-ISWIG gradient
 Updating gradient with PCM contributions...
 -- total gradient after adding PCM contribution --
---------------------------------------------------
  Atom         X              Y              Z     
---------------------------------------------------
   1      -0.001046      -0.000146       0.000182
   2       0.000215      -0.000182       0.000024
   3      -0.000092       0.000152       0.000174
   4       0.000373      -0.000025      -0.000341
   5       0.000639       0.000040      -0.002065
   6      -0.000086       0.000219       0.000742
   7       0.000276       0.000086       0.000237
   8      -0.000035      -0.000136      -0.000199
   9      -0.000425      -0.000227      -0.000016
  10      -0.000092       0.000027      -0.000170
  11       0.000008       0.000159      -0.000118
  12      -0.000061       0.000290       0.000850
  13       0.000157      -0.000050      -0.000261
  14      -0.000101      -0.000141      -0.000300
  15      -0.000322       0.000417      -0.000232
  16       0.000087      -0.000312       0.000188
  17      -0.000141       0.000856      -0.000628
  18       0.000458      -0.000503       0.000834
  19       0.000190      -0.000525       0.001098
---------------------------------------------------
 Number of fixed atoms: 0
 Gradient time:  CPU 1082.36 s  wall 79.01 s
 ----------------------------------------------------------------
             Standard Nuclear Orientation (Angstroms)
    I     Atom           X                Y                Z
 ----------------------------------------------------------------
    1      C      -2.7844910152    -0.1436053999    -0.0521519864
    2      H      -2.8412634970    -0.0232708130    -1.1373253196
    3      H      -2.9819023665    -1.1900434862     0.2021176070
    4      H      -3.5441613993     0.4847125750     0.4184886303
    5      C      -1.4128347521     0.2597810223     0.4784132201
    6      C       0.8867565681    -0.2645190796     0.0634784718
    7      H       1.0631317065    -0.7978046766     1.0052195529
    8      H       1.1054974961     0.7978114010     0.2259930110
    9      C       1.7795779362    -0.8203494714    -1.0368093182
   10      H       1.5476406289    -1.8783360958    -1.1917324275
   11      H       1.5844063295    -0.2733160737    -1.9644356180
   12      C       3.2563504033    -0.6589485136    -0.6452404357
   13      O       3.7971622058    -1.6096998628    -0.0212126165
   14      O       3.8143411883     0.4273024761    -0.9536893848
   15      O      -0.4661639591    -0.4185159788    -0.3461035008
   16      O      -1.2204949852     1.7195825027     0.0612116049
   17      O      -1.2096162396     2.5121009826     1.2528580447
   18      O      -1.2324264739     0.1495452844     1.7685916386
   19      H      -1.1577495115     1.7355280703     1.8998395166
 ----------------------------------------------------------------
 Nuclear Repulsion Energy =   643.1262013711 hartrees
 There are       44 alpha and       44 beta electrons
 Discretize the solute cavity surface with Lebedev spheres
	Using 110 Lebedev grid points for each H atom
	Using 110 Lebedev grid points for other atoms
	Atomic van der Waals radii will be scaled by 1.20
 Remove points where switching function is < 1.0e-08
 Keep 1125 surface tesserae and discard 965 interior tesserae
 Molecular Surface Area = 200.684 Angst**2
 Requested basis set is def2-TZVPD
 There are 189 shells and 497 basis functions
 A cutoff of  1.0D-14 yielded  15985 shell pairs
 There are    110387 function pairs (    140568 Cartesian)
 Smallest overlap matrix eigenvalue = 3.97E-06
 Guess MOs from SCF MO coefficient file
 Reading MOs from coefficient file
 Reading MOs from coefficient file
 Long-range K will be added via erf
 Coulomb attenuation parameter = 0.3 bohr**(-1)
 A restricted hybrid HF-DFT SCF calculation will be
 performed using Pulay DIIS extrapolation
 Polarizable Continuum solvation model will be applied
 Exchange:     0.1670 Hartree-Fock + 1.0000 wB97X-V + LR-HF
 Correlation:  1.0000 wB97X-V
 Using SG-2 standard quadrature grid
 Nonlocal Correlation:  VV10 with C = 0.0100 and b = 6.00
 Grid used for NLC:  SG-1 standard quadrature
 SCF converges when DIIS error is below 1.0E-08
Using Q-Chem read-in guess as SCF_GUESS READ specified.

 using 16 threads for integral computing
 -------------------------------------------------------
 OpenMP Integral computing Module                
 Release: version 1.0, May 2013, Q-Chem Inc. Pittsburgh 
 -------------------------------------------------------
 using 16 threads for integral computing
 -------------------------------------------------------
 OpenMP Integral computing Module                
 Release: version 1.0, May 2013, Q-Chem Inc. Pittsburgh 
 -------------------------------------------------------
 -------------------------------------------------------
 OpenMP BLAS3 based DFT computing Module                
 Release: version 1.0, May 2013, Q-Chem Inc. Pittsburgh 
 -------------------------------------------------------
 -------------------------------------------------------
 OpenMP BLAS3 based DFT computing Module                
 Release: version 1.0, May 2013, Q-Chem Inc. Pittsburgh 
 -------------------------------------------------------
 -------------------------------------------------------
 OpenMP BLAS3 based DFT computing Module                
 Release: version 1.0, May 2013, Q-Chem Inc. Pittsburgh 
 -------------------------------------------------------
 ---------------------------------------
  Cycle       Energy         DIIS Error
 ---------------------------------------
    1    -646.6714770282      2.80E-04
    2    -646.9607629819      2.88E-04
    3    -646.9644908800      1.34E-04
    4    -646.9651113972      1.00E-04
    5    -646.9654881102      7.71E-05
    6    -646.9657167122      5.94E-05
    7    -646.9659028201      3.95E-05
    8    -646.9660070990      2.16E-05
    9    -646.9660475658      6.14E-06
   10    -646.9660508707      1.60E-06
   11    -646.9660510986      2.93E-07
   12    -646.9660511059      6.15E-08
   13    -646.9660511062      1.03E-08
   14    -646.9660511062      6.61E-09 Convergence criterion met
 ---------------------------------------

************** Final PCM Free Energy Summary **************
 G_electrostatic  =      -0.29419379 hartree =    -184.60938917 kcal/mol
 G_cavitation     =       0.00000000 hartree =       0.00000000 kcal/mol
 G_dispersion     =       0.00000000 hartree =       0.00000000 kcal/mol
 G_repulsion      =       0.00000000 hartree =       0.00000000 kcal/mol
 --------------------------------------------------
 Non-electrostatic Free Energy =       0.00000000 hartree =       0.00000000 kcal/mol
 Total                         =      -0.29419379 hartree =    -184.60938917 kcal/mol
 --------------------------------------------------
 SCF Energy (H0 + V/2)                       =    -646.96605111 
 Solute Internal Energy (H0)                 =    -646.67185732 
 Total Free Energy (H0 + V/2 + non-elec)     =    -646.96605111 hartree
                                             = -405977.32448463 kcal/mol
***********************************************************

 SCF time:  CPU 4371.61 s  wall 311.74 s
 SCF   energy in the final basis set = -646.96605111
 Total energy in the final basis set = -646.96605111
 
 --------------------------------------------------------------
 
                    Orbital Energies (a.u.)
 --------------------------------------------------------------
 
 Alpha MOs
 -- Occupied --
-19.225 -19.224 -19.198 -19.141 -19.141 -19.128 -10.378 -10.342
-10.296 -10.246 -10.239  -1.226  -1.156  -1.144  -1.065  -1.050
 -0.966  -0.881  -0.834  -0.740  -0.673  -0.638  -0.601  -0.580
 -0.565  -0.556  -0.530  -0.525  -0.513  -0.500  -0.498  -0.478
 -0.470  -0.457  -0.446  -0.430  -0.418  -0.369  -0.352  -0.347
 -0.342  -0.333  -0.330  -0.313
 -- Virtual --
  0.060   0.072   0.079   0.083   0.098   0.101   0.103   0.116
  0.121   0.128   0.136   0.137   0.142   0.147   0.153   0.164
  0.172   0.174   0.178   0.178   0.183   0.185   0.199   0.214
  0.217   0.223   0.227   0.237   0.243   0.250   0.257   0.262
  0.269   0.277   0.280   0.286   0.292   0.294   0.297   0.305
  0.313   0.319   0.326   0.331   0.335   0.340   0.343   0.348
  0.354   0.362   0.366   0.373   0.375   0.379   0.385   0.388
  0.396   0.398   0.400   0.409   0.411   0.418   0.425   0.429
  0.431   0.433   0.442   0.445   0.450   0.455   0.461   0.469
  0.475   0.478   0.483   0.490   0.496   0.497   0.502   0.511
  0.516   0.526   0.529   0.532   0.536   0.538   0.545   0.555
  0.562   0.565   0.573   0.575   0.584   0.591   0.600   0.611
  0.615   0.619   0.629   0.632   0.638   0.648   0.655   0.660
  0.666   0.668   0.675   0.682   0.689   0.701   0.712   0.713
  0.726   0.728   0.736   0.742   0.746   0.755   0.763   0.766
  0.775   0.780   0.786   0.795   0.798   0.806   0.808   0.812
  0.815   0.821   0.829   0.834   0.845   0.854   0.856   0.864
  0.880   0.881   0.886   0.890   0.902   0.904   0.918   0.926
  0.939   0.943   0.947   0.948   0.971   0.982   0.988   0.995
  1.010   1.019   1.028   1.042   1.060   1.067   1.081   1.087
  1.098   1.118   1.125   1.134   1.147   1.150   1.175   1.186
  1.190   1.196   1.205   1.215   1.239   1.256   1.269   1.289
  1.302   1.308   1.317   1.321   1.335   1.344   1.358   1.374
  1.382   1.394   1.421   1.426   1.438   1.442   1.475   1.479
  1.501   1.516   1.531   1.533   1.566   1.579   1.613   1.621
  1.635   1.665   1.672   1.684   1.731   1.766   1.810   1.829
  1.874   1.878   1.896   1.905   1.917   1.926   1.944   1.960
  1.978   1.983   1.997   2.003   2.008   2.016   2.023   2.041
  2.044   2.064   2.076   2.084   2.111   2.135   2.164   2.183
  2.190   2.197   2.217   2.225   2.246   2.249   2.273   2.294
  2.310   2.317   2.333   2.353   2.366   2.385   2.395   2.417
  2.428   2.457   2.461   2.480   2.491   2.507   2.537   2.566
  2.574   2.596   2.621   2.640   2.650   2.665   2.687   2.693
  2.712   2.719   2.746   2.754   2.769   2.774   2.808   2.823
  2.852   2.867   2.914   2.923   2.932   2.952   2.961   2.970
  2.984   3.014   3.031   3.047   3.051   3.084   3.089   3.125
  3.142   3.164   3.171   3.192   3.230   3.236   3.265   3.268
  3.299   3.311   3.330   3.346   3.356   3.388   3.396   3.414
  3.424   3.446   3.460   3.469   3.484   3.500   3.510   3.536
  3.542   3.555   3.570   3.585   3.592   3.606   3.627   3.648
  3.661   3.682   3.685   3.698   3.714   3.727   3.734   3.747
  3.765   3.769   3.785   3.801   3.852   3.878   3.889   3.890
  3.910   3.914   3.944   4.007   4.030   4.065   4.082   4.104
  4.155   4.186   4.207   4.227   4.256   4.273   4.331   4.404
  4.445   4.516   4.603   4.612   4.635   4.647   4.694   4.730
  4.749   4.820   4.839   4.857   4.887   4.909   4.950   5.007
  5.054   5.140   5.160   5.165   5.201   5.270   5.318   5.346
  5.353   5.356   5.371   5.385   5.456   5.501   5.538   5.549
  5.583   5.622   5.644   5.693   5.711   5.714   5.730   5.775
  5.786   5.841   5.963   5.987   6.046   6.074   6.114   6.207
  6.250   6.276   6.293   6.299   6.323   6.405   6.432   6.515
  6.579   6.608   6.623   6.631   6.655   6.688   6.693   6.755
  6.759   6.771   6.808   6.856   6.928   6.945   6.972   6.987
  7.033   7.054   7.093   7.135   7.161   7.193   7.231   7.265
  7.352   7.359   7.375   7.395   7.416   7.519   7.595   7.659
  7.731   8.332  22.692  22.852  22.922  23.243  23.716  44.181
 44.353  44.423  44.508  44.663  44.764
 --------------------------------------------------------------
 
          Ground-State Mulliken Net Atomic Charges

     Atom                 Charge (a.u.)
  ----------------------------------------
      1 C                    -1.146497
      2 H                     0.217301
      3 H                     0.250367
      4 H                     0.226327
      5 C                     0.859676
      6 C                    -0.483735
      7 H                     0.177950
      8 H                     0.186606
      9 C                     0.118893
     10 H                     0.173910
     11 H                     0.174344
     12 C                     0.192528
     13 O                    -0.703559
     14 O                    -0.704948
     15 O                    -0.280692
     16 O                    -0.284184
     17 O                    -0.430156
     18 O                    -0.917920
     19 H                     0.373789
  ----------------------------------------
  Sum of atomic charges =    -2.000000

 -----------------------------------------------------------------
                    Cartesian Multipole Moments
 -----------------------------------------------------------------
    Charge (ESU x 10^10)
                -9.6064
    Dipole Moment (Debye)
         X     -13.9513      Y      -2.3079      Z      -2.5931
       Tot      14.3767
    Quadrupole Moments (Debye-Ang)
        XX    -156.8825     XY      17.1284     YY     -94.8550
        XZ      14.1813     YZ       0.1627     ZZ     -81.8858
    Octopole Moments (Debye-Ang^2)
       XXX    -416.7857    XXY      29.2879    XYY     -48.0858
       YYY     -45.4805    XXZ      20.1854    XYZ      14.0082
       YYZ     -14.0084    XZZ     -25.0239    YZZ      -9.0491
       ZZZ     -27.3671
    Hexadecapole Moments (Debye-Ang^3)
      XXXX   -3725.6234   XXXY     440.7742   XXYY    -663.7203
      XYYY     357.9160   YYYY    -744.3027   XXXZ     367.7897
      XXYZ       2.8720   XYYZ      84.8162   YYYZ    -124.7795
      XXZZ    -513.6426   XYZZ      71.9371   YYZZ    -176.3857
      XZZZ     252.7095   YZZZ     -80.3896   ZZZZ    -425.4417
 -----------------------------------------------------------------
 Calculating analytic gradient of the SCF energy
 Gradient of SCF Energy
            1           2           3           4           5           6
    1  -0.1301289  -0.0000655   0.0113182   0.0578010   0.0892909   0.1044343
    2  -0.0203946  -0.0101475   0.0692756  -0.0420196  -0.0028511   0.0569468
    3  -0.0066411   0.0711714  -0.0210055  -0.0318936  -0.0401136   0.0753448
            7           8           9          10          11          12
    1  -0.0078324  -0.0162952  -0.0970078   0.0213069   0.0206021   0.0508879
    2   0.0192877  -0.0758218  -0.0346782   0.0614521  -0.0339681   0.0208065
    3  -0.0582286  -0.0140095  -0.0962735   0.0063887   0.0592594   0.0461846
           13          14          15          16          17          18
    1  -0.0350722  -0.0370778  -0.0119118  -0.0060924   0.0012545  -0.0155100
    2   0.0409182  -0.0479320   0.0069156  -0.0272375  -0.0078333  -0.0070828
    3  -0.0297548   0.0116642   0.0106488  -0.0207200   0.0638034   0.0064692
           19
    1   0.0000981
    2   0.0343640
    3  -0.0322945
 Max gradient component =       1.301E-01
 RMS gradient           =       4.659E-02
 Computing fast CPCM-ISWIG gradient
 Updating gradient with PCM contributions...
 -- total gradient after adding PCM contribution --
---------------------------------------------------
  Atom         X              Y              Z     
---------------------------------------------------
   1      -0.000144       0.000889       0.000106
   2       0.000124      -0.000276       0.000054
   3      -0.000277      -0.000487       0.000312
   4       0.000244      -0.000074      -0.000315
   5       0.000246      -0.000157      -0.002146
   6      -0.000082       0.000223       0.000742
   7       0.000276       0.000086       0.000237
   8      -0.000034      -0.000136      -0.000199
   9      -0.000425      -0.000227      -0.000016
  10      -0.000092       0.000027      -0.000170
  11       0.000008       0.000159      -0.000118
  12      -0.000062       0.000290       0.000850
  13       0.000157      -0.000050      -0.000261
  14      -0.000101      -0.000141      -0.000300
  15      -0.000363       0.000425      -0.000235
  16       0.000024      -0.000390       0.000179
  17      -0.000146       0.000853      -0.000630
  18       0.000460      -0.000489       0.000810
  19       0.000190      -0.000527       0.001099
---------------------------------------------------
 Number of fixed atoms: 0
 Gradient time:  CPU 1092.38 s  wall 79.17 s
 ----------------------------------------------------------------
             Standard Nuclear Orientation (Angstroms)
    I     Atom           X                Y                Z
 ----------------------------------------------------------------
    1      C      -2.7844910152    -0.1456053999    -0.0521519864
    2      H      -2.8412634970    -0.0232708130    -1.1373253196
    3      H      -2.9819023665    -1.1900434862     0.2021176070
    4      H      -3.5441613993     0.4847125750     0.4184886303
    5      C      -1.4128347521     0.2597810223     0.4784132201
    6      C       0.8867565681    -0.2645190796     0.0634784718
    7      H       1.0631317065    -0.7978046766     1.0052195529
    8      H       1.1054974961     0.7978114010     0.2259930110
    9      C       1.7795779362    -0.8203494714    -1.0368093182
   10      H       1.5476406289    -1.8783360958    -1.1917324275
   11      H       1.5844063295    -0.2733160737    -1.9644356180
   12      C       3.2563504033    -0.6589485136    -0.6452404357
   13      O       3.7971622058    -1.6096998628    -0.0212126165
   14      O       3.8143411883     0.4273024761    -0.9536893848
   15      O      -0.4661639591    -0.4185159788    -0.3461035008
   16      O      -1.2204949852     1.7195825027     0.0612116049
   17      O      -1.2096162396     2.5121009826     1.2528580447
   18      O      -1.2324264739     0.1495452844     1.7685916386
   19      H      -1.1577495115     1.7355280703     1.8998395166
 ----------------------------------------------------------------
 Nuclear Repulsion Energy =   643.1134190883 hartrees
 There are       44 alpha and       44 beta electrons
 Discretize the solute cavity surface with Lebedev spheres
	Using 110 Lebedev grid points for each H atom
	Using 110 Lebedev grid points for other atoms
	Atomic van der Waals radii will be scaled by 1.20
 Remove points where switching function is < 1.0e-08
 Keep 1126 surface tesserae and discard 964 interior tesserae
 Molecular Surface Area = 200.686 Angst**2
 Requested basis set is def2-TZVPD
 There are 189 shells and 497 basis functions
 A cutoff of  1.0D-14 yielded  15985 shell pairs
 There are    110387 function pairs (    140568 Cartesian)
 Smallest overlap matrix eigenvalue = 3.98E-06
 Guess MOs from SCF MO coefficient file
 Reading MOs from coefficient file
 Reading MOs from coefficient file
 Long-range K will be added via erf
 Coulomb attenuation parameter = 0.3 bohr**(-1)
 A restricted hybrid HF-DFT SCF calculation will be
 performed using Pulay DIIS extrapolation
 Polarizable Continuum solvation model will be applied
 Exchange:     0.1670 Hartree-Fock + 1.0000 wB97X-V + LR-HF
 Correlation:  1.0000 wB97X-V
 Using SG-2 standard quadrature grid
 Nonlocal Correlation:  VV10 with C = 0.0100 and b = 6.00
 Grid used for NLC:  SG-1 standard quadrature
 SCF converges when DIIS error is below 1.0E-08
Using Q-Chem read-in guess as SCF_GUESS READ specified.

 using 16 threads for integral computing
 -------------------------------------------------------
 OpenMP Integral computing Module                
 Release: version 1.0, May 2013, Q-Chem Inc. Pittsburgh 
 -------------------------------------------------------
 using 16 threads for integral computing
 -------------------------------------------------------
 OpenMP Integral computing Module                
 Release: version 1.0, May 2013, Q-Chem Inc. Pittsburgh 
 -------------------------------------------------------
 -------------------------------------------------------
 OpenMP BLAS3 based DFT computing Module                
 Release: version 1.0, May 2013, Q-Chem Inc. Pittsburgh 
 -------------------------------------------------------
 -------------------------------------------------------
 OpenMP BLAS3 based DFT computing Module                
 Release: version 1.0, May 2013, Q-Chem Inc. Pittsburgh 
 -------------------------------------------------------
 -------------------------------------------------------
 OpenMP BLAS3 based DFT computing Module                
 Release: version 1.0, May 2013, Q-Chem Inc. Pittsburgh 
 -------------------------------------------------------
 ---------------------------------------
  Cycle       Energy         DIIS Error
 ---------------------------------------
    1    -646.6718924765      2.80E-04
    2    -646.9607657932      2.88E-04
    3    -646.9644910638      1.34E-04
    4    -646.9651117189      1.00E-04
    5    -646.9654900688      7.69E-05
    6    -646.9657332274      5.78E-05
    7    -646.9659353372      3.48E-05
    8    -646.9660251221      1.63E-05
    9    -646.9660491160      3.63E-06
   10    -646.9660502915      8.24E-07
   11    -646.9660503499      1.29E-07
   12    -646.9660503512      3.52E-08
   13    -646.9660503513      9.21E-09 Convergence criterion met
 ---------------------------------------

************** Final PCM Free Energy Summary **************
 G_electrostatic  =      -0.29418852 hartree =    -184.60608315 kcal/mol
 G_cavitation     =       0.00000000 hartree =       0.00000000 kcal/mol
 G_dispersion     =       0.00000000 hartree =       0.00000000 kcal/mol
 G_repulsion      =       0.00000000 hartree =       0.00000000 kcal/mol
 --------------------------------------------------
 Non-electrostatic Free Energy =       0.00000000 hartree =       0.00000000 kcal/mol
 Total                         =      -0.29418852 hartree =    -184.60608315 kcal/mol
 --------------------------------------------------
 SCF Energy (H0 + V/2)                       =    -646.96605035 
 Solute Internal Energy (H0)                 =    -646.67186183 
 Total Free Energy (H0 + V/2 + non-elec)     =    -646.96605035 hartree
                                             = -405977.32401091 kcal/mol
***********************************************************

 SCF time:  CPU 4060.34 s  wall 288.65 s
 SCF   energy in the final basis set = -646.96605035
 Total energy in the final basis set = -646.96605035
 
 --------------------------------------------------------------
 
                    Orbital Energies (a.u.)
 --------------------------------------------------------------
 
 Alpha MOs
 -- Occupied --
-19.226 -19.224 -19.198 -19.141 -19.141 -19.128 -10.378 -10.342
-10.296 -10.246 -10.239  -1.226  -1.156  -1.144  -1.065  -1.050
 -0.966  -0.881  -0.834  -0.740  -0.673  -0.638  -0.601  -0.580
 -0.565  -0.556  -0.530  -0.525  -0.513  -0.500  -0.499  -0.478
 -0.470  -0.457  -0.445  -0.430  -0.418  -0.369  -0.352  -0.347
 -0.342  -0.333  -0.330  -0.313
 -- Virtual --
  0.060   0.072   0.079   0.083   0.098   0.101   0.103   0.116
  0.121   0.128   0.136   0.137   0.142   0.147   0.153   0.164
  0.172   0.174   0.178   0.178   0.183   0.185   0.199   0.214
  0.217   0.223   0.227   0.237   0.243   0.250   0.257   0.262
  0.269   0.277   0.280   0.286   0.292   0.294   0.297   0.305
  0.313   0.319   0.326   0.331   0.335   0.340   0.343   0.348
  0.354   0.362   0.366   0.373   0.375   0.379   0.385   0.388
  0.395   0.398   0.400   0.409   0.411   0.418   0.425   0.429
  0.431   0.433   0.442   0.445   0.450   0.455   0.461   0.469
  0.475   0.478   0.483   0.490   0.496   0.497   0.501   0.511
  0.516   0.526   0.529   0.531   0.536   0.538   0.545   0.555
  0.562   0.565   0.573   0.575   0.584   0.591   0.600   0.611
  0.615   0.619   0.629   0.632   0.638   0.648   0.655   0.660
  0.666   0.668   0.675   0.682   0.689   0.701   0.712   0.713
  0.726   0.728   0.736   0.742   0.746   0.755   0.763   0.766
  0.775   0.780   0.785   0.795   0.798   0.806   0.808   0.812
  0.815   0.821   0.829   0.834   0.845   0.854   0.856   0.864
  0.880   0.881   0.886   0.890   0.901   0.904   0.918   0.926
  0.939   0.943   0.947   0.948   0.971   0.982   0.988   0.995
  1.010   1.018   1.028   1.042   1.060   1.067   1.081   1.087
  1.098   1.118   1.126   1.134   1.147   1.150   1.175   1.186
  1.190   1.196   1.205   1.215   1.239   1.256   1.269   1.289
  1.302   1.308   1.317   1.321   1.335   1.344   1.358   1.374
  1.382   1.394   1.421   1.426   1.438   1.442   1.475   1.479
  1.500   1.516   1.531   1.533   1.566   1.579   1.613   1.621
  1.635   1.665   1.672   1.684   1.730   1.766   1.810   1.829
  1.874   1.878   1.896   1.905   1.917   1.926   1.944   1.960
  1.978   1.983   1.997   2.002   2.008   2.016   2.023   2.041
  2.044   2.064   2.076   2.084   2.111   2.135   2.164   2.183
  2.190   2.197   2.217   2.225   2.246   2.249   2.273   2.294
  2.310   2.317   2.333   2.353   2.366   2.385   2.395   2.417
  2.428   2.458   2.461   2.480   2.491   2.508   2.537   2.566
  2.574   2.595   2.621   2.640   2.650   2.665   2.687   2.693
  2.712   2.719   2.746   2.754   2.768   2.774   2.808   2.823
  2.852   2.867   2.914   2.923   2.932   2.952   2.961   2.970
  2.984   3.014   3.031   3.047   3.051   3.085   3.089   3.125
  3.142   3.164   3.171   3.192   3.230   3.236   3.265   3.268
  3.299   3.311   3.330   3.347   3.356   3.388   3.396   3.414
  3.424   3.446   3.460   3.469   3.484   3.500   3.510   3.536
  3.542   3.555   3.570   3.585   3.592   3.606   3.627   3.648
  3.661   3.682   3.685   3.698   3.714   3.727   3.734   3.747
  3.765   3.769   3.785   3.801   3.852   3.878   3.889   3.890
  3.910   3.914   3.944   4.007   4.030   4.066   4.082   4.104
  4.155   4.185   4.207   4.227   4.256   4.273   4.331   4.403
  4.445   4.516   4.603   4.612   4.635   4.647   4.694   4.730
  4.749   4.820   4.839   4.857   4.887   4.909   4.950   5.007
  5.054   5.140   5.160   5.164   5.201   5.270   5.318   5.346
  5.353   5.356   5.371   5.385   5.456   5.501   5.538   5.549
  5.583   5.622   5.644   5.693   5.711   5.714   5.730   5.775
  5.786   5.841   5.963   5.987   6.046   6.074   6.114   6.207
  6.250   6.275   6.293   6.299   6.323   6.405   6.432   6.514
  6.579   6.608   6.623   6.631   6.655   6.688   6.693   6.755
  6.759   6.771   6.808   6.856   6.928   6.945   6.972   6.987
  7.033   7.054   7.093   7.135   7.161   7.193   7.231   7.265
  7.352   7.359   7.375   7.395   7.416   7.519   7.595   7.659
  7.731   8.332  22.692  22.852  22.922  23.242  23.716  44.181
 44.353  44.422  44.507  44.663  44.764
 --------------------------------------------------------------
 
          Ground-State Mulliken Net Atomic Charges

     Atom                 Charge (a.u.)
  ----------------------------------------
      1 C                    -1.146078
      2 H                     0.217075
      3 H                     0.251242
      4 H                     0.225867
      5 C                     0.859219
      6 C                    -0.483819
      7 H                     0.177882
      8 H                     0.186552
      9 C                     0.118788
     10 H                     0.173873
     11 H                     0.174334
     12 C                     0.192541
     13 O                    -0.703560
     14 O                    -0.704949
     15 O                    -0.280599
     16 O                    -0.284148
     17 O                    -0.430102
     18 O                    -0.917919
     19 H                     0.373801
  ----------------------------------------
  Sum of atomic charges =    -2.000000

 -----------------------------------------------------------------
                    Cartesian Multipole Moments
 -----------------------------------------------------------------
    Charge (ESU x 10^10)
                -9.6064
    Dipole Moment (Debye)
[...]
 Red. Mass:       3.1412                 4.1805                 3.0305
 IR Active:          YES                    YES                    YES
 IR Intens:      169.943                110.953                374.192
 Raman Active:       YES                    YES                    YES
               X      Y      Z        X      Y      Z        X      Y      Z
 C          0.012  0.006  0.002   -0.060  0.144 -0.002   -0.128  0.017  0.104
 H          0.032 -0.013 -0.001   -0.021 -0.266 -0.046    0.288 -0.071  0.048
 H          0.043 -0.000  0.002    0.532  0.054  0.144   -0.094 -0.112 -0.357
 H          0.005 -0.004 -0.001   -0.410 -0.268 -0.040   -0.561 -0.145 -0.388
 C          0.014 -0.033 -0.020    0.003 -0.148  0.083    0.339 -0.016 -0.161
 C          0.214 -0.111 -0.171   -0.235 -0.080 -0.185   -0.001  0.008  0.004
 H          0.307 -0.105 -0.204   -0.098 -0.070 -0.184   -0.242  0.013  0.038
 H          0.368 -0.130 -0.344   -0.095 -0.096 -0.172   -0.109  0.020  0.033
 C         -0.058  0.140  0.199   -0.029  0.061  0.122    0.006 -0.001 -0.015
 H         -0.077  0.130  0.326    0.086  0.045  0.032    0.051 -0.011 -0.009
 H         -0.424  0.120  0.268    0.042  0.006  0.070    0.027 -0.016 -0.028
 C          0.035 -0.025 -0.057    0.026 -0.038 -0.083    0.007  0.000 -0.000
 O          0.001  0.013  0.013   -0.003  0.003  0.018   -0.002  0.006 -0.003
 O         -0.020 -0.022  0.022   -0.006  0.008  0.014   -0.004 -0.008  0.003
 O         -0.154  0.030  0.013    0.241  0.057  0.099   -0.047  0.018  0.039
 O         -0.002 -0.016  0.003   -0.007 -0.028 -0.021   -0.024 -0.007  0.038
 O          0.001  0.008  0.003   -0.001 -0.001  0.025   -0.005  0.018 -0.015
 O         -0.004  0.004 -0.020   -0.004  0.041 -0.078   -0.051 -0.009  0.035
 H          0.015 -0.016 -0.017   -0.008  0.062  0.040    0.107 -0.052 -0.049
 TransDip   0.397 -0.085 -0.099   -0.288 -0.155  0.082    0.531 -0.083 -0.309

 Mode:                31                     32                     33
 Frequency:      1219.48                1284.40                1297.34
 Force Cnst:      1.1005                 1.4538                 1.0978
 Red. Mass:       1.2560                 1.4957                 1.1070
 IR Active:          YES                    YES                    YES
 IR Intens:       34.054                 16.934                  2.396
 Raman Active:       YES                    YES                    YES
               X      Y      Z        X      Y      Z        X      Y      Z
 C         -0.003  0.001  0.001   -0.001 -0.001  0.007    0.001 -0.000 -0.002
 H         -0.003 -0.007 -0.001    0.032  0.007  0.005    0.011  0.006 -0.000
 H          0.000 -0.003 -0.009    0.014 -0.008 -0.014    0.013  0.002  0.012
 H         -0.013 -0.005 -0.007    0.003  0.016 -0.010    0.016  0.006  0.011
 C          0.013 -0.005  0.001   -0.006 -0.004 -0.040   -0.013 -0.001 -0.001
 C          0.002 -0.117  0.053   -0.007  0.024  0.040   -0.002 -0.039  0.018
 H          0.469  0.173  0.139    0.316 -0.066 -0.069   -0.547  0.123  0.199
 H         -0.441  0.015 -0.260    0.270 -0.018 -0.060    0.553 -0.114 -0.186
 C          0.001  0.023 -0.006   -0.155  0.026  0.057   -0.005  0.069 -0.031
 H         -0.420  0.079  0.200    0.592 -0.099 -0.194   -0.247  0.081  0.241
 H          0.424 -0.119 -0.172    0.577 -0.094 -0.167    0.291 -0.154 -0.222
 C          0.002 -0.013  0.003   -0.023 -0.027 -0.060    0.000 -0.011  0.002
 O         -0.012  0.014 -0.010    0.017 -0.027  0.029   -0.003  0.005 -0.003
 O          0.011  0.015 -0.002    0.017  0.038 -0.001    0.004  0.007 -0.002
 O         -0.007  0.050 -0.018   -0.006 -0.015 -0.028    0.004 -0.025  0.010
 O         -0.000 -0.006 -0.003    0.000  0.004  0.008    0.001  0.003  0.002
 O         -0.000  0.001  0.002   -0.000  0.006 -0.004    0.000 -0.000 -0.001
 O         -0.003  0.002 -0.002    0.001 -0.003  0.027    0.002 -0.000  0.001
 H          0.004 -0.001 -0.001    0.004 -0.038 -0.031   -0.005  0.001 -0.001
 TransDip   0.047 -0.170  0.061   -0.022 -0.029 -0.127   -0.016 -0.038  0.027

 Mode:                34                     35                     36
 Frequency:      1324.12                1397.86                1407.93
 Force Cnst:      2.9293                 1.7494                 1.8167
 Red. Mass:       2.8357                 1.5195                 1.5555
 IR Active:          YES                    YES                    YES
 IR Intens:      348.039                128.074                 24.241
 Raman Active:       YES                    YES                    YES
               X      Y      Z        X      Y      Z        X      Y      Z
 C          0.054  0.010 -0.027    0.131  0.044  0.055   -0.089 -0.023 -0.026
 H         -0.476 -0.136 -0.021   -0.412 -0.183  0.049    0.244  0.062 -0.034
 H         -0.408  0.070 -0.062   -0.395  0.064 -0.239    0.256 -0.061  0.079
 H         -0.250 -0.263 -0.109   -0.302 -0.248 -0.246    0.177  0.173  0.132
 C          0.161  0.046  0.280   -0.062 -0.024 -0.071    0.080  0.004  0.027
 C          0.024  0.022  0.033   -0.085  0.017  0.032   -0.130  0.040  0.069
 H          0.027  0.020  0.035    0.304 -0.089 -0.098    0.516 -0.140 -0.147
 H          0.112  0.006  0.046    0.326 -0.041 -0.139    0.547 -0.056 -0.195
 C         -0.025  0.001 -0.005    0.052 -0.003 -0.007    0.085 -0.008 -0.015
 H          0.102 -0.022 -0.031   -0.133  0.031  0.017   -0.178  0.040  0.023
 H          0.104 -0.019 -0.042   -0.125 -0.005  0.025   -0.180 -0.001  0.040
 C         -0.018 -0.003 -0.007    0.013  0.004  0.009   -0.014  0.003  0.006
 O          0.007 -0.010  0.007   -0.006  0.008 -0.007    0.001 -0.001 -0.002
 O          0.007  0.012 -0.003   -0.006 -0.010  0.001    0.001 -0.000 -0.002
 O         -0.061 -0.014 -0.031    0.009 -0.004 -0.006   -0.023 -0.012 -0.025
 O         -0.012 -0.015 -0.064    0.004  0.002  0.019   -0.004  0.002 -0.009
 O          0.000 -0.054  0.029   -0.000  0.021 -0.007   -0.000 -0.011  0.004
 O         -0.038  0.023 -0.153    0.010 -0.005  0.035   -0.010  0.005 -0.010
 H         -0.013  0.375  0.318    0.000 -0.161 -0.141    0.003  0.096  0.085
 TransDip   0.117  0.203  0.550   -0.264 -0.141 -0.205    0.013  0.100  0.122

 Mode:                37                     38                     39
 Frequency:      1430.77                1463.76                1467.89
 Force Cnst:      5.8474                 1.3272                 1.3315
 Red. Mass:       4.8481                 1.0513                 1.0489
 IR Active:          YES                    YES                    YES
 IR Intens:      338.507                 15.884                  0.584
 Raman Active:       YES                    YES                    YES
               X      Y      Z        X      Y      Z        X      Y      Z
 C         -0.012 -0.008 -0.010   -0.002  0.027 -0.049    0.018 -0.044 -0.024
 H          0.038  0.050 -0.004    0.428 -0.120 -0.073   -0.091  0.672  0.067
 H          0.029  0.001  0.057   -0.412  0.168  0.268    0.003  0.117  0.586
 H          0.024  0.016  0.021   -0.080 -0.481  0.510   -0.238 -0.124 -0.296
 C          0.009  0.009  0.018    0.013  0.013 -0.007    0.017 -0.017 -0.005
 C         -0.014  0.010  0.015   -0.004  0.001  0.003   -0.007  0.003  0.005
 H          0.124  0.086  0.046    0.014 -0.009 -0.006    0.010 -0.031 -0.019
 H          0.112 -0.019  0.111    0.008  0.001 -0.012    0.012  0.004 -0.037
 C         -0.110  0.021  0.039    0.002 -0.000 -0.001    0.003 -0.001 -0.003
 H          0.031  0.051 -0.554   -0.003  0.000  0.001   -0.001 -0.004  0.023
 H          0.005 -0.467 -0.303   -0.002  0.001  0.001    0.000  0.021  0.011
 C          0.423  0.050  0.114   -0.000 -0.000  0.000   -0.001 -0.000 -0.000
 O         -0.124  0.151 -0.111   -0.000  0.000 -0.000    0.000 -0.000  0.000
 O         -0.128 -0.183  0.042    0.000  0.000 -0.000    0.000  0.000 -0.000
 O          0.010 -0.011 -0.018   -0.000 -0.001 -0.000    0.000  0.001  0.001
 O         -0.001  0.001 -0.006   -0.001 -0.002  0.009   -0.001 -0.002  0.007
 O          0.000 -0.008  0.002   -0.000  0.013 -0.003   -0.000  0.008 -0.002
 O         -0.002  0.002 -0.006   -0.003 -0.005 -0.002   -0.003  0.001 -0.001
 H         -0.001  0.066  0.060    0.003 -0.118 -0.105    0.006 -0.076 -0.072
 TransDip   0.568  0.078  0.137    0.012 -0.118  0.047   -0.013 -0.017  0.011

 Mode:                40                     41                     42
 Frequency:      1481.35                1513.69                1517.96
 Force Cnst:      1.6089                 1.5211                 1.7323
 Red. Mass:       1.2444                 1.1268                 1.2760
 IR Active:          YES                    YES                    YES
 IR Intens:       58.234                 56.875                182.677
 Raman Active:       YES                    YES                    YES
               X      Y      Z        X      Y      Z        X      Y      Z
 C         -0.002  0.001  0.000   -0.010 -0.003 -0.004    0.018  0.005  0.008
 H          0.008 -0.024 -0.003   -0.035 -0.010 -0.004    0.073  0.059  0.011
 H          0.000 -0.005 -0.020    0.047 -0.019 -0.022   -0.090  0.045  0.081
 H          0.013  0.007  0.016    0.022  0.047 -0.016   -0.071 -0.110  0.011
 C         -0.001  0.003  0.002    0.024  0.002  0.046   -0.031 -0.017 -0.107
 C         -0.013  0.014  0.025   -0.030 -0.026 -0.057   -0.019 -0.020 -0.040
 H         -0.032 -0.173 -0.082    0.226  0.511  0.225    0.146  0.313  0.128
 H         -0.021  0.043 -0.185    0.194 -0.144  0.546    0.113 -0.095  0.327
 C         -0.050 -0.036 -0.076   -0.009 -0.009 -0.018    0.001 -0.003 -0.006
 H          0.187 -0.176  0.617    0.033 -0.042  0.163    0.004 -0.015  0.083
 H          0.207  0.589  0.254    0.037  0.155  0.073    0.004  0.076  0.043
 C          0.081  0.006  0.015    0.007 -0.001 -0.001   -0.004 -0.002 -0.003
 O         -0.021  0.026 -0.018   -0.002  0.002 -0.001    0.001 -0.001  0.001
 O         -0.022 -0.030  0.007   -0.002 -0.002  0.001    0.001  0.002 -0.000
 O          0.008 -0.002 -0.001   -0.009 -0.003 -0.010   -0.001  0.003  0.007
 O          0.000  0.001 -0.003   -0.000 -0.005  0.020    0.000  0.010 -0.033
 O          0.000 -0.004  0.001   -0.002  0.030 -0.007    0.003 -0.052  0.013
 O          0.001  0.001 -0.000   -0.006 -0.006 -0.019    0.010  0.011  0.045
 H         -0.000  0.037  0.035    0.003 -0.328 -0.309   -0.004  0.589  0.556
 TransDip   0.213  0.067  0.099    0.009 -0.214  0.112   -0.068  0.413 -0.111

 Mode:                43                     44                     45
 Frequency:      1584.91                3001.67                3043.43
 Force Cnst:     14.7468                 5.6544                 5.7616
 Red. Mass:       9.9641                 1.0652                 1.0558
 IR Active:          YES                    YES                    YES
 IR Intens:     1309.267                664.435                 53.559
 Raman Active:       YES                    YES                    YES
               X      Y      Z        X      Y      Z        X      Y      Z
 C          0.000  0.000  0.000    0.001  0.002 -0.002    0.001  0.002  0.003
 H          0.000 -0.000  0.000   -0.005 -0.000 -0.004   -0.002  0.005 -0.041
 H         -0.001  0.001  0.000   -0.001 -0.028  0.008   -0.005 -0.028  0.008
 H         -0.000 -0.001  0.000   -0.010  0.009  0.006   -0.007  0.005  0.004
 C         -0.000  0.000 -0.001    0.000 -0.005  0.009    0.001 -0.001 -0.002
 C         -0.000 -0.010  0.005   -0.000  0.001 -0.001   -0.016 -0.021 -0.059
 H         -0.008  0.012  0.016    0.001 -0.005  0.011    0.107 -0.378  0.633
 H          0.011 -0.007 -0.016   -0.001 -0.009 -0.001    0.124  0.637  0.079
 C          0.001 -0.054  0.024    0.000  0.000  0.001    0.002  0.003  0.007
 H         -0.348  0.051 -0.012   -0.002 -0.009 -0.001   -0.017 -0.069 -0.007
 H          0.346  0.028 -0.024   -0.001  0.004 -0.006   -0.014  0.042 -0.064
 C          0.004  0.694 -0.319   -0.000 -0.000 -0.000   -0.001 -0.000 -0.001
 O          0.112 -0.225  0.143    0.000  0.000  0.000    0.000 -0.000  0.000
 O         -0.116 -0.253  0.077    0.000  0.000 -0.000    0.000  0.000  0.000
 O         -0.000 -0.000 -0.000    0.000  0.001 -0.001   -0.003 -0.000 -0.000
 O         -0.000  0.000  0.000    0.000  0.003 -0.006    0.000  0.000  0.000
 O          0.000 -0.000 -0.000   -0.004  0.043 -0.042   -0.000 -0.000  0.000
 O          0.000 -0.000  0.000   -0.001 -0.004 -0.006    0.000  0.000  0.001
 H          0.000  0.001  0.001    0.066 -0.630  0.771   -0.001  0.004 -0.003
 TransDip   0.005  1.053 -0.483    0.010 -0.739  0.367   -0.143 -0.026 -0.184

 Mode:                46                     47                     48
 Frequency:      3051.01                3065.75                3080.77
 Force Cnst:      5.6839                 5.8543                 6.1847
 Red. Mass:       1.0363                 1.0572                 1.1060
 IR Active:          YES                    YES                    YES
 IR Intens:       39.445                 39.465                 34.496
 Raman Active:       YES                    YES                    YES
               X      Y      Z        X      Y      Z        X      Y      Z
 C         -0.042 -0.017 -0.018    0.010  0.004  0.003    0.000  0.000  0.000
 H          0.021 -0.069  0.575   -0.004  0.015 -0.124   -0.000  0.001 -0.005
 H          0.097  0.562 -0.142   -0.023 -0.131  0.033   -0.001 -0.006  0.002
 H          0.351 -0.302 -0.227   -0.085  0.073  0.054   -0.000  0.000  0.000
 C          0.003  0.001  0.001   -0.001 -0.000 -0.000   -0.000 -0.000  0.000
 C         -0.002 -0.003 -0.003   -0.003 -0.003 -0.005   -0.004 -0.084  0.036
 H          0.008 -0.022  0.036    0.011 -0.030  0.049   -0.090  0.303 -0.546
 H          0.010  0.054  0.007    0.015  0.072  0.010    0.135  0.699  0.111
 C         -0.005 -0.006 -0.012   -0.022 -0.024 -0.057    0.001  0.023 -0.009
 H          0.032  0.148  0.019    0.135  0.646  0.081   -0.047 -0.201 -0.029
 H          0.025 -0.076  0.123    0.119 -0.364  0.590    0.033 -0.085  0.144
 C          0.001 -0.000  0.000    0.003  0.000  0.000   -0.000  0.000 -0.000
 O         -0.000  0.000 -0.000   -0.000  0.000 -0.000    0.000 -0.000 -0.000
 O         -0.000 -0.000 -0.000   -0.000 -0.000  0.000    0.000  0.000  0.000
 O         -0.000  0.000 -0.000    0.000 -0.000  0.000   -0.000 -0.000  0.000
 O         -0.000  0.000 -0.000    0.000  0.000  0.000    0.000  0.000 -0.000
 O         -0.000  0.001 -0.001   -0.000  0.000 -0.000   -0.000  0.001 -0.001
 O         -0.000 -0.000 -0.000    0.000 -0.000  0.000   -0.000  0.000 -0.000
 H          0.002 -0.018  0.021    0.000 -0.004  0.004    0.000 -0.009  0.011
 TransDip  -0.145 -0.105 -0.092   -0.041 -0.076 -0.182   -0.007 -0.172  0.075

 Mode:                49                     50                     51
 Frequency:      3122.26                3134.47                3141.24
 Force Cnst:      6.3613                 6.3871                 6.4157
 Red. Mass:       1.1075                 1.1034                 1.1035
 IR Active:          YES                    YES                    YES
 IR Intens:       82.490                 52.827                 45.000
 Raman Active:       YES                    YES                    YES
               X      Y      Z        X      Y      Z        X      Y      Z
 C          0.000  0.001  0.001    0.002 -0.073  0.058   -0.042  0.051  0.066
 H         -0.001  0.001 -0.012   -0.028  0.059 -0.616   -0.030  0.067 -0.501
 H         -0.002 -0.010  0.003    0.135  0.727 -0.172   -0.046 -0.207  0.064
 H          0.001 -0.001 -0.000   -0.124  0.090  0.088    0.575 -0.479 -0.354
 C         -0.000 -0.000  0.000   -0.000 -0.002  0.002   -0.001  0.001  0.002
 C         -0.001 -0.024  0.011    0.000 -0.000  0.000    0.001  0.001  0.001
 H         -0.023  0.086 -0.153   -0.001  0.002 -0.004   -0.002  0.006 -0.010
 H          0.035  0.194  0.030    0.000 -0.001 -0.000   -0.004 -0.017 -0.002
 C         -0.002 -0.083  0.038   -0.000 -0.000 -0.000   -0.000  0.000 -0.001
 H          0.143  0.670  0.100    0.001  0.004  0.001    0.001  0.002  0.000
 H         -0.116  0.330 -0.564    0.001 -0.002  0.004    0.002 -0.007  0.011
 C          0.000 -0.002  0.001    0.000  0.000  0.000    0.000  0.000  0.000
 O          0.000  0.001 -0.000   -0.000  0.000 -0.000   -0.000  0.000 -0.000
 O          0.000  0.001 -0.000   -0.000 -0.000  0.000   -0.000 -0.000  0.000
 O          0.000  0.000 -0.000   -0.000  0.000 -0.000    0.000 -0.000 -0.000
 O          0.000  0.000 -0.000   -0.000  0.000 -0.000    0.000 -0.000 -0.000
 O         -0.000  0.000 -0.000   -0.000  0.001 -0.001   -0.000  0.000 -0.000
 O         -0.000  0.000 -0.000    0.000  0.000 -0.000    0.000 -0.000 -0.000
 H          0.000 -0.003  0.004    0.001 -0.013  0.013   -0.000 -0.004  0.002
 TransDip  -0.007 -0.264  0.123    0.007 -0.186  0.140   -0.089  0.113  0.160

 STANDARD THERMODYNAMIC QUANTITIES AT   298.15 K  AND     1.00 ATM

   This Molecule has  1 Imaginary Frequencies
   Zero point vibrational energy:       86.668 kcal/mol

   Atom    1 Element C  Has Mass   12.00000
   Atom    2 Element H  Has Mass    1.00783
   Atom    3 Element H  Has Mass    1.00783
   Atom    4 Element H  Has Mass    1.00783
   Atom    5 Element C  Has Mass   12.00000
   Atom    6 Element C  Has Mass   12.00000
   Atom    7 Element H  Has Mass    1.00783
   Atom    8 Element H  Has Mass    1.00783
   Atom    9 Element C  Has Mass   12.00000
   Atom   10 Element H  Has Mass    1.00783
   Atom   11 Element H  Has Mass    1.00783
   Atom   12 Element C  Has Mass   12.00000
   Atom   13 Element O  Has Mass   15.99491
   Atom   14 Element O  Has Mass   15.99491
   Atom   15 Element O  Has Mass   15.99491
   Atom   16 Element O  Has Mass   15.99491
   Atom   17 Element O  Has Mass   15.99491
   Atom   18 Element O  Has Mass   15.99491
   Atom   19 Element H  Has Mass    1.00783
   Molecular Mass:   164.032100 amu
   Principal axes and moments of inertia in amu*Bohr^2:
                             1           2           3
    Eigenvalues --      814.82846  3654.78968  3940.59755
          X               0.92835     0.33807     0.15454
          Y              -0.29294     0.92130    -0.25571
          Z              -0.22883     0.19212     0.95432
   Rotational Symmetry Number is   1
   The Molecule is an Asymmetric Top
   Translational Enthalpy:        0.889 kcal/mol
   Rotational Enthalpy:           0.889 kcal/mol
   Vibrational Enthalpy:         91.670 kcal/mol
   gas constant (RT):             0.592 kcal/mol
   Translational Entropy:        41.193  cal/mol.K
   Rotational Entropy:           30.840  cal/mol.K
   Vibrational Entropy:          34.350  cal/mol.K

   Total Enthalpy:               94.040 kcal/mol
   Total Entropy:               106.383  cal/mol.K
Archival summary:
1\1\c6-91\FREQ\ProcedureUnspecified\BasisUnspecified\658(2-,1)\leeping\SatMar2107:28:122020SatMar2107:28:122020\0\\#,FREQ,ProcedureUnspecified,BasisUnspecified,\\-2,1\O\C,1,1.42192\H,2,1.09653,1,110.35\H,2,1.09672,1,109.716,3,-119.086,0\C,1,1.42692,2,114.413,3,69.2772,0\O,5,1.30739,1,116.014,2,-44.0967,0\C,2,1.52207,1,108.08,3,120.833,0\H,7,1.09414,2,109.337,1,-59.8917,0\H,7,1.09445,2,109,1,59.1645,0\C,5,1.52528,1,105.64,2,-174.702,0\H,10,1.093,5,108.82,1,-169.647,0\H,10,1.09341,5,111.254,1,-49.404,0\H,10,1.09388,5,109.562,1,71.3263,0\O,5,1.53038,1,102.271,2,74.8725,0\O,14,1.43116,5,107.589,1,-136.449,0\H,15,1.0121,14,96.1863,5,10.3447,0\C,7,1.53631,2,109.952,1,179.287,0\O,17,1.25929,7,117.374,2,90.8579,0\O,17,1.25954,7,117.003,2,-87.7431,0\\\@

 Total job time:  53406.91s(wall), 631129.00s(cpu) 
 Sat Mar 21 07:28:12 2020

        *************************************************************
        *                                                           *
        *  Thank you very much for using Q-Chem.  Have a nice day.  *
        *                                                           *
        *************************************************************


