
Running Job 1 of 1 qc-3-tshess.in
qchem qc-3-tshess.in_56811.0 /scratch/alotsuki/1165982/qc-3-tshess.d/ 1
/home/leeping/opt/qchem/5.0.2-openmp/exe/qcprog.exe_s qc-3-tshess.in_56811.0 /scratch/alotsuki/1165982/qc-3-tshess.d/
Check license passed

                  Welcome to Q-Chem
     A Quantum Leap Into The Future Of Chemistry


 Q-Chem 5.0, Q-Chem, Inc., Pleasanton, CA (2017)

 Yihan Shao,  Zhengting Gan,  E. Epifanovsky,  A. T. B. Gilbert,  M. Wormit,  
 J. Kussmann,  A. W. Lange,  A. Behn,  Jia Deng,  Xintian Feng,  D. Ghosh,  
 M. Goldey,  P. R. Horn,  L. D. Jacobson,  I. Kaliman,  T. Kus,  A. Landau,  
 Jie Liu,  E. I. Proynov,  R. M. Richard,  R. P. Steele,  E. J. Sundstrom,  
 H. L. Woodcock III,  P. M. Zimmerman,  D. Zuev,  B. Albrecht,  E. Alguire,  
 S. A. Baeppler,  D. Barton,  Z. Benda,  Y. A. Bernard,  E. J. Berquist,  
 K. B. Bravaya,  H. Burton,  D. Casanova,  Chun-Min Chang,  Yunqing Chen,  
 A. Chien,  K. D. Closser,  M. P. Coons,  S. Dasgupta,  A. L. Dempwolff,  
 M. Diedenhofen,  Hainam Do,  R. G. Edgar,  Po-Tung Fang,  S. Fatehi,  
 Qingguo Feng,  J. Fosso-Tande,  Qinghui Ge,  A. Ghysels,  G. Gidofalvi,  
 J. Gomes,  J. Gonthier,  A. Gunina,  M. W. D. Hanson-Heine,  
 P. H. P. Harbach,  A. W. Hauser,  J. E. Herr,  E. G. Hohenstein,  
 Z. C. Holden,  Kerwin Hui,  T.-C. Jagau,  Hyunjun Ji,  B. Kaduk,  
 K. Khistyaev,  Jaehoon Kim,  P. Klunzinger,  K. Koh,  D. Kosenkov,  
 L. Koulias,  T. Kowalczyk,  C. M. Krauter,  A. Kunitsa,  Ka Un Lao,  
 A. Laurent,  K. V. Lawler,  Joonho Lee,  D. Lefrancois,  S. Lehtola,  
 D. S. Levine,  Yi-Pei Li,  You-Sheng Lin,  Fenglai Liu,  E. Livshits,  
 A. Luenser,  P. Manohar,  E. Mansoor,  S. F. Manzer,  Shan-Ping Mao,  
 Yuezhi Mao,  N. Mardirossian,  A. V. Marenich,  T. Markovich,  
 L. A. Martinez-Martinez,  S. A. Maurer,  N. J. Mayhall,  S. C. McKenzie,  
 J.-M. Mewes,  A. F. Morrison,  J. W. Mullinax,  K. Nanda,  
 T. S. Nguyen-Beck,  R. Olivares-Amaya,  J. A. Parkhill,  T. M. Perrine,  
 F. Plasser,  S. Prager,  A. Prociuk,  E. Ramos,  D. R. Rehn,  F. Rob,  
 M. Schneider,  N. Sergueev,  S. M. Sharada,  S. Sharma,  D. W. Small,  
 T. Stauch,  T. Stein,  Yu-Chuan Su,  A. J. W. Thom,  A. Tkatchenko,  
 T. Tsuchimochi,  L. Vogt,  O. Vydrov,  M. A. Watson,  J. Wenzel,  
 M. de Wergifosse,  T. A. Wesolowski,  A. White,  J. Witte,  A. Yamada,  
 Jun Yang,  K. Yao,  S. Yeganeh,  S. R. Yost,  Zhi-Qiang You,  A. Zech,  
 Igor Ying Zhang,  Xing Zhang,  Yan Zhao,  Ying Zhu,  B. R. Brooks,  
 G. K. L. Chan,  C. J. Cramer,  M. S. Gordon,  W. J. Hehre,  A. Klamt,  
 M. W. Schmidt,  C. D. Sherrill,  D. G. Truhlar,  A. Aspuru-Guzik,  R. Baer,  
 A. T. Bell,  N. A. Besley,  Jeng-Da Chai,  R. A. DiStasio Jr.,  A. Dreuw,  
 B. D. Dunietz,  T. R. Furlani,  Chao-Ping Hsu,  Yousung Jung,  Jing Kong,  
 D. S. Lambrecht,  WanZhen Liang,  C. Ochsenfeld,  V. A. Rassolov,  
 L. V. Slipchenko,  J. E. Subotnik,  T. Van Voorhis,  J. M. Herbert,  
 A. I. Krylov,  P. M. W. Gill,  M. Head-Gordon

 Contributors to earlier versions of Q-Chem not listed above: 
 R. D. Adamson,  B. Austin,  J. Baker,  G. J. O. Beran,  K. Brandhorst,  
 S. T. Brown,  E. F. C. Byrd,  A. K. Chakraborty,  C.-L. Cheng,  
 Siu Hung Chien,  D. M. Chipman,  D. L. Crittenden,  H. Dachsel,  
 R. J. Doerksen,  A. D. Dutoi,  L. Fusti-Molnar,  W. A. Goddard III,  
 A. Golubeva-Zadorozhnaya,  S. R. Gwaltney,  G. Hawkins,  A. Heyden,  
 S. Hirata,  G. Kedziora,  F. J. Keil,  C. Kelley,  Jihan Kim,  R. A. King,  
 R. Z. Khaliullin,  P. P. Korambath,  W. Kurlancheek,  A. M. Lee,  M. S. Lee,  
 S. V. Levchenko,  Ching Yeh Lin,  D. Liotard,  R. C. Lochan,  I. Lotan,  
 P. E. Maslen,  N. Nair,  D. P. O'Neill,  D. Neuhauser,  E. Neuscamman,  
 C. M. Oana,  R. Olson,  B. Peters,  R. Peverati,  P. A. Pieniazek,  
 Y. M. Rhee,  J. Ritchie,  M. A. Rohrdanz,  E. Rosta,  N. J. Russ,  
 H. F. Schaefer III,  N. E. Schultz,  N. Shenvi,  A. C. Simmonett,  A. Sodt,  
 D. Stuck,  K. S. Thanthiriwatte,  V. Vanovschi,  Tao Wang,  A. Warshel,  
 C. F. Williams,  Q. Wu,  X. Xu,  W. Zhang

 Please cite Q-Chem as follows:
 Y. Shao et al., Mol. Phys. 113, 184-215 (2015)
 DOI: 10.1080/00268976.2014.952696

 Q-Chem 5.0.2 for Intel X86 EM64T Linux

 Parts of Q-Chem use Armadillo 5.200.1 (Boston Tea Smuggler).
 http://arma.sourceforge.net/

 Q-Chem begins on Thu Apr 19 05:23:22 2018  

Host: 
0

     Scratch files written to /scratch/alotsuki/1165982/qc-3-tshess.d//
 Dec517 15110_ 26548  26544 5633   
Processing $rem in /home/leeping/opt/qchem/5.0.2-openmp/config/preferences.
 MEM_STATIC 2000
 MEM_TOTAL  8000
 SYMMETRY   OFF
 SYM_IGNORE TRUE 
Symmetry turned off for PCM/SM12/SMD calculation

Checking the input file for inconsistencies... 	...done.

--------------------------------------------------------------
User input:
--------------------------------------------------------------
$molecule
-2 1
C       -2.9062713724   -0.1413477240    0.6956409486
H       -3.0172034175   -0.6093334809   -0.2819661595
H       -3.1721575917   -0.8418659819    1.4884337809
H       -3.5743085996    0.7234703862    0.7465166107
C       -1.5031934610    0.3583661864    0.8924557369
C        0.8683262461   -0.9637227256   -0.1334523967
H        1.1098377634   -2.0377969854   -0.0784354603
H        1.0447098280   -0.5445928775    0.8708673008
C        1.8025475092   -0.2902618495   -1.1438062946
H        1.6365879239   -0.7354080991   -2.1300355601
H        1.5647022626    0.7758973508   -1.1870523265
C        3.2641740987   -0.4836708858   -0.7239056998
O        3.8477437658   -1.5272905474   -1.1237860714
O        3.7725072350    0.3934673397    0.0252217401
O       -0.4836272940   -0.8630601744   -0.4735785896
O       -0.9203190396    0.8915524406   -0.2450403848
O       -1.5784598401    2.6000872490    0.1627508275
O       -0.9450926956    0.4097011024    1.9671859601
H       -0.8105033212    2.8858092764    0.6719860381
$end

$rem
jobtype               freq
method                wb97x-v
basis                 def2-tzvpd
symmetry              off
sym_ignore            true
incdft                false
incfock               0
!scf_algorithm        diis_gdm
scf_convergence       8
thresh                14
!purecart             112
max_scf_cycles        1000
geom_opt_max_cycles   500
geom_opt_dmax         100
geom_opt_tol_gradient 10
solvent_method        pcm
ideriv                1
rpath_tol_displacement 1000
rpath_max_cycles      100
rpath_direction       1
!scf_guess            read
scf_guess             read
$end

$pcm
theory              cosmo
method              iswig
Radii               bondi
vdwScale            1.20
hpoints             110
heavypoints         110
$end

$solvent
dielectric 78.400000
$end

--------------------------------------------------------------
 ----------------------------------------------------------------
             Standard Nuclear Orientation (Angstroms)
    I     Atom           X                Y                Z
 ----------------------------------------------------------------
    1      C      -2.9062713724    -0.1413477240     0.6956409486
    2      H      -3.0172034175    -0.6093334809    -0.2819661595
    3      H      -3.1721575917    -0.8418659819     1.4884337809
    4      H      -3.5743085996     0.7234703862     0.7465166107
    5      C      -1.5031934610     0.3583661864     0.8924557369
    6      C       0.8683262461    -0.9637227256    -0.1334523967
    7      H       1.1098377634    -2.0377969854    -0.0784354603
    8      H       1.0447098280    -0.5445928775     0.8708673008
    9      C       1.8025475092    -0.2902618495    -1.1438062946
   10      H       1.6365879239    -0.7354080991    -2.1300355601
   11      H       1.5647022626     0.7758973508    -1.1870523265
   12      C       3.2641740987    -0.4836708858    -0.7239056998
   13      O       3.8477437658    -1.5272905474    -1.1237860714
   14      O       3.7725072350     0.3934673397     0.0252217401
   15      O      -0.4836272940    -0.8630601744    -0.4735785896
   16      O      -0.9203190396     0.8915524406    -0.2450403848
   17      O      -1.5784598401     2.6000872490     0.1627508275
   18      O      -0.9450926956     0.4097011024     1.9671859601
   19      H      -0.8105033212     2.8858092764     0.6719860381
 ----------------------------------------------------------------
 Nuclear Repulsion Energy =   630.4029937108 hartrees
 There are       44 alpha and       44 beta electrons
 Requested basis set is def2-TZVPD
 There are 189 shells and 497 basis functions

 Total QAlloc Memory Limit   8000 MB
 Mega-Array Size      1956 MB
 MEM_STATIC part      2000 MB
 Discretize the solute cavity surface with Lebedev spheres
	Using 110 Lebedev grid points for each H atom
	Using 110 Lebedev grid points for other atoms
	Atomic van der Waals radii will be scaled by 1.20
 Remove points where switching function is < 1.0e-08
 Keep 1149 surface tesserae and discard 941 interior tesserae
 Molecular Surface Area = 207.418 Angst**2
 A cutoff of  1.0D-14 yielded  15929 shell pairs
 There are    110031 function pairs (    140000 Cartesian)
 
 -------------------------------------------------------
 OpenMP Integral Computing Module                       
 Release: version 1.0, May 2013, Q-Chem Inc. Pittsburgh 
 -------------------------------------------------------
 Integral Job Info:
 Integral job number is                      11
 Integral operator is                         1
 short-range coefficients              16700000
 long-range coefficients              100000000
 Omega coefficients                         300
 if combine SR and LR in K                    1
 Integral screening is                        0
 Integral computing path is                   2
 max size of driver memory is            800000
 size of driver memory is                776718
 size of scratch memory is              4473992
 max col of scratch BK array              10000
 max len of scratch array in speh3          662
 max len of scratch index in speh4           32
 max int batch size is                      520
 min int batch size is                       52
 fixed nKL is                                52
 max L of basis functions is                  3
 order of int derivative is                   0
 number of shells is                        189
 number of basis is                         563
 number of cartesian basis is               563
 number of contracted shell pairs         15929
 number of primitive shell pairs          31828
 maxK2 (contraction) of shell pair           36
 max number of K2 of shell pair               1
 max number of CS2 of shell pair           2644
 max number of PS2 of shell pair           3612
 mem total for path MDJ                  819632
 -------------------------------------------------------
 Smallest overlap matrix eigenvalue = 5.21E-06
 Guess MOs from SCF MO coefficient file
 Reading MOs from coefficient file
 Reading MOs from coefficient file
 Long-range K will be added via erf
 Coulomb attenuation parameter = 0.3 bohr**(-1)
 A restricted hybrid HF-DFT SCF calculation will be
 performed using Pulay DIIS extrapolation
 Polarizable Continuum solvation model will be applied
 Exchange:     0.1670 Hartree-Fock + 1.0000 wB97X-V + LR-HF
 Correlation:  1.0000 wB97X-V
 Using SG-2 standard quadrature grid
 Nonlocal Correlation:  VV10 with C = 0.0100 and b = 6.00
 Grid used for NLC:  SG-1 standard quadrature
 SCF converges when DIIS error is below 1.0E-08
Using Q-Chem read-in guess as SCF_GUESS READ specified.

 using 4 threads for integral computing
 -------------------------------------------------------
 OpenMP Integral computing Module                
 Release: version 1.0, May 2013, Q-Chem Inc. Pittsburgh 
 -------------------------------------------------------
 using 4 threads for integral computing
 -------------------------------------------------------
 OpenMP Integral computing Module                
 Release: version 1.0, May 2013, Q-Chem Inc. Pittsburgh 
 -------------------------------------------------------
 -------------------------------------------------------
 OpenMP BLAS3 based DFT computing Module                
 Release: version 1.0, May 2013, Q-Chem Inc. Pittsburgh 
 -------------------------------------------------------
 -------------------------------------------------------
 OpenMP BLAS3 based DFT computing Module                
 Release: version 1.0, May 2013, Q-Chem Inc. Pittsburgh 
 -------------------------------------------------------
 -------------------------------------------------------
 OpenMP BLAS3 based DFT computing Module                
 Release: version 1.0, May 2013, Q-Chem Inc. Pittsburgh 
 -------------------------------------------------------
 ---------------------------------------
  Cycle       Energy         DIIS Error
 ---------------------------------------
    1    -646.5943097012      2.98E-04
    2    -646.8874699312      3.14E-04
    3    -646.8918035135      1.48E-04
    4    -646.8925017622      1.10E-04
    5    -646.8928829211      8.79E-05
    6    -646.8931282059      7.13E-05
    7    -646.8932888860      5.82E-05
    8    -646.8934127358      4.55E-05
    9    -646.8934885672      3.56E-05
   10    -646.8935430864      2.63E-05
   11    -646.8935681529      2.07E-05
   12    -646.8935871767      1.50E-05
   13    -646.8935955592      1.17E-05
   14    -646.8936008545      8.96E-06
   15    -646.8936041298      6.74E-06
   16    -646.8936055730      5.49E-06
   17    -646.8936084101      7.17E-09 Convergence criterion met
 ---------------------------------------

************** Final PCM Free Energy Summary **************
 G_electrostatic  =      -0.29929872 hartree =    -187.81278054 kcal/mol
 G_cavitation     =       0.00000000 hartree =       0.00000000 kcal/mol
 G_dispersion     =       0.00000000 hartree =       0.00000000 kcal/mol
 G_repulsion      =       0.00000000 hartree =       0.00000000 kcal/mol
 --------------------------------------------------
 Non-electrostatic Free Energy =       0.00000000 hartree =       0.00000000 kcal/mol
 Total                         =      -0.29929872 hartree =    -187.81278054 kcal/mol
 --------------------------------------------------
 SCF Energy (H0 + V/2)                       =    -646.89360841 
 Solute Internal Energy (H0)                 =    -646.59430969 
 Total Free Energy (H0 + V/2 + non-elec)     =    -646.89360841 hartree
                                             = -405931.86600673 kcal/mol
***********************************************************

 SCF time:  CPU 4921.40 s  wall 1275.89 s
 SCF   energy in the final basis set = -646.89360841
 Total energy in the final basis set = -646.89360841
 
 --------------------------------------------------------------
 
                    Orbital Energies (a.u.)
 --------------------------------------------------------------
 
 Alpha MOs
 -- Occupied --
-19.266 -19.187 -19.185 -19.155 -19.139 -19.139 -10.395 -10.340
-10.289 -10.256 -10.240  -1.205  -1.142  -1.125  -1.069  -1.047
 -1.009  -0.861  -0.855  -0.715  -0.654  -0.610  -0.598  -0.576
 -0.569  -0.551  -0.535  -0.525  -0.512  -0.505  -0.494  -0.486
 -0.471  -0.464  -0.440  -0.426  -0.399  -0.374  -0.357  -0.351
 -0.346  -0.329  -0.327  -0.301
 -- Virtual --
  0.019   0.060   0.073   0.081   0.083   0.098   0.102   0.107
  0.115   0.120   0.124   0.132   0.136   0.143   0.144   0.151
  0.152   0.164   0.173   0.175   0.177   0.183   0.191   0.196
  0.206   0.217   0.220   0.231   0.236   0.244   0.254   0.256
  0.260   0.267   0.274   0.276   0.286   0.287   0.295   0.302
  0.308   0.309   0.328   0.333   0.337   0.340   0.346   0.353
  0.357   0.359   0.365   0.370   0.372   0.379   0.385   0.387
  0.391   0.395   0.399   0.400   0.406   0.409   0.412   0.423
  0.423   0.431   0.437   0.441   0.450   0.453   0.461   0.466
  0.472   0.479   0.482   0.486   0.493   0.496   0.500   0.508
  0.509   0.514   0.519   0.528   0.530   0.537   0.541   0.551
  0.553   0.560   0.566   0.571   0.574   0.586   0.594   0.602
  0.614   0.620   0.624   0.635   0.636   0.640   0.644   0.649
  0.661   0.666   0.668   0.672   0.684   0.690   0.692   0.707
  0.713   0.720   0.731   0.735   0.740   0.746   0.753   0.765
  0.768   0.772   0.785   0.788   0.794   0.803   0.807   0.821
  0.823   0.827   0.835   0.836   0.838   0.847   0.856   0.862
  0.871   0.876   0.879   0.892   0.903   0.906   0.911   0.913
  0.934   0.940   0.948   0.951   0.958   0.963   0.971   0.989
  0.993   1.000   1.018   1.025   1.038   1.047   1.052   1.064
  1.103   1.110   1.117   1.129   1.136   1.144   1.152   1.156
  1.174   1.185   1.193   1.223   1.226   1.246   1.254   1.273
  1.276   1.295   1.312   1.314   1.333   1.334   1.356   1.369
  1.380   1.387   1.396   1.409   1.421   1.457   1.465   1.470
  1.486   1.512   1.518   1.531   1.561   1.570   1.588   1.597
  1.617   1.643   1.652   1.707   1.782   1.790   1.815   1.848
  1.868   1.888   1.895   1.906   1.914   1.919   1.938   1.952
  1.961   1.966   1.987   2.000   2.009   2.015   2.025   2.040
  2.041   2.047   2.058   2.078   2.085   2.099   2.103   2.115
  2.149   2.175   2.177   2.198   2.214   2.230   2.237   2.254
  2.274   2.295   2.302   2.320   2.348   2.361   2.377   2.384
  2.394   2.418   2.432   2.458   2.471   2.484   2.495   2.509
  2.535   2.550   2.560   2.594   2.602   2.618   2.634   2.645
  2.653   2.665   2.681   2.706   2.727   2.775   2.781   2.810
  2.838   2.848   2.854   2.860   2.894   2.903   2.920   2.940
  2.954   2.973   2.999   3.011   3.031   3.071   3.097   3.102
  3.129   3.151   3.172   3.188   3.210   3.232   3.254   3.267
  3.277   3.283   3.292   3.315   3.338   3.363   3.373   3.380
  3.401   3.406   3.433   3.439   3.453   3.463   3.467   3.481
  3.493   3.503   3.547   3.564   3.574   3.586   3.591   3.603
  3.615   3.638   3.649   3.666   3.669   3.697   3.712   3.725
  3.740   3.758   3.764   3.774   3.783   3.797   3.828   3.849
  3.863   3.885   3.890   3.936   3.974   4.029   4.052   4.077
  4.087   4.116   4.144   4.152   4.165   4.202   4.260   4.279
  4.345   4.361   4.494   4.586   4.622   4.637   4.650   4.725
  4.742   4.768   4.803   4.835   4.851   4.879   4.990   5.048
  5.106   5.161   5.246   5.288   5.320   5.323   5.345   5.350
  5.356   5.359   5.374   5.376   5.389   5.409   5.443   5.500
  5.514   5.555   5.575   5.611   5.624   5.657   5.673   5.712
  5.718   5.724   5.776   5.803   5.882   5.985   6.012   6.056
  6.081   6.259   6.296   6.309   6.321   6.329   6.372   6.411
  6.554   6.595   6.617   6.632   6.671   6.685   6.696   6.716
  6.740   6.755   6.767   6.788   6.820   6.833   6.913   6.932
  6.955   6.972   7.011   7.049   7.069   7.091   7.153   7.166
  7.231   7.279   7.304   7.343   7.354   7.371   7.381   7.415
  7.511   7.849  22.656  22.847  22.926  23.473  23.702  44.123
 44.347  44.404  44.411  44.492  44.592
 --------------------------------------------------------------
 
          Ground-State Mulliken Net Atomic Charges

     Atom                 Charge (a.u.)
  ----------------------------------------
      1 C                    -0.951844
      2 H                     0.219104
      3 H                     0.254421
      4 H                     0.226753
      5 C                     1.010873
      6 C                    -0.284533
      7 H                     0.228162
      8 H                     0.121904
      9 C                     0.107058
     10 H                     0.150115
     11 H                     0.034718
     12 C                     0.209750
     13 O                    -0.702775
     14 O                    -0.695950
     15 O                    -0.555968
     16 O                    -0.305058
     17 O                    -0.770332
     18 O                    -0.565862
     19 H                     0.269462
  ----------------------------------------
  Sum of atomic charges =    -2.000000

 -----------------------------------------------------------------
                    Cartesian Multipole Moments
 -----------------------------------------------------------------
    Charge (ESU x 10^10)
                -9.6064
    Dipole Moment (Debye)
         X     -14.5948      Y      -2.7264      Z       0.9933
       Tot      14.8804
    Quadrupole Moments (Debye-Ang)
        XX    -155.9847     XY      24.5418     YY     -95.6866
        XZ       9.7224     YZ      -6.3617     ZZ     -82.5851
    Octopole Moments (Debye-Ang^2)
       XXX    -434.0946    XXY      25.9218    XYY     -29.0837
       YYY     -37.9743    XXZ      41.9542    XYZ     -21.3826
       YYZ      18.1879    XZZ     -36.6322    YZZ       0.4756
       ZZZ     -12.9771
    Hexadecapole Moments (Debye-Ang^3)
      XXXX   -3738.3016   XXXY     497.0355   XXYY    -706.9063
      XYYY     389.7112   YYYY    -752.0696   XXXZ     418.3171
      XXYZ    -123.1346   XYYZ     124.2455   YYYZ     -78.3647
      XXZZ    -526.5091   XYZZ     114.1028   YYZZ    -185.2350
      XZZZ     297.6862   YZZZ     -97.2463   ZZZZ    -472.8102
 -----------------------------------------------------------------
 Calculating analytic gradient of the SCF energy
 Gradient of SCF Energy
            1           2           3           4           5           6
    1  -0.0472765  -0.0001076   0.0155235   0.0395592   0.0687036   0.0630381
    2  -0.0273192   0.0245325   0.0469357  -0.0533648   0.0027693  -0.0428547
    3  -0.0306238   0.0673432  -0.0504885   0.0033456   0.0892521   0.0976902
            7           8           9          10          11          12
    1  -0.0079840  -0.0183648  -0.0733075   0.0187276   0.0254944   0.0511404
    2   0.0475251  -0.0245227   0.1035013   0.0213634  -0.0751449  -0.0364735
    3  -0.0095957  -0.0742517  -0.1113194   0.0492129   0.0120323   0.0674775
           13          14          15          16          17          18
    1  -0.0353375  -0.0324781   0.0005122   0.0006334   0.0338193  -0.0502574
    2   0.0484539  -0.0345918  -0.0233395   0.0058408   0.0479421  -0.0077713
    3   0.0130611  -0.0350216  -0.0083975  -0.0153852   0.0305941  -0.0663983
           19
    1  -0.0520384
    2  -0.0234815
    3  -0.0285272
 Max gradient component =       1.113E-01
 RMS gradient           =       4.694E-02
 Computing fast CPCM-ISWIG gradient
 Updating gradient with PCM contributions...
 -- total gradient after adding PCM contribution --
---------------------------------------------------
  Atom         X              Y              Z     
---------------------------------------------------
   1       0.000000      -0.000018       0.000001
   2       0.000004      -0.000026       0.000005
   3       0.000007      -0.000015       0.000006
   4      -0.000006      -0.000023      -0.000005
   5      -0.000004      -0.000007      -0.000002
   6       0.000008       0.000007       0.000004
   7       0.000017       0.000008       0.000014
   8       0.000005       0.000014       0.000003
   9       0.000003       0.000006       0.000002
  10       0.000006      -0.000001       0.000005
  11      -0.000006       0.000004      -0.000005
  12       0.000005       0.000022       0.000001
  13       0.000013       0.000022       0.000011
  14      -0.000004       0.000032      -0.000003
  15       0.000007       0.000001       0.000007
  16      -0.000008      -0.000015      -0.000001
  17      -0.000021      -0.000011      -0.000019
  18      -0.000004       0.000003      -0.000006
  19      -0.000022      -0.000002      -0.000021
---------------------------------------------------
 Number of fixed atoms: 0
 Gradient time:  CPU 963.27 s  wall 249.93 s
 ######################################################
 ######################################################
 # Starting finite difference calculation for IDERIV  #
 Finite diff step size:  1.88973e-03 a.u.
 ----------------------------------------------------------------
             Standard Nuclear Orientation (Angstroms)
    I     Atom           X                Y                Z
 ----------------------------------------------------------------
    1      C      -2.9052713724    -0.1413477240     0.6956409486
    2      H      -3.0172034175    -0.6093334809    -0.2819661595
    3      H      -3.1721575917    -0.8418659819     1.4884337809
    4      H      -3.5743085996     0.7234703862     0.7465166107
    5      C      -1.5031934610     0.3583661864     0.8924557369
    6      C       0.8683262461    -0.9637227256    -0.1334523967
    7      H       1.1098377634    -2.0377969854    -0.0784354603
    8      H       1.0447098280    -0.5445928775     0.8708673008
    9      C       1.8025475092    -0.2902618495    -1.1438062946
   10      H       1.6365879239    -0.7354080991    -2.1300355601
   11      H       1.5647022626     0.7758973508    -1.1870523265
   12      C       3.2641740987    -0.4836708858    -0.7239056998
   13      O       3.8477437658    -1.5272905474    -1.1237860714
   14      O       3.7725072350     0.3934673397     0.0252217401
   15      O      -0.4836272940    -0.8630601744    -0.4735785896
   16      O      -0.9203190396     0.8915524406    -0.2450403848
   17      O      -1.5784598401     2.6000872490     0.1627508275
   18      O      -0.9450926956     0.4097011024     1.9671859601
   19      H      -0.8105033212     2.8858092764     0.6719860381
 ----------------------------------------------------------------
 Nuclear Repulsion Energy =   630.4234804260 hartrees
 There are       44 alpha and       44 beta electrons
 Discretize the solute cavity surface with Lebedev spheres
	Using 110 Lebedev grid points for each H atom
	Using 110 Lebedev grid points for other atoms
	Atomic van der Waals radii will be scaled by 1.20
 Remove points where switching function is < 1.0e-08
 Keep 1149 surface tesserae and discard 941 interior tesserae
 Molecular Surface Area = 207.408 Angst**2
 Requested basis set is def2-TZVPD
 There are 189 shells and 497 basis functions
 A cutoff of  1.0D-14 yielded  15929 shell pairs
 There are    110031 function pairs (    140000 Cartesian)
 Smallest overlap matrix eigenvalue = 5.21E-06
 Guess MOs from SCF MO coefficient file
 Reading MOs from coefficient file
 Reading MOs from coefficient file
 Long-range K will be added via erf
 Coulomb attenuation parameter = 0.3 bohr**(-1)
 A restricted hybrid HF-DFT SCF calculation will be
 performed using Pulay DIIS extrapolation
 Polarizable Continuum solvation model will be applied
 Exchange:     0.1670 Hartree-Fock + 1.0000 wB97X-V + LR-HF
 Correlation:  1.0000 wB97X-V
 Using SG-2 standard quadrature grid
 Nonlocal Correlation:  VV10 with C = 0.0100 and b = 6.00
 Grid used for NLC:  SG-1 standard quadrature
 SCF converges when DIIS error is below 1.0E-08
Using Q-Chem read-in guess as SCF_GUESS READ specified.

 using 4 threads for integral computing
 -------------------------------------------------------
 OpenMP Integral computing Module                
 Release: version 1.0, May 2013, Q-Chem Inc. Pittsburgh 
 -------------------------------------------------------
 using 4 threads for integral computing
 -------------------------------------------------------
 OpenMP Integral computing Module                
 Release: version 1.0, May 2013, Q-Chem Inc. Pittsburgh 
 -------------------------------------------------------
 -------------------------------------------------------
 OpenMP BLAS3 based DFT computing Module                
 Release: version 1.0, May 2013, Q-Chem Inc. Pittsburgh 
 -------------------------------------------------------
 -------------------------------------------------------
 OpenMP BLAS3 based DFT computing Module                
 Release: version 1.0, May 2013, Q-Chem Inc. Pittsburgh 
 -------------------------------------------------------
 -------------------------------------------------------
 OpenMP BLAS3 based DFT computing Module                
 Release: version 1.0, May 2013, Q-Chem Inc. Pittsburgh 
 -------------------------------------------------------
 ---------------------------------------
  Cycle       Energy         DIIS Error
 ---------------------------------------
    1    -646.5938406843      2.98E-04
    2    -646.8874627149      3.14E-04
    3    -646.8918027084      1.48E-04
    4    -646.8925022838      1.10E-04
    5    -646.8928875666      8.76E-05
    6    -646.8931405433      7.03E-05
    7    -646.8933194871      5.52E-05
    8    -646.8934724032      3.78E-05
    9    -646.8935610690      2.22E-05
   10    -646.8936007938      8.46E-06
   11    -646.8936069198      2.56E-06
   12    -646.8936075109      4.44E-07
   13    -646.8936075281      1.02E-07
   14    -646.8936075290      1.47E-08
   15    -646.8936075290      1.29E-08
   16    -646.8936075290      4.71E-09 Convergence criterion met
 ---------------------------------------

************** Final PCM Free Energy Summary **************
 G_electrostatic  =      -0.29931045 hartree =    -187.82014075 kcal/mol
 G_cavitation     =       0.00000000 hartree =       0.00000000 kcal/mol
 G_dispersion     =       0.00000000 hartree =       0.00000000 kcal/mol
 G_repulsion      =       0.00000000 hartree =       0.00000000 kcal/mol
 --------------------------------------------------
 Non-electrostatic Free Energy =       0.00000000 hartree =       0.00000000 kcal/mol
 Total                         =      -0.29931045 hartree =    -187.82014075 kcal/mol
 --------------------------------------------------
 SCF Energy (H0 + V/2)                       =    -646.89360753 
 Solute Internal Energy (H0)                 =    -646.59429708 
 Total Free Energy (H0 + V/2 + non-elec)     =    -646.89360753 hartree
                                             = -405931.86545380 kcal/mol
***********************************************************

 SCF time:  CPU 4633.65 s  wall 1201.10 s
 SCF   energy in the final basis set = -646.89360753
 Total energy in the final basis set = -646.89360753
 
 --------------------------------------------------------------
 
                    Orbital Energies (a.u.)
 --------------------------------------------------------------
 
 Alpha MOs
 -- Occupied --
-19.266 -19.187 -19.185 -19.155 -19.139 -19.139 -10.395 -10.340
-10.289 -10.256 -10.240  -1.205  -1.142  -1.125  -1.069  -1.047
 -1.009  -0.861  -0.855  -0.715  -0.654  -0.610  -0.598  -0.576
 -0.569  -0.551  -0.535  -0.525  -0.512  -0.505  -0.494  -0.486
 -0.471  -0.464  -0.440  -0.426  -0.399  -0.374  -0.357  -0.351
 -0.346  -0.329  -0.327  -0.301
 -- Virtual --
  0.019   0.060   0.073   0.081   0.083   0.098   0.102   0.107
  0.115   0.120   0.124   0.132   0.136   0.143   0.144   0.151
  0.152   0.164   0.173   0.175   0.177   0.183   0.191   0.196
  0.206   0.217   0.220   0.231   0.236   0.244   0.254   0.256
  0.260   0.267   0.274   0.276   0.286   0.287   0.295   0.302
  0.308   0.309   0.328   0.333   0.337   0.340   0.346   0.353
  0.357   0.358   0.365   0.370   0.372   0.379   0.385   0.387
  0.391   0.395   0.399   0.400   0.406   0.409   0.412   0.423
  0.423   0.431   0.437   0.441   0.450   0.453   0.461   0.466
  0.472   0.479   0.482   0.486   0.493   0.496   0.500   0.508
  0.509   0.514   0.519   0.528   0.530   0.537   0.541   0.551
  0.553   0.560   0.566   0.571   0.574   0.586   0.594   0.602
  0.614   0.620   0.624   0.635   0.636   0.640   0.644   0.649
  0.661   0.666   0.668   0.673   0.684   0.690   0.692   0.707
  0.713   0.720   0.731   0.735   0.740   0.746   0.753   0.765
  0.768   0.772   0.785   0.788   0.795   0.803   0.807   0.821
  0.824   0.827   0.835   0.836   0.838   0.847   0.856   0.862
  0.871   0.876   0.879   0.892   0.903   0.906   0.911   0.913
  0.934   0.940   0.948   0.951   0.958   0.963   0.971   0.989
  0.993   1.000   1.018   1.025   1.038   1.047   1.052   1.064
  1.103   1.110   1.117   1.129   1.136   1.144   1.152   1.156
  1.174   1.185   1.193   1.223   1.226   1.246   1.254   1.273
  1.276   1.296   1.312   1.314   1.333   1.334   1.356   1.369
  1.380   1.387   1.396   1.409   1.421   1.457   1.465   1.471
  1.486   1.512   1.518   1.531   1.561   1.570   1.588   1.597
  1.617   1.643   1.652   1.707   1.782   1.790   1.815   1.848
  1.868   1.888   1.895   1.906   1.914   1.919   1.938   1.952
  1.961   1.966   1.987   2.000   2.009   2.015   2.025   2.040
  2.041   2.047   2.058   2.078   2.085   2.099   2.103   2.115
  2.149   2.175   2.177   2.198   2.214   2.230   2.237   2.254
  2.274   2.295   2.302   2.320   2.348   2.360   2.377   2.384
  2.394   2.418   2.432   2.458   2.471   2.484   2.495   2.510
  2.535   2.550   2.560   2.594   2.602   2.618   2.634   2.645
  2.653   2.666   2.681   2.706   2.727   2.775   2.781   2.810
  2.838   2.848   2.854   2.860   2.894   2.903   2.920   2.940
  2.955   2.973   2.999   3.011   3.031   3.071   3.097   3.102
  3.129   3.151   3.172   3.188   3.210   3.232   3.254   3.267
  3.277   3.283   3.292   3.315   3.338   3.363   3.373   3.380
  3.401   3.406   3.433   3.439   3.453   3.463   3.467   3.481
  3.493   3.503   3.547   3.564   3.574   3.586   3.591   3.603
  3.615   3.638   3.650   3.666   3.669   3.697   3.712   3.725
  3.740   3.758   3.764   3.774   3.783   3.797   3.828   3.849
  3.863   3.885   3.890   3.937   3.974   4.029   4.052   4.077
  4.087   4.116   4.145   4.153   4.165   4.203   4.260   4.279
  4.345   4.361   4.494   4.586   4.622   4.637   4.650   4.724
  4.742   4.768   4.803   4.835   4.851   4.879   4.990   5.048
  5.106   5.161   5.246   5.288   5.320   5.323   5.345   5.350
  5.356   5.359   5.374   5.376   5.389   5.409   5.443   5.500
  5.514   5.555   5.575   5.611   5.624   5.658   5.673   5.712
  5.718   5.724   5.776   5.803   5.883   5.985   6.012   6.056
  6.081   6.259   6.296   6.310   6.321   6.329   6.372   6.411
  6.554   6.595   6.617   6.632   6.671   6.685   6.696   6.716
  6.740   6.755   6.767   6.788   6.821   6.834   6.913   6.932
  6.955   6.972   7.011   7.049   7.069   7.091   7.153   7.166
  7.231   7.279   7.304   7.343   7.354   7.371   7.381   7.415
  7.511   7.849  22.656  22.847  22.926  23.473  23.702  44.123
 44.347  44.404  44.411  44.492  44.592
 --------------------------------------------------------------
 
          Ground-State Mulliken Net Atomic Charges

     Atom                 Charge (a.u.)
  ----------------------------------------
      1 C                    -0.952566
      2 H                     0.219161
      3 H                     0.254491
      4 H                     0.226628
      5 C                     1.011657
      6 C                    -0.284581
      7 H                     0.228161
      8 H                     0.121917
      9 C                     0.107050
     10 H                     0.150131
     11 H                     0.034713
     12 C                     0.209756
     13 O                    -0.702775
     14 O                    -0.695950
     15 O                    -0.555914
     16 O                    -0.305034
     17 O                    -0.770346
     18 O                    -0.565955
     19 H                     0.269455
  ----------------------------------------
  Sum of atomic charges =    -2.000000

 -----------------------------------------------------------------
                    Cartesian Multipole Moments
 -----------------------------------------------------------------
    Charge (ESU x 10^10)
                -9.6064
    Dipole Moment (Debye)
         X     -14.5967      Y      -2.7270      Z       0.9930
       Tot      14.8824
    Quadrupole Moments (Debye-Ang)
        XX    -155.9753     XY      24.5437     YY     -95.6885
        XZ       9.7221     YZ      -6.3620     ZZ     -82.5868
    Octopole Moments (Debye-Ang^2)
       XXX    -434.1552    XXY      25.9141    XYY     -29.0861
       YYY     -37.9776    XXZ      41.9579    XYZ     -21.3822
       YYZ      18.1866    XZZ     -36.6359    YZZ       0.4750
       ZZZ     -12.9812
    Hexadecapole Moments (Debye-Ang^3)
      XXXX   -3737.9382   XXXY     497.0720   XXYY    -706.8824
      XYYY     389.7213   YYYY    -752.0847   XXXZ     418.2880
      XXYZ    -123.1375   XYYZ     124.2447   YYYZ     -78.3657
      XXZZ    -526.4795   XYZZ     114.1053   YYZZ    -185.2388
      XZZZ     297.6820   YZZZ     -97.2475   ZZZZ    -472.8231
 -----------------------------------------------------------------
 Calculating analytic gradient of the SCF energy
 Gradient of SCF Energy
            1           2           3           4           5           6
    1  -0.0465267  -0.0000941   0.0154578   0.0393220   0.0682497   0.0630366
    2  -0.0273623   0.0245272   0.0468408  -0.0530723   0.0026320  -0.0428408
    3  -0.0306940   0.0672996  -0.0503788   0.0033627   0.0892685   0.0976813
            7           8           9          10          11          12
    1  -0.0079870  -0.0183613  -0.0733132   0.0187305   0.0254970   0.0511409
    2   0.0475215  -0.0245232   0.1035006   0.0213629  -0.0751448  -0.0364739
    3  -0.0095932  -0.0742527  -0.1113145   0.0492102   0.0120350   0.0674787
           13          14          15          16          17          18
    1  -0.0353385  -0.0324791   0.0005211   0.0006364   0.0338222  -0.0502723
    2   0.0484546  -0.0345920  -0.0233372   0.0058321   0.0479401  -0.0077827
    3   0.0130609  -0.0350221  -0.0084033  -0.0153802   0.0305980  -0.0664273
           19
    1  -0.0520420
    2  -0.0234826
    3  -0.0285288
 Max gradient component =       1.113E-01
 RMS gradient           =       4.691E-02
 Computing fast CPCM-ISWIG gradient
 Updating gradient with PCM contributions...
 -- total gradient after adding PCM contribution --
---------------------------------------------------
  Atom         X              Y              Z     
---------------------------------------------------
   1       0.000933      -0.000017      -0.000015
   2      -0.000084      -0.000057      -0.000043
   3      -0.000110      -0.000102       0.000098
   4      -0.000287       0.000224       0.000010
   5      -0.000376      -0.000091      -0.000026
   6       0.000010       0.000006       0.000007
   7       0.000016       0.000008       0.000014
   8       0.000005       0.000014       0.000003
   9       0.000002       0.000006       0.000002
  10       0.000006      -0.000001       0.000005
  11      -0.000006       0.000004      -0.000005
  12       0.000006       0.000021       0.000001
  13       0.000012       0.000022       0.000011
  14      -0.000005       0.000032      -0.000003
  15      -0.000007       0.000001       0.000010
  16      -0.000034      -0.000033       0.000010
  17      -0.000023      -0.000014      -0.000020
  18      -0.000036      -0.000021      -0.000039
  19      -0.000022      -0.000002      -0.000020
---------------------------------------------------
 Number of fixed atoms: 0
 Gradient time:  CPU 956.24 s  wall 248.35 s
 ----------------------------------------------------------------
             Standard Nuclear Orientation (Angstroms)
    I     Atom           X                Y                Z
 ----------------------------------------------------------------
    1      C      -2.9072713724    -0.1413477240     0.6956409486
    2      H      -3.0172034175    -0.6093334809    -0.2819661595
    3      H      -3.1721575917    -0.8418659819     1.4884337809
    4      H      -3.5743085996     0.7234703862     0.7465166107
    5      C      -1.5031934610     0.3583661864     0.8924557369
    6      C       0.8683262461    -0.9637227256    -0.1334523967
    7      H       1.1098377634    -2.0377969854    -0.0784354603
    8      H       1.0447098280    -0.5445928775     0.8708673008
    9      C       1.8025475092    -0.2902618495    -1.1438062946
   10      H       1.6365879239    -0.7354080991    -2.1300355601
   11      H       1.5647022626     0.7758973508    -1.1870523265
   12      C       3.2641740987    -0.4836708858    -0.7239056998
   13      O       3.8477437658    -1.5272905474    -1.1237860714
   14      O       3.7725072350     0.3934673397     0.0252217401
   15      O      -0.4836272940    -0.8630601744    -0.4735785896
   16      O      -0.9203190396     0.8915524406    -0.2450403848
   17      O      -1.5784598401     2.6000872490     0.1627508275
   18      O      -0.9450926956     0.4097011024     1.9671859601
   19      H      -0.8105033212     2.8858092764     0.6719860381
 ----------------------------------------------------------------
 Nuclear Repulsion Energy =   630.3825181061 hartrees
 There are       44 alpha and       44 beta electrons
 Discretize the solute cavity surface with Lebedev spheres
	Using 110 Lebedev grid points for each H atom
	Using 110 Lebedev grid points for other atoms
	Atomic van der Waals radii will be scaled by 1.20
 Remove points where switching function is < 1.0e-08
 Keep 1148 surface tesserae and discard 942 interior tesserae
 Molecular Surface Area = 207.429 Angst**2
 Requested basis set is def2-TZVPD
 There are 189 shells and 497 basis functions
 A cutoff of  1.0D-14 yielded  15929 shell pairs
 There are    110031 function pairs (    140000 Cartesian)
 Smallest overlap matrix eigenvalue = 5.21E-06
 Guess MOs from SCF MO coefficient file
 Reading MOs from coefficient file
 Reading MOs from coefficient file
 Long-range K will be added via erf
 Coulomb attenuation parameter = 0.3 bohr**(-1)
 A restricted hybrid HF-DFT SCF calculation will be
 performed using Pulay DIIS extrapolation
 Polarizable Continuum solvation model will be applied
 Exchange:     0.1670 Hartree-Fock + 1.0000 wB97X-V + LR-HF
 Correlation:  1.0000 wB97X-V
 Using SG-2 standard quadrature grid
 Nonlocal Correlation:  VV10 with C = 0.0100 and b = 6.00
 Grid used for NLC:  SG-1 standard quadrature
 SCF converges when DIIS error is below 1.0E-08
Using Q-Chem read-in guess as SCF_GUESS READ specified.

 using 4 threads for integral computing
 -------------------------------------------------------
 OpenMP Integral computing Module                
 Release: version 1.0, May 2013, Q-Chem Inc. Pittsburgh 
 -------------------------------------------------------
 using 4 threads for integral computing
 -------------------------------------------------------
 OpenMP Integral computing Module                
 Release: version 1.0, May 2013, Q-Chem Inc. Pittsburgh 
 -------------------------------------------------------
 -------------------------------------------------------
 OpenMP BLAS3 based DFT computing Module                
 Release: version 1.0, May 2013, Q-Chem Inc. Pittsburgh 
 -------------------------------------------------------
 -------------------------------------------------------
 OpenMP BLAS3 based DFT computing Module                
 Release: version 1.0, May 2013, Q-Chem Inc. Pittsburgh 
 -------------------------------------------------------
 -------------------------------------------------------
 OpenMP BLAS3 based DFT computing Module                
 Release: version 1.0, May 2013, Q-Chem Inc. Pittsburgh 
 -------------------------------------------------------
 ---------------------------------------
  Cycle       Energy         DIIS Error
 ---------------------------------------
    1    -646.5952373955      2.98E-04
    2    -646.8874790478      3.14E-04
    3    -646.8918079639      1.48E-04
    4    -646.8925071026      1.10E-04
    5    -646.8928957335      8.71E-05
    6    -646.8931687805      6.81E-05
    7    -646.8933903759      4.79E-05
    8    -646.8935500796      2.46E-05
    9    -646.8935986672      9.68E-06
   10    -646.8936070953      2.16E-06
   11    -646.8936075100      5.15E-07
   12    -646.8936075313      8.07E-08
   13    -646.8936075318      4.15E-08
   14    -646.8936075319      1.56E-08
   15    -646.8936075319      6.16E-09 Convergence criterion met
 ---------------------------------------

************** Final PCM Free Energy Summary **************
 G_electrostatic  =      -0.29928703 hartree =    -187.80544419 kcal/mol
 G_cavitation     =       0.00000000 hartree =       0.00000000 kcal/mol
 G_dispersion     =       0.00000000 hartree =       0.00000000 kcal/mol
 G_repulsion      =       0.00000000 hartree =       0.00000000 kcal/mol
 --------------------------------------------------
 Non-electrostatic Free Energy =       0.00000000 hartree =       0.00000000 kcal/mol
 Total                         =      -0.29928703 hartree =    -187.80544419 kcal/mol
 --------------------------------------------------
 SCF Energy (H0 + V/2)                       =    -646.89360753 
 Solute Internal Energy (H0)                 =    -646.59432050 
 Total Free Energy (H0 + V/2 + non-elec)     =    -646.89360753 hartree
                                             = -405931.86545561 kcal/mol
***********************************************************

 SCF time:  CPU 4349.38 s  wall 1126.31 s
 SCF   energy in the final basis set = -646.89360753
 Total energy in the final basis set = -646.89360753
 
 --------------------------------------------------------------
 
                    Orbital Energies (a.u.)
 --------------------------------------------------------------
 
 Alpha MOs
 -- Occupied --
-19.266 -19.187 -19.185 -19.155 -19.139 -19.139 -10.395 -10.340
-10.290 -10.256 -10.240  -1.205  -1.142  -1.125  -1.069  -1.047
 -1.009  -0.861  -0.855  -0.715  -0.654  -0.610  -0.598  -0.576
 -0.569  -0.551  -0.535  -0.525  -0.512  -0.505  -0.494  -0.486
 -0.471  -0.464  -0.440  -0.426  -0.399  -0.374  -0.357  -0.351
 -0.346  -0.329  -0.327  -0.301
 -- Virtual --
  0.019   0.060   0.073   0.081   0.083   0.098   0.102   0.107
  0.115   0.120   0.124   0.132   0.136   0.143   0.144   0.151
  0.152   0.164   0.173   0.175   0.177   0.183   0.191   0.196
  0.206   0.217   0.220   0.231   0.236   0.244   0.254   0.256
  0.260   0.267   0.274   0.276   0.286   0.287   0.295   0.302
  0.308   0.309   0.328   0.333   0.337   0.340   0.345   0.353
  0.357   0.359   0.365   0.370   0.372   0.379   0.385   0.387
  0.391   0.395   0.399   0.400   0.406   0.409   0.412   0.423
  0.423   0.431   0.437   0.441   0.450   0.453   0.461   0.466
  0.472   0.479   0.482   0.486   0.493   0.496   0.500   0.508
  0.509   0.514   0.519   0.528   0.530   0.537   0.541   0.551
  0.553   0.560   0.566   0.571   0.574   0.586   0.594   0.602
  0.614   0.620   0.624   0.635   0.636   0.640   0.644   0.649
  0.661   0.666   0.668   0.672   0.684   0.690   0.692   0.707
  0.713   0.720   0.731   0.735   0.740   0.746   0.752   0.765
  0.768   0.772   0.785   0.788   0.794   0.803   0.807   0.821
  0.823   0.827   0.835   0.836   0.838   0.847   0.856   0.862
  0.871   0.876   0.879   0.892   0.903   0.906   0.911   0.913
  0.934   0.940   0.948   0.951   0.958   0.963   0.971   0.988
  0.993   1.000   1.018   1.025   1.038   1.047   1.052   1.064
  1.103   1.110   1.117   1.129   1.136   1.144   1.152   1.156
  1.174   1.185   1.193   1.223   1.226   1.246   1.254   1.273
  1.276   1.295   1.312   1.314   1.333   1.334   1.356   1.369
  1.380   1.387   1.396   1.409   1.421   1.457   1.465   1.470
  1.486   1.512   1.518   1.531   1.561   1.570   1.588   1.597
  1.617   1.643   1.652   1.707   1.782   1.790   1.815   1.848
  1.868   1.888   1.895   1.906   1.914   1.918   1.937   1.952
  1.961   1.966   1.987   2.000   2.009   2.015   2.025   2.040
  2.041   2.047   2.058   2.078   2.085   2.099   2.103   2.115
  2.149   2.175   2.177   2.198   2.214   2.230   2.237   2.254
  2.274   2.295   2.302   2.320   2.348   2.361   2.377   2.384
  2.394   2.418   2.431   2.458   2.471   2.484   2.495   2.509
  2.535   2.550   2.560   2.594   2.602   2.617   2.634   2.644
  2.653   2.665   2.681   2.706   2.727   2.775   2.781   2.810
  2.838   2.848   2.854   2.860   2.895   2.903   2.920   2.940
  2.954   2.973   2.999   3.011   3.031   3.071   3.097   3.102
  3.129   3.151   3.173   3.188   3.210   3.232   3.254   3.267
  3.277   3.283   3.292   3.316   3.338   3.363   3.373   3.380
  3.401   3.406   3.433   3.439   3.453   3.463   3.467   3.481
  3.493   3.503   3.547   3.564   3.574   3.586   3.591   3.603
  3.615   3.638   3.649   3.666   3.669   3.697   3.712   3.725
  3.740   3.758   3.764   3.774   3.783   3.797   3.828   3.849
  3.863   3.884   3.890   3.936   3.974   4.028   4.052   4.077
  4.087   4.116   4.143   4.152   4.165   4.202   4.260   4.278
  4.345   4.360   4.494   4.586   4.622   4.636   4.650   4.725
  4.743   4.768   4.803   4.835   4.851   4.879   4.990   5.048
  5.106   5.161   5.246   5.288   5.320   5.323   5.345   5.350
  5.356   5.359   5.374   5.376   5.389   5.408   5.443   5.500
  5.514   5.555   5.575   5.611   5.624   5.657   5.673   5.712
  5.718   5.723   5.776   5.803   5.882   5.985   6.012   6.055
  6.081   6.259   6.296   6.309   6.321   6.329   6.372   6.411
  6.554   6.595   6.617   6.632   6.671   6.685   6.696   6.716
  6.740   6.755   6.767   6.788   6.820   6.833   6.913   6.932
  6.955   6.972   7.011   7.049   7.069   7.091   7.153   7.166
  7.231   7.279   7.304   7.343   7.354   7.371   7.381   7.415
  7.511   7.849  22.656  22.847  22.926  23.472  23.702  44.123
 44.347  44.404  44.411  44.492  44.592
 --------------------------------------------------------------
 
          Ground-State Mulliken Net Atomic Charges

     Atom                 Charge (a.u.)
  ----------------------------------------
      1 C                    -0.951122
      2 H                     0.219047
      3 H                     0.254351
      4 H                     0.226880
      5 C                     1.010083
      6 C                    -0.284486
      7 H                     0.228165
      8 H                     0.121892
      9 C                     0.107064
     10 H                     0.150099
     11 H                     0.034724
     12 C                     0.209744
     13 O                    -0.702773
     14 O                    -0.695949
     15 O                    -0.556019
     16 O                    -0.305082
     17 O                    -0.770320
     18 O                    -0.565765
     19 H                     0.269468
  ----------------------------------------
  Sum of atomic charges =    -2.000000

 -----------------------------------------------------------------
                    Cartesian Multipole Moments
 -----------------------------------------------------------------
    Charge (ESU x 10^10)
                -9.6064
    Dipole Moment (Debye)
         X     -14.5928      Y      -2.7259      Z       0.9936
       Tot      14.8785
    Quadrupole Moments (Debye-Ang)
        XX    -155.9942     XY      24.5399     YY     -95.6849
        XZ       9.7227     YZ      -6.3615     ZZ     -82.5833
    Octopole Moments (Debye-Ang^2)
       XXX    -434.0341    XXY      25.9294    XYY     -29.0810
       YYY     -37.9717    XXZ      41.9505    XYZ     -21.3829
       YYZ      18.1891    XZZ     -36.6283    YZZ       0.4762
       ZZZ     -12.9732
    Hexadecapole Moments (Debye-Ang^3)
      XXXX   -3738.6657   XXXY     496.9992   XXYY    -706.9306
      XYYY     389.7019   YYYY    -752.0567   XXXZ     418.3459
      XXYZ    -123.1315   XYYZ     124.2464   YYYZ     -78.3638
      XXZZ    -526.5386   XYZZ     114.1003   YYZZ    -185.2312
      XZZZ     297.6903   YZZZ     -97.2451   ZZZZ    -472.7970
 -----------------------------------------------------------------
 Calculating analytic gradient of the SCF energy
 Gradient of SCF Energy
            1           2           3           4           5           6
    1  -0.0480233  -0.0001214   0.0155889   0.0397966   0.0691558   0.0630394
    2  -0.0272733   0.0245378   0.0470304  -0.0536585   0.0029060  -0.0428687
    3  -0.0305529   0.0673863  -0.0505981   0.0033284   0.0892359   0.0976991
            7           8           9          10          11          12
    1  -0.0079809  -0.0183682  -0.0733018   0.0187247   0.0254919   0.0511400
    2   0.0475288  -0.0245223   0.1035022   0.0213639  -0.0751454  -0.0364730
    3  -0.0095983  -0.0742508  -0.1113245   0.0492159   0.0120295   0.0674766
           13          14          15          16          17          18
    1  -0.0353367  -0.0324771   0.0005035   0.0006303   0.0338162  -0.0502432
    2   0.0484530  -0.0345916  -0.0233420   0.0058498   0.0479442  -0.0077607
    3   0.0130611  -0.0350213  -0.0083915  -0.0153903   0.0305903  -0.0663699
           19
    1  -0.0520348
    2  -0.0234806
    3  -0.0285256
 Max gradient component =       1.113E-01
 RMS gradient           =       4.698E-02
 Computing fast CPCM-ISWIG gradient
 Updating gradient with PCM contributions...
 -- total gradient after adding PCM contribution --
---------------------------------------------------
  Atom         X              Y              Z     
---------------------------------------------------
   1      -0.000930      -0.000017       0.000017
   2       0.000093       0.000005       0.000053
   3       0.000123       0.000073      -0.000086
   4       0.000275      -0.000272      -0.000020
   5       0.000367       0.000077       0.000023
   6       0.000007       0.000007       0.000001
   7       0.000017       0.000008       0.000014
   8       0.000005       0.000015       0.000004
   9       0.000004       0.000006       0.000002
  10       0.000006      -0.000001       0.000005
  11      -0.000006       0.000004      -0.000005
  12       0.000005       0.000022       0.000000
  13       0.000013       0.000022       0.000012
  14      -0.000004       0.000032      -0.000003
  15       0.000021      -0.000000       0.000004
  16       0.000018       0.000004      -0.000011
  17      -0.000019      -0.000008      -0.000017
  18       0.000028       0.000026       0.000028
  19      -0.000022      -0.000001      -0.000022
---------------------------------------------------
 Number of fixed atoms: 0
 Gradient time:  CPU 957.15 s  wall 247.80 s
 ----------------------------------------------------------------
             Standard Nuclear Orientation (Angstroms)
    I     Atom           X                Y                Z
 ----------------------------------------------------------------
    1      C      -2.9062713724    -0.1403477240     0.6956409486
    2      H      -3.0172034175    -0.6093334809    -0.2819661595
    3      H      -3.1721575917    -0.8418659819     1.4884337809
    4      H      -3.5743085996     0.7234703862     0.7465166107
    5      C      -1.5031934610     0.3583661864     0.8924557369
    6      C       0.8683262461    -0.9637227256    -0.1334523967
    7      H       1.1098377634    -2.0377969854    -0.0784354603
    8      H       1.0447098280    -0.5445928775     0.8708673008
    9      C       1.8025475092    -0.2902618495    -1.1438062946
   10      H       1.6365879239    -0.7354080991    -2.1300355601
   11      H       1.5647022626     0.7758973508    -1.1870523265
   12      C       3.2641740987    -0.4836708858    -0.7239056998
   13      O       3.8477437658    -1.5272905474    -1.1237860714
   14      O       3.7725072350     0.3934673397     0.0252217401
   15      O      -0.4836272940    -0.8630601744    -0.4735785896
   16      O      -0.9203190396     0.8915524406    -0.2450403848
   17      O      -1.5784598401     2.6000872490     0.1627508275
   18      O      -0.9450926956     0.4097011024     1.9671859601
   19      H      -0.8105033212     2.8858092764     0.6719860381
 ----------------------------------------------------------------
 Nuclear Repulsion Energy =   630.4091477716 hartrees
 There are       44 alpha and       44 beta electrons
 Discretize the solute cavity surface with Lebedev spheres
	Using 110 Lebedev grid points for each H atom
	Using 110 Lebedev grid points for other atoms
	Atomic van der Waals radii will be scaled by 1.20
 Remove points where switching function is < 1.0e-08
 Keep 1149 surface tesserae and discard 941 interior tesserae
 Molecular Surface Area = 207.416 Angst**2
 Requested basis set is def2-TZVPD
 There are 189 shells and 497 basis functions
 A cutoff of  1.0D-14 yielded  15929 shell pairs
 There are    110031 function pairs (    140000 Cartesian)
 Smallest overlap matrix eigenvalue = 5.21E-06
 Guess MOs from SCF MO coefficient file
 Reading MOs from coefficient file
 Reading MOs from coefficient file
 Long-range K will be added via erf
 Coulomb attenuation parameter = 0.3 bohr**(-1)
 A restricted hybrid HF-DFT SCF calculation will be
 performed using Pulay DIIS extrapolation
 Polarizable Continuum solvation model will be applied
 Exchange:     0.1670 Hartree-Fock + 1.0000 wB97X-V + LR-HF
 Correlation:  1.0000 wB97X-V
 Using SG-2 standard quadrature grid
 Nonlocal Correlation:  VV10 with C = 0.0100 and b = 6.00
 Grid used for NLC:  SG-1 standard quadrature
 SCF converges when DIIS error is below 1.0E-08
Using Q-Chem read-in guess as SCF_GUESS READ specified.

 using 4 threads for integral computing
 -------------------------------------------------------
 OpenMP Integral computing Module                
 Release: version 1.0, May 2013, Q-Chem Inc. Pittsburgh 
 -------------------------------------------------------
 using 4 threads for integral computing
 -------------------------------------------------------
 OpenMP Integral computing Module                
 Release: version 1.0, May 2013, Q-Chem Inc. Pittsburgh 
 -------------------------------------------------------
 -------------------------------------------------------
 OpenMP BLAS3 based DFT computing Module                
 Release: version 1.0, May 2013, Q-Chem Inc. Pittsburgh 
 -------------------------------------------------------
 -------------------------------------------------------
 OpenMP BLAS3 based DFT computing Module                
 Release: version 1.0, May 2013, Q-Chem Inc. Pittsburgh 
 -------------------------------------------------------
 -------------------------------------------------------
 OpenMP BLAS3 based DFT computing Module                
 Release: version 1.0, May 2013, Q-Chem Inc. Pittsburgh 
 -------------------------------------------------------
 ---------------------------------------
  Cycle       Energy         DIIS Error
 ---------------------------------------
    1    -646.5936965352      2.99E-04
    2    -646.8874598470      3.14E-04
    3    -646.8918032327      1.48E-04
    4    -646.8925036381      1.10E-04
    5    -646.8928924402      8.73E-05
    6    -646.8931541653      6.92E-05
    7    -646.8933500692      5.22E-05
    8    -646.8935131036      3.16E-05
    9    -646.8935857366      1.52E-05
   10    -646.8936057102      4.30E-06
   11    -646.8936073407      1.08E-06
   12    -646.8936074440      1.64E-07
   13    -646.8936074462      4.66E-08
   14    -646.8936074463      1.81E-08
   15    -646.8936074464      8.25E-09 Convergence criterion met
 ---------------------------------------

************** Final PCM Free Energy Summary **************
 G_electrostatic  =      -0.29929929 hartree =    -187.81313872 kcal/mol
 G_cavitation     =       0.00000000 hartree =       0.00000000 kcal/mol
 G_dispersion     =       0.00000000 hartree =       0.00000000 kcal/mol
 G_repulsion      =       0.00000000 hartree =       0.00000000 kcal/mol
 --------------------------------------------------
 Non-electrostatic Free Energy =       0.00000000 hartree =       0.00000000 kcal/mol
 Total                         =      -0.29929929 hartree =    -187.81313872 kcal/mol
 --------------------------------------------------
 SCF Energy (H0 + V/2)                       =    -646.89360745 
 Solute Internal Energy (H0)                 =    -646.59430816 
 Total Free Energy (H0 + V/2 + non-elec)     =    -646.89360745 hartree
                                             = -405931.86540194 kcal/mol
***********************************************************

 SCF time:  CPU 4349.08 s  wall 1127.22 s
 SCF   energy in the final basis set = -646.89360745
 Total energy in the final basis set = -646.89360745
 
 --------------------------------------------------------------
 
                    Orbital Energies (a.u.)
 --------------------------------------------------------------
 
 Alpha MOs
 -- Occupied --
-19.266 -19.187 -19.185 -19.155 -19.139 -19.139 -10.395 -10.340
-10.290 -10.256 -10.240  -1.205  -1.142  -1.125  -1.069  -1.047
 -1.009  -0.861  -0.855  -0.715  -0.654  -0.610  -0.598  -0.576
 -0.569  -0.551  -0.535  -0.525  -0.512  -0.505  -0.494  -0.486
 -0.471  -0.464  -0.440  -0.426  -0.399  -0.374  -0.357  -0.351
 -0.346  -0.329  -0.327  -0.301
 -- Virtual --
  0.019   0.060   0.073   0.081   0.083   0.098   0.102   0.107
  0.115   0.120   0.124   0.132   0.136   0.143   0.144   0.151
  0.152   0.164   0.173   0.175   0.177   0.183   0.191   0.196
  0.206   0.217   0.220   0.231   0.236   0.244   0.254   0.256
  0.260   0.267   0.274   0.276   0.286   0.287   0.295   0.302
  0.308   0.309   0.328   0.333   0.337   0.340   0.346   0.353
  0.357   0.358   0.365   0.370   0.372   0.379   0.385   0.387
  0.391   0.395   0.399   0.400   0.406   0.409   0.412   0.423
  0.423   0.431   0.437   0.441   0.450   0.453   0.461   0.466
  0.472   0.479   0.482   0.486   0.493   0.496   0.500   0.508
  0.509   0.514   0.519   0.528   0.530   0.537   0.541   0.551
  0.553   0.560   0.566   0.571   0.574   0.586   0.594   0.602
  0.614   0.620   0.624   0.635   0.636   0.640   0.644   0.649
  0.661   0.666   0.668   0.672   0.684   0.690   0.692   0.707
  0.713   0.720   0.731   0.735   0.740   0.746   0.753   0.765
  0.768   0.772   0.785   0.788   0.794   0.803   0.807   0.821
  0.823   0.827   0.835   0.836   0.838   0.847   0.856   0.862
  0.871   0.876   0.879   0.892   0.903   0.906   0.911   0.913
  0.934   0.940   0.948   0.951   0.958   0.963   0.971   0.989
  0.993   1.000   1.018   1.025   1.038   1.047   1.052   1.064
  1.103   1.110   1.117   1.129   1.136   1.144   1.152   1.156
  1.174   1.185   1.193   1.223   1.226   1.246   1.254   1.273
  1.276   1.295   1.312   1.314   1.333   1.334   1.356   1.369
  1.380   1.387   1.396   1.409   1.421   1.457   1.465   1.470
  1.486   1.512   1.518   1.531   1.561   1.570   1.588   1.597
  1.617   1.643   1.652   1.707   1.782   1.790   1.815   1.848
  1.868   1.888   1.895   1.906   1.914   1.919   1.937   1.952
  1.961   1.966   1.987   2.000   2.009   2.015   2.025   2.040
  2.041   2.047   2.058   2.078   2.085   2.099   2.103   2.115
  2.149   2.175   2.177   2.198   2.214   2.230   2.237   2.254
  2.274   2.295   2.302   2.320   2.348   2.361   2.377   2.384
  2.394   2.418   2.431   2.458   2.471   2.484   2.495   2.509
  2.535   2.550   2.560   2.594   2.602   2.618   2.634   2.645
  2.653   2.665   2.681   2.706   2.727   2.775   2.781   2.810
  2.838   2.848   2.854   2.861   2.894   2.903   2.920   2.940
  2.955   2.973   2.999   3.011   3.031   3.071   3.097   3.102
  3.129   3.151   3.173   3.188   3.210   3.232   3.254   3.267
  3.277   3.283   3.292   3.316   3.338   3.363   3.373   3.380
  3.401   3.406   3.433   3.439   3.453   3.463   3.467   3.481
  3.493   3.503   3.547   3.564   3.574   3.586   3.591   3.603
  3.615   3.638   3.650   3.666   3.669   3.697   3.712   3.725
  3.740   3.758   3.764   3.774   3.783   3.797   3.828   3.849
  3.863   3.885   3.890   3.937   3.974   4.029   4.052   4.077
  4.087   4.116   4.144   4.152   4.165   4.202   4.260   4.279
  4.345   4.361   4.494   4.586   4.622   4.637   4.650   4.724
  4.742   4.768   4.803   4.835   4.851   4.879   4.990   5.048
  5.106   5.161   5.246   5.288   5.320   5.323   5.345   5.350
  5.356   5.359   5.374   5.376   5.389   5.409   5.443   5.500
  5.514   5.555   5.575   5.611   5.624   5.657   5.673   5.712
  5.718   5.724   5.776   5.803   5.882   5.985   6.012   6.056
  6.081   6.259   6.296   6.310   6.321   6.329   6.372   6.411
  6.554   6.595   6.617   6.632   6.671   6.685   6.696   6.716
  6.740   6.755   6.767   6.788   6.820   6.834   6.913   6.932
  6.955   6.972   7.011   7.049   7.069   7.091   7.153   7.166
  7.231   7.279   7.304   7.343   7.354   7.371   7.381   7.415
  7.511   7.849  22.656  22.847  22.926  23.473  23.702  44.123
 44.347  44.404  44.411  44.492  44.592
 --------------------------------------------------------------
 
          Ground-State Mulliken Net Atomic Charges

     Atom                 Charge (a.u.)
  ----------------------------------------
      1 C                    -0.951903
      2 H                     0.219077
      3 H                     0.254215
      4 H                     0.226888
      5 C                     1.011129
      6 C                    -0.284525
      7 H                     0.228213
      8 H                     0.121890
      9 C                     0.107040
     10 H                     0.150102
     11 H                     0.034723
     12 C                     0.209747
     13 O                    -0.702774
     14 O                    -0.695949
     15 O                    -0.556054
     16 O                    -0.305068
     17 O                    -0.770341
     18 O                    -0.565877
     19 H                     0.269465
  ----------------------------------------
  Sum of atomic charges =    -2.000000

 -----------------------------------------------------------------
                    Cartesian Multipole Moments
 -----------------------------------------------------------------
    Charge (ESU x 10^10)
                -9.6064
    Dipole Moment (Debye)
         X     -14.5949      Y      -2.7261      Z       0.9933
       Tot      14.8805
    Quadrupole Moments (Debye-Ang)
        XX    -155.9824     XY      24.5400     YY     -95.6858
        XZ       9.7227     YZ      -6.3605     ZZ     -82.5867
    Octopole Moments (Debye-Ang^2)
       XXX    -434.1086    XXY      25.9249    XYY     -29.0862
       YYY     -37.9874    XXZ      41.9531    XYZ     -21.3858
       YYZ      18.1886    XZZ     -36.6259    YZZ       0.4735
       ZZZ     -12.9806
    Hexadecapole Moments (Debye-Ang^3)
      XXXX   -3738.2111   XXXY     497.0390   XXYY    -706.8957
      XYYY     389.7476   YYYY    -752.0597   XXXZ     418.3170
      XXYZ    -123.1254   XYYZ     124.2446   YYYZ     -78.3709
      XXZZ    -526.5290   XYZZ     114.1087   YYZZ    -185.2328
      XZZZ     297.6988   YZZZ     -97.2492   ZZZZ    -472.8223
 -----------------------------------------------------------------
 Calculating analytic gradient of the SCF energy
 Gradient of SCF Energy
            1           2           3           4           5           6
    1  -0.0472971  -0.0001514   0.0154288   0.0399040   0.0685689   0.0630166
    2  -0.0263868   0.0243931   0.0466277  -0.0537635   0.0026774  -0.0428543
    3  -0.0305968   0.0670918  -0.0502051   0.0033299   0.0892069   0.0976903
            7           8           9          10          11          12
    1  -0.0079816  -0.0183611  -0.0733056   0.0187249   0.0254973   0.0511396
    2   0.0475212  -0.0245244   0.1035021   0.0213644  -0.0751438  -0.0364730
    3  -0.0095871  -0.0742557  -0.1113246   0.0492145   0.0120293   0.0674805
           13          14          15          16          17          18
    1  -0.0353374  -0.0324776   0.0005114   0.0006169   0.0338162  -0.0502745
    2   0.0484537  -0.0345918  -0.0233362   0.0058260   0.0479384  -0.0077509
    3   0.0130612  -0.0350218  -0.0083972  -0.0153823   0.0305970  -0.0664029
           19
    1  -0.0520383
    2  -0.0234792
    3  -0.0285281
 Max gradient component =       1.113E-01
 RMS gradient           =       4.692E-02
 Computing fast CPCM-ISWIG gradient
 Updating gradient with PCM contributions...
 -- total gradient after adding PCM contribution --
---------------------------------------------------
  Atom         X              Y              Z     
---------------------------------------------------
   1      -0.000001       0.001038      -0.000019
   2      -0.000023      -0.000212      -0.000200
   3      -0.000074      -0.000320       0.000253
   4       0.000247      -0.000429      -0.000023
   5      -0.000095      -0.000196      -0.000014
   6       0.000007       0.000008       0.000001
   7       0.000016       0.000008       0.000014
   8       0.000005       0.000014       0.000004
   9       0.000005       0.000006       0.000002
  10       0.000005      -0.000001       0.000005
  11      -0.000006       0.000004      -0.000005
  12       0.000005       0.000022       0.000000
  13       0.000013       0.000022       0.000012
  14      -0.000004       0.000032      -0.000003
  15       0.000023       0.000001      -0.000001
  16      -0.000054      -0.000027       0.000015
  17      -0.000024      -0.000007      -0.000016
  18      -0.000023       0.000038      -0.000005
  19      -0.000022      -0.000002      -0.000020
---------------------------------------------------
 Number of fixed atoms: 0
 Gradient time:  CPU 955.16 s  wall 247.42 s
 ----------------------------------------------------------------
             Standard Nuclear Orientation (Angstroms)
    I     Atom           X                Y                Z
 ----------------------------------------------------------------
    1      C      -2.9062713724    -0.1423477240     0.6956409486
    2      H      -3.0172034175    -0.6093334809    -0.2819661595
    3      H      -3.1721575917    -0.8418659819     1.4884337809
    4      H      -3.5743085996     0.7234703862     0.7465166107
    5      C      -1.5031934610     0.3583661864     0.8924557369
    6      C       0.8683262461    -0.9637227256    -0.1334523967
    7      H       1.1098377634    -2.0377969854    -0.0784354603
    8      H       1.0447098280    -0.5445928775     0.8708673008
    9      C       1.8025475092    -0.2902618495    -1.1438062946
   10      H       1.6365879239    -0.7354080991    -2.1300355601
   11      H       1.5647022626     0.7758973508    -1.1870523265
   12      C       3.2641740987    -0.4836708858    -0.7239056998
   13      O       3.8477437658    -1.5272905474    -1.1237860714
   14      O       3.7725072350     0.3934673397     0.0252217401
   15      O      -0.4836272940    -0.8630601744    -0.4735785896
   16      O      -0.9203190396     0.8915524406    -0.2450403848
   17      O      -1.5784598401     2.6000872490     0.1627508275
   18      O      -0.9450926956     0.4097011024     1.9671859601
   19      H      -0.8105033212     2.8858092764     0.6719860381
 ----------------------------------------------------------------
 Nuclear Repulsion Energy =   630.3968346976 hartrees
 There are       44 alpha and       44 beta electrons
 Discretize the solute cavity surface with Lebedev spheres
	Using 110 Lebedev grid points for each H atom
	Using 110 Lebedev grid points for other atoms
	Atomic van der Waals radii will be scaled by 1.20
 Remove points where switching function is < 1.0e-08
 Keep 1148 surface tesserae and discard 942 interior tesserae
 Molecular Surface Area = 207.421 Angst**2
 Requested basis set is def2-TZVPD
 There are 189 shells and 497 basis functions
 A cutoff of  1.0D-14 yielded  15929 shell pairs
 There are    110031 function pairs (    140000 Cartesian)
 Smallest overlap matrix eigenvalue = 5.21E-06
 Guess MOs from SCF MO coefficient file
 Reading MOs from coefficient file
 Reading MOs from coefficient file
 Long-range K will be added via erf
 Coulomb attenuation parameter = 0.3 bohr**(-1)
 A restricted hybrid HF-DFT SCF calculation will be
 performed using Pulay DIIS extrapolation
 Polarizable Continuum solvation model will be applied
 Exchange:     0.1670 Hartree-Fock + 1.0000 wB97X-V + LR-HF
 Correlation:  1.0000 wB97X-V
 Using SG-2 standard quadrature grid
 Nonlocal Correlation:  VV10 with C = 0.0100 and b = 6.00
 Grid used for NLC:  SG-1 standard quadrature
 SCF converges when DIIS error is below 1.0E-08
Using Q-Chem read-in guess as SCF_GUESS READ specified.

 using 4 threads for integral computing
 -------------------------------------------------------
 OpenMP Integral computing Module                
 Release: version 1.0, May 2013, Q-Chem Inc. Pittsburgh 
 -------------------------------------------------------
 using 4 threads for integral computing
 -------------------------------------------------------
 OpenMP Integral computing Module                
 Release: version 1.0, May 2013, Q-Chem Inc. Pittsburgh 
 -------------------------------------------------------
 -------------------------------------------------------
 OpenMP BLAS3 based DFT computing Module                
 Release: version 1.0, May 2013, Q-Chem Inc. Pittsburgh 
 -------------------------------------------------------
 -------------------------------------------------------
 OpenMP BLAS3 based DFT computing Module                
 Release: version 1.0, May 2013, Q-Chem Inc. Pittsburgh 
 -------------------------------------------------------
 -------------------------------------------------------
 OpenMP BLAS3 based DFT computing Module                
 Release: version 1.0, May 2013, Q-Chem Inc. Pittsburgh 
 -------------------------------------------------------
 ---------------------------------------
  Cycle       Energy         DIIS Error
 ---------------------------------------
    1    -646.5946245929      2.98E-04
    2    -646.8874783152      3.13E-04
    3    -646.8918084816      1.47E-04
    4    -646.8925078129      1.10E-04
    5    -646.8928970391      8.70E-05
    6    -646.8931663619      6.83E-05
    7    -646.8933832558      4.87E-05
    8    -646.8935453743      2.56E-05
    9    -646.8935974098      1.03E-05
   10    -646.8936068769      2.31E-06
   11    -646.8936073534      5.41E-07
   12    -646.8936073773      8.18E-08
   13    -646.8936073777      4.16E-08
   14    -646.8936073778      1.70E-08
   15    -646.8936073778      6.48E-09 Convergence criterion met
 ---------------------------------------

************** Final PCM Free Energy Summary **************
 G_electrostatic  =      -0.29929818 hartree =    -187.81244060 kcal/mol
 G_cavitation     =       0.00000000 hartree =       0.00000000 kcal/mol
 G_dispersion     =       0.00000000 hartree =       0.00000000 kcal/mol
 G_repulsion      =       0.00000000 hartree =       0.00000000 kcal/mol
 --------------------------------------------------
 Non-electrostatic Free Energy =       0.00000000 hartree =       0.00000000 kcal/mol
 Total                         =      -0.29929818 hartree =    -187.81244060 kcal/mol
 --------------------------------------------------
 SCF Energy (H0 + V/2)                       =    -646.89360738 
 Solute Internal Energy (H0)                 =    -646.59430920 
 Total Free Energy (H0 + V/2 + non-elec)     =    -646.89360738 hartree
                                             = -405931.86535895 kcal/mol
***********************************************************

 SCF time:  CPU 4348.66 s  wall 1126.17 s
 SCF   energy in the final basis set = -646.89360738
 Total energy in the final basis set = -646.89360738
 
 --------------------------------------------------------------
 
                    Orbital Energies (a.u.)
 --------------------------------------------------------------
 
 Alpha MOs
 -- Occupied --
-19.266 -19.187 -19.185 -19.155 -19.139 -19.139 -10.395 -10.340
-10.289 -10.256 -10.240  -1.205  -1.142  -1.125  -1.069  -1.047
 -1.009  -0.861  -0.855  -0.715  -0.654  -0.610  -0.598  -0.576
 -0.569  -0.551  -0.535  -0.525  -0.512  -0.505  -0.494  -0.486
 -0.471  -0.464  -0.440  -0.426  -0.399  -0.374  -0.357  -0.351
 -0.346  -0.329  -0.327  -0.301
 -- Virtual --
  0.019   0.060   0.073   0.081   0.083   0.098   0.102   0.107
  0.115   0.120   0.124   0.132   0.136   0.143   0.144   0.151
  0.152   0.164   0.173   0.175   0.177   0.183   0.191   0.196
  0.206   0.217   0.220   0.231   0.236   0.244   0.254   0.256
  0.260   0.267   0.274   0.276   0.286   0.287   0.295   0.302
  0.308   0.309   0.328   0.333   0.337   0.341   0.345   0.353
  0.357   0.359   0.365   0.370   0.372   0.379   0.385   0.387
  0.391   0.395   0.399   0.400   0.406   0.409   0.412   0.423
  0.423   0.431   0.437   0.441   0.450   0.453   0.461   0.466
  0.472   0.479   0.482   0.486   0.493   0.496   0.500   0.508
  0.509   0.514   0.519   0.528   0.530   0.537   0.541   0.551
  0.553   0.560   0.566   0.571   0.574   0.586   0.594   0.602
  0.614   0.620   0.624   0.635   0.636   0.640   0.644   0.649
  0.661   0.666   0.668   0.672   0.684   0.690   0.692   0.707
  0.713   0.720   0.731   0.735   0.740   0.746   0.753   0.765
  0.768   0.772   0.785   0.788   0.795   0.803   0.807   0.821
  0.824   0.827   0.835   0.836   0.838   0.847   0.856   0.862
  0.871   0.876   0.879   0.892   0.903   0.906   0.911   0.913
  0.934   0.940   0.948   0.951   0.958   0.963   0.971   0.989
  0.993   1.000   1.018   1.025   1.038   1.047   1.052   1.064
  1.103   1.110   1.117   1.129   1.136   1.144   1.152   1.156
  1.174   1.185   1.193   1.223   1.226   1.246   1.254   1.273
  1.276   1.296   1.312   1.314   1.333   1.334   1.356   1.369
  1.380   1.387   1.396   1.409   1.421   1.457   1.465   1.470
  1.486   1.512   1.518   1.531   1.561   1.570   1.588   1.597
  1.617   1.643   1.652   1.707   1.782   1.790   1.815   1.848
  1.868   1.888   1.895   1.906   1.914   1.918   1.938   1.952
  1.961   1.966   1.987   2.000   2.009   2.015   2.025   2.040
  2.041   2.047   2.058   2.078   2.085   2.099   2.103   2.115
  2.149   2.175   2.177   2.198   2.214   2.230   2.237   2.254
  2.274   2.295   2.302   2.319   2.348   2.361   2.377   2.384
  2.394   2.418   2.432   2.458   2.471   2.484   2.495   2.509
  2.535   2.550   2.560   2.594   2.602   2.618   2.634   2.644
  2.653   2.665   2.681   2.706   2.727   2.775   2.781   2.810
  2.838   2.849   2.854   2.860   2.895   2.903   2.920   2.940
  2.954   2.973   2.999   3.011   3.031   3.071   3.097   3.102
  3.129   3.151   3.172   3.188   3.210   3.232   3.254   3.267
  3.277   3.283   3.292   3.315   3.338   3.363   3.373   3.380
  3.401   3.406   3.433   3.439   3.453   3.463   3.467   3.481
  3.493   3.503   3.547   3.564   3.574   3.586   3.591   3.603
  3.615   3.638   3.649   3.666   3.669   3.697   3.712   3.725
  3.740   3.758   3.764   3.774   3.783   3.797   3.828   3.849
  3.863   3.884   3.890   3.936   3.974   4.028   4.052   4.077
  4.087   4.116   4.144   4.152   4.165   4.202   4.260   4.279
  4.345   4.361   4.494   4.586   4.622   4.636   4.650   4.725
  4.743   4.768   4.803   4.835   4.851   4.879   4.990   5.048
  5.106   5.161   5.246   5.288   5.320   5.323   5.345   5.350
  5.356   5.359   5.374   5.376   5.389   5.409   5.443   5.500
  5.514   5.555   5.575   5.611   5.624   5.657   5.673   5.712
  5.718   5.724   5.776   5.803   5.882   5.985   6.012   6.055
  6.081   6.259   6.296   6.309   6.321   6.329   6.372   6.411
  6.554   6.595   6.617   6.632   6.671   6.685   6.696   6.716
  6.740   6.755   6.767   6.788   6.820   6.833   6.913   6.932
  6.955   6.972   7.011   7.049   7.069   7.091   7.153   7.166
  7.231   7.279   7.304   7.343   7.354   7.371   7.381   7.415
  7.511   7.849  22.656  22.847  22.926  23.472  23.702  44.123
 44.347  44.404  44.411  44.492  44.592
 --------------------------------------------------------------
 
          Ground-State Mulliken Net Atomic Charges

     Atom                 Charge (a.u.)
  ----------------------------------------
      1 C                    -0.951791
      2 H                     0.219132
      3 H                     0.254629
      4 H                     0.226620
      5 C                     1.010613
      6 C                    -0.284541
      7 H                     0.228113
      8 H                     0.121919
      9 C                     0.107072
     10 H                     0.150129
     11 H                     0.034714
     12 C                     0.209753
     13 O                    -0.702775
     14 O                    -0.695951
     15 O                    -0.555879
     16 O                    -0.305047
     17 O                    -0.770326
     18 O                    -0.565843
     19 H                     0.269459
  ----------------------------------------
  Sum of atomic charges =    -2.000000

[...]
 Red. Mass:       3.1349                 1.9443                 4.2471
 IR Active:          YES                    YES                    YES
 IR Intens:       13.285                 26.593                200.679
 Raman Active:       YES                    YES                    YES
               X      Y      Z        X      Y      Z        X      Y      Z
 C          0.010 -0.019 -0.016    0.005 -0.004 -0.008    0.012 -0.037  0.010
 H         -0.091 -0.006 -0.009   -0.039 -0.007 -0.002   -0.021  0.052 -0.025
 H         -0.004  0.042  0.032    0.016  0.019  0.017   -0.126  0.005 -0.003
 H          0.081  0.037  0.032    0.025  0.012  0.017    0.128  0.059 -0.012
 C         -0.014  0.020  0.008   -0.007  0.005  0.004   -0.016  0.038 -0.001
 C          0.022 -0.210  0.181    0.080 -0.018 -0.151    0.373  0.005  0.075
 H          0.088 -0.173  0.437    0.213  0.036  0.147    0.479  0.046 -0.155
 H         -0.130  0.036  0.104   -0.005  0.282 -0.261    0.308  0.002  0.042
 C          0.052  0.239 -0.149   -0.039  0.060  0.190   -0.006 -0.070 -0.012
 H          0.527 -0.024 -0.112    0.393 -0.270  0.265   -0.527 -0.057  0.077
 H         -0.233  0.163 -0.401   -0.617 -0.084 -0.116    0.171 -0.030  0.175
 C         -0.045 -0.062  0.101    0.022  0.028 -0.042   -0.001 -0.025  0.033
 O          0.042 -0.027 -0.033    0.030 -0.035  0.005   -0.024  0.039  0.008
 O         -0.015  0.003 -0.036   -0.040 -0.039 -0.024    0.015  0.003  0.001
 O         -0.062  0.048 -0.028   -0.035  0.025  0.022   -0.301  0.020 -0.091
 O         -0.006 -0.000 -0.003   -0.003 -0.002 -0.000    0.010  0.020  0.011
 O          0.002 -0.001 -0.000    0.001 -0.001 -0.000   -0.001 -0.011 -0.006
 O          0.006 -0.004  0.003    0.002 -0.002 -0.002    0.002 -0.007 -0.007
 H         -0.001  0.004  0.001    0.000  0.000  0.000    0.020 -0.060 -0.014
 TransDip  -0.039  0.001  0.110    0.116  0.112  0.036    0.424 -0.158 -0.032

 Mode:                31                     32                     33
 Frequency:      1204.05                1230.14                1269.92
 Force Cnst:      1.2185                 2.6332                 1.3933
 Red. Mass:       1.4266                 2.9534                 1.4664
 IR Active:          YES                    YES                    YES
 IR Intens:       74.727                347.588                 15.379
 Raman Active:       YES                    YES                    YES
               X      Y      Z        X      Y      Z        X      Y      Z
 C          0.015  0.014 -0.025   -0.043 -0.040  0.074   -0.001 -0.003  0.006
 H          0.020 -0.041  0.007   -0.140  0.122 -0.015   -0.024  0.010  0.001
 H          0.158  0.057  0.061   -0.503 -0.179 -0.202   -0.050 -0.015 -0.021
 H          0.038  0.023  0.074   -0.168 -0.107 -0.249   -0.021 -0.015 -0.025
 C         -0.071 -0.044  0.056    0.252  0.151 -0.196    0.026  0.015 -0.018
 C         -0.028 -0.110 -0.071    0.007 -0.067 -0.062   -0.005 -0.012  0.040
 H          0.442  0.003  0.196    0.007 -0.051  0.224    0.306  0.052 -0.075
 H         -0.332  0.157 -0.129   -0.289  0.082 -0.074    0.252  0.018 -0.018
 C         -0.013  0.015  0.021    0.005  0.031  0.011   -0.157 -0.047  0.046
 H         -0.411 -0.133  0.149   -0.321 -0.121  0.131    0.638  0.178 -0.190
 H          0.519  0.119 -0.211    0.240  0.075 -0.149    0.530  0.099 -0.149
 C         -0.001 -0.007 -0.015    0.006 -0.012  0.002   -0.012  0.036 -0.056
 O         -0.012  0.012  0.004   -0.009  0.014  0.004    0.016 -0.036 -0.004
 O          0.014  0.016  0.017    0.004  0.003  0.002    0.012  0.019  0.028
 O          0.020  0.044  0.031    0.018  0.024  0.023   -0.005  0.014 -0.020
 O          0.015  0.006 -0.034   -0.081 -0.060  0.106   -0.008 -0.010  0.011
 O         -0.000  0.004  0.003    0.004 -0.000 -0.003   -0.000  0.002  0.000
 O          0.009  0.005 -0.006   -0.033 -0.018  0.017   -0.004 -0.002 -0.000
 H         -0.004  0.015  0.002   -0.006  0.015  0.009   -0.001  0.004  0.002
 TransDip  -0.232 -0.111  0.101    0.401  0.070 -0.437    0.053  0.096 -0.061

 Mode:                34                     35                     36
 Frequency:      1306.66                1383.40                1393.83
 Force Cnst:      1.1098                 1.5215                 1.6327
 Red. Mass:       1.1032                 1.3494                 1.4264
 IR Active:          YES                    YES                    YES
 IR Intens:        7.762                212.330                 41.477
 Raman Active:       YES                    YES                    YES
               X      Y      Z        X      Y      Z        X      Y      Z
 C         -0.000 -0.001  0.003    0.100  0.027  0.008   -0.127 -0.031 -0.002
 H         -0.019  0.007 -0.000   -0.342  0.027  0.055    0.367 -0.045 -0.051
 H         -0.026 -0.008 -0.011   -0.331  0.069 -0.094    0.379 -0.136  0.069
 H         -0.015 -0.011 -0.016   -0.312 -0.283 -0.047    0.362  0.340  0.002
 C          0.014  0.008 -0.012   -0.007 -0.016  0.023    0.054  0.035 -0.040
 C         -0.020  0.022  0.016   -0.107 -0.024  0.034   -0.094 -0.024  0.030
 H          0.615  0.145 -0.205    0.378  0.071 -0.131    0.344  0.064 -0.120
 H         -0.557 -0.119  0.162    0.535  0.136 -0.138    0.451  0.126 -0.124
 C          0.023 -0.055 -0.040    0.067  0.009 -0.000    0.055  0.007  0.000
 H          0.152  0.129 -0.145   -0.159 -0.060  0.068   -0.127 -0.052  0.057
 H         -0.279 -0.111  0.218   -0.139 -0.033  0.053   -0.110 -0.027  0.046
 C         -0.000  0.005  0.009   -0.024 -0.001 -0.001   -0.018 -0.000 -0.001
 O          0.001 -0.001 -0.001    0.005 -0.005 -0.003    0.004 -0.004 -0.002
 O         -0.003 -0.005 -0.006    0.004  0.006  0.003    0.003  0.004  0.003
 O          0.005  0.028  0.019   -0.002  0.009 -0.013   -0.000  0.009 -0.011
 O         -0.006 -0.009  0.004    0.004 -0.008 -0.003   -0.012 -0.019  0.017
 O          0.000  0.002  0.001   -0.003  0.006  0.001   -0.000  0.005  0.000
 O         -0.002 -0.001  0.002   -0.007  0.001 -0.018   -0.001 -0.004  0.011
 H         -0.002  0.007  0.002   -0.001  0.002  0.003   -0.001  0.006  0.002
 TransDip  -0.034  0.081 -0.014   -0.426  0.127  0.143    0.003  0.196 -0.066

 Mode:                37                     38                     39
 Frequency:      1426.64                1453.62                1464.81
 Force Cnst:      4.5844                 1.3139                 1.3449
 Red. Mass:       3.8229                 1.0554                 1.0639
 IR Active:          YES                    YES                    YES
 IR Intens:      287.873                 19.016                 14.339
 Raman Active:       YES                    YES                    YES
               X      Y      Z        X      Y      Z        X      Y      Z
 C          0.001 -0.000 -0.001   -0.009 -0.005 -0.051   -0.016 -0.059 -0.001
 H          0.006 -0.001 -0.000    0.438 -0.215  0.013    0.109  0.600 -0.327
 H         -0.011  0.010  0.003   -0.397  0.306  0.111    0.116  0.428  0.463
 H         -0.006 -0.007  0.013   -0.061 -0.088  0.695   -0.191 -0.173 -0.124
 C         -0.000  0.000  0.002    0.030  0.011 -0.011    0.010 -0.015 -0.018
 C         -0.050 -0.002  0.004   -0.003 -0.001  0.001   -0.002 -0.008  0.011
 H          0.225  0.053  0.202    0.014  0.003 -0.006   -0.014 -0.012 -0.096
 H          0.267 -0.195  0.047    0.009  0.006 -0.005   -0.011  0.096 -0.035
 C         -0.061 -0.022  0.031    0.002  0.000 -0.000   -0.004  0.003 -0.004
 H         -0.089  0.476 -0.218   -0.002 -0.004  0.003    0.012 -0.038  0.012
 H         -0.086 -0.026 -0.525   -0.003 -0.001  0.004    0.013  0.008  0.037
 C          0.359 -0.051  0.112   -0.003  0.000 -0.001    0.011 -0.001  0.003
 O         -0.113  0.152  0.047    0.001 -0.001 -0.000   -0.003  0.004  0.001
 O         -0.103 -0.121 -0.115    0.001  0.001  0.001   -0.003 -0.003 -0.003
 O          0.009  0.007 -0.011    0.000  0.001  0.000    0.003  0.001 -0.000
 O          0.000 -0.001 -0.001   -0.004 -0.004  0.006   -0.002 -0.002  0.002
 O          0.000  0.000  0.000   -0.000  0.001 -0.000   -0.001  0.000  0.001
 O         -0.000 -0.000 -0.002   -0.011 -0.003 -0.012    0.004  0.003  0.011
 H         -0.001  0.004  0.000   -0.001  0.001  0.001   -0.001  0.002  0.000
 TransDip   0.527 -0.043  0.126    0.067  0.037  0.117   -0.009  0.102 -0.066

 Mode:                40                     41                     42
 Frequency:      1471.00                1487.87                1577.12
 Force Cnst:      1.5465                 1.5397                14.5228
 Red. Mass:       1.2131                 1.1804                 9.9100
 IR Active:          YES                    YES                    YES
 IR Intens:       32.767                 44.781               1306.156
 Raman Active:       YES                    YES                    YES
               X      Y      Z        X      Y      Z        X      Y      Z
 C          0.005  0.011  0.001    0.000  0.000 -0.000    0.000  0.000 -0.000
 H         -0.025 -0.105  0.058   -0.000 -0.001  0.000   -0.000 -0.000  0.000
 H         -0.027 -0.074 -0.084   -0.000 -0.001 -0.001    0.000 -0.000 -0.001
 H          0.029  0.026  0.021   -0.001 -0.000  0.000   -0.001 -0.001 -0.000
 C         -0.005  0.003 -0.000    0.001 -0.000  0.002   -0.001 -0.001 -0.000
 C          0.008 -0.045  0.062   -0.024  0.018 -0.028   -0.000 -0.009 -0.006
 H         -0.157 -0.097 -0.599    0.107  0.052  0.297   -0.013 -0.008  0.018
 H         -0.186  0.601 -0.197    0.124 -0.293  0.090    0.010  0.010 -0.014
 C         -0.035  0.018 -0.028   -0.046  0.038 -0.065    0.002 -0.051 -0.033
 H          0.102 -0.224  0.062    0.191 -0.561  0.179   -0.349  0.016  0.021
 H          0.099  0.054  0.221    0.161  0.099  0.595    0.350  0.051  0.043
 C          0.075 -0.010  0.020    0.063 -0.005  0.010   -0.025  0.653  0.391
 O         -0.022  0.029  0.009   -0.017  0.022  0.008    0.121 -0.242 -0.098
 O         -0.020 -0.022 -0.022   -0.015 -0.017 -0.015   -0.103 -0.208 -0.171
 O          0.016 -0.003  0.003   -0.000  0.003 -0.002    0.000 -0.000  0.000
 O         -0.002  0.004  0.001    0.001 -0.001 -0.001    0.000  0.000 -0.000
 O          0.001 -0.001 -0.000   -0.000  0.000  0.000    0.000 -0.000 -0.000
 O          0.001 -0.001  0.001   -0.000  0.000 -0.001    0.000  0.000  0.000
 H          0.000  0.000 -0.001   -0.000  0.001  0.000   -0.000  0.000 -0.000
 TransDip   0.169 -0.068  0.021    0.169 -0.065  0.115   -0.037  0.993  0.594

 Mode:                43                     44                     45
 Frequency:      1744.60                2981.09                3014.54
 Force Cnst:     20.4070                 5.5271                 5.9073
 Red. Mass:      11.3799                 1.0556                 1.1033
 IR Active:          YES                    YES                    YES
 IR Intens:      607.029                151.618                 38.139
 Raman Active:       YES                    YES                    YES
               X      Y      Z        X      Y      Z        X      Y      Z
 C         -0.089 -0.030 -0.040   -0.000 -0.000 -0.000    0.000  0.000  0.000
 H         -0.178  0.056 -0.068    0.000  0.002  0.005   -0.000 -0.001 -0.004
 H          0.220  0.005  0.135    0.001  0.003 -0.004   -0.001 -0.002  0.003
 H         -0.027  0.023 -0.115    0.000 -0.002 -0.000   -0.001  0.002  0.000
 C          0.452  0.058  0.625   -0.000  0.000  0.001   -0.000  0.000 -0.000
 C          0.018  0.004  0.004    0.016 -0.037  0.052    0.003 -0.077 -0.052
 H         -0.077 -0.021 -0.021   -0.152  0.713 -0.018   -0.140  0.658 -0.039
 H         -0.120  0.018  0.028   -0.100 -0.278 -0.613    0.108  0.276  0.663
 C         -0.008 -0.000 -0.003   -0.000  0.002 -0.000    0.000  0.006  0.006
 H          0.019  0.005 -0.012    0.001  0.002  0.001   -0.016 -0.035 -0.076
 H          0.010  0.002 -0.000    0.004 -0.018 -0.000    0.013 -0.049  0.003
 C          0.005 -0.001  0.003    0.001 -0.000  0.001    0.000 -0.000 -0.000
 O         -0.001  0.001 -0.000   -0.000  0.000 -0.000   -0.000  0.000 -0.000
 O         -0.001 -0.001 -0.002   -0.000 -0.000 -0.000   -0.000 -0.000  0.000
 O         -0.007 -0.005  0.002    0.004 -0.001  0.001   -0.000  0.000 -0.000
 O         -0.021  0.008 -0.005   -0.001  0.002  0.000    0.000 -0.000  0.000
 O         -0.002 -0.003 -0.004    0.000 -0.001 -0.000   -0.000  0.000  0.000
 O         -0.241 -0.026 -0.431   -0.000  0.000 -0.000    0.000 -0.000  0.000
 H         -0.001 -0.046  0.013   -0.001 -0.000 -0.001    0.000 -0.000  0.000
 TransDip   0.293  0.028  0.732    0.180 -0.304  0.175   -0.041 -0.155 -0.116

 Mode:                46                     47                     48
 Frequency:      3068.87                3076.41                3125.30
 Force Cnst:      5.8792                 5.7816                 6.3631
 Red. Mass:       1.0595                 1.0368                 1.1057
 IR Active:          YES                    YES                    YES
 IR Intens:       46.934                  4.823                 57.901
 Raman Active:       YES                    YES                    YES
               X      Y      Z        X      Y      Z        X      Y      Z
 C         -0.001 -0.001  0.000    0.051  0.001 -0.000   -0.001  0.001 -0.000
 H          0.001  0.003  0.007   -0.038 -0.202 -0.419    0.000  0.002  0.004
 H          0.002  0.007 -0.009   -0.124 -0.350  0.395    0.001  0.002 -0.002
 H          0.002 -0.005 -0.000   -0.422  0.553  0.032    0.015 -0.019 -0.001
 C          0.000  0.000  0.000   -0.002 -0.001 -0.000    0.000  0.000  0.000
 C         -0.002 -0.003 -0.003    0.000 -0.000  0.001    0.001 -0.008 -0.004
 H         -0.002  0.017 -0.001   -0.000  0.003 -0.000   -0.013  0.070 -0.004
 H          0.006  0.015  0.033   -0.001 -0.003 -0.006    0.006  0.021  0.051
 C         -0.021  0.020 -0.062   -0.000 -0.002 -0.002    0.007 -0.085 -0.040
 H          0.117  0.341  0.722    0.003  0.010  0.020    0.086  0.230  0.517
 H          0.123 -0.572  0.008   -0.002  0.008 -0.001   -0.173  0.790 -0.031
 C          0.003 -0.001  0.000    0.000 -0.000  0.000   -0.000 -0.002 -0.001
 O         -0.000  0.000  0.000   -0.000  0.000  0.000   -0.000  0.001  0.000
 O         -0.000 -0.000 -0.000   -0.000  0.000 -0.000   -0.000  0.001  0.000
 O          0.000 -0.000  0.000   -0.000  0.000 -0.000   -0.000  0.000  0.000
 O         -0.000  0.000  0.000    0.000 -0.000 -0.000    0.000  0.000 -0.000
 O          0.000 -0.000 -0.000   -0.000 -0.000 -0.000   -0.000 -0.000 -0.000
 O          0.000 -0.000 -0.000    0.000  0.000  0.000   -0.000  0.000 -0.000
 H         -0.000  0.000 -0.000    0.000 -0.001  0.001    0.000  0.000  0.000
 TransDip  -0.055  0.023 -0.211    0.065  0.018 -0.018    0.004 -0.217 -0.111

 Mode:                49                     50                     51
 Frequency:      3154.17                3182.15                3841.60
 Force Cnst:      6.4461                 6.5950                 9.2812
 Red. Mass:       1.0997                 1.1054                 1.0674
 IR Active:          YES                    YES                    YES
 IR Intens:        8.127                 14.068                 51.715
 Raman Active:       YES                    YES                    YES
               X      Y      Z        X      Y      Z        X      Y      Z
 C          0.019 -0.089  0.006    0.008 -0.003 -0.094    0.000 -0.000 -0.000
 H          0.041  0.146  0.337    0.079  0.350  0.720   -0.000  0.000  0.000
 H          0.150  0.379 -0.443   -0.139 -0.379  0.418    0.001  0.001 -0.000
 H         -0.436  0.549  0.034   -0.048  0.063 -0.011    0.001  0.000 -0.000
 C          0.002 -0.001  0.001    0.000  0.000 -0.002   -0.000 -0.000  0.000
 C         -0.000  0.000 -0.000   -0.000  0.000 -0.000    0.000  0.000  0.000
 H         -0.000 -0.001  0.000    0.000 -0.001  0.000   -0.001  0.001 -0.000
 H          0.000  0.002  0.004    0.000  0.001  0.002   -0.000 -0.001 -0.001
 C          0.000 -0.001 -0.000    0.000  0.000 -0.000   -0.000  0.000 -0.000
 H          0.000  0.001  0.003    0.000  0.000  0.001   -0.000  0.000 -0.000
 H         -0.003  0.014 -0.000    0.000 -0.001  0.000    0.000 -0.001  0.000
 C         -0.000 -0.000 -0.000   -0.000  0.000 -0.000    0.000 -0.000  0.000
 O          0.000 -0.000 -0.000    0.000 -0.000 -0.000   -0.000  0.000  0.000
 O          0.000  0.000  0.000    0.000  0.000  0.000   -0.000 -0.000 -0.000
 O          0.000  0.000  0.000    0.000  0.000  0.000   -0.000  0.001  0.000
 O          0.000 -0.000 -0.000   -0.000 -0.000  0.000    0.000 -0.001 -0.000
 O         -0.000 -0.000  0.000   -0.000  0.000  0.000   -0.050 -0.018 -0.033
 O         -0.000 -0.000 -0.000    0.000 -0.000  0.001   -0.000  0.000 -0.000
 H         -0.001 -0.000  0.000    0.000  0.000  0.000    0.797  0.290  0.525
 TransDip  -0.022 -0.086  0.020    0.001  0.023 -0.118    0.004  0.219  0.071

 STANDARD THERMODYNAMIC QUANTITIES AT   298.15 K  AND     1.00 ATM

   This Molecule has  1 Imaginary Frequencies
   Zero point vibrational energy:       83.969 kcal/mol

   Atom    1 Element C  Has Mass   12.00000
   Atom    2 Element H  Has Mass    1.00783
   Atom    3 Element H  Has Mass    1.00783
   Atom    4 Element H  Has Mass    1.00783
   Atom    5 Element C  Has Mass   12.00000
   Atom    6 Element C  Has Mass   12.00000
   Atom    7 Element H  Has Mass    1.00783
   Atom    8 Element H  Has Mass    1.00783
   Atom    9 Element C  Has Mass   12.00000
   Atom   10 Element H  Has Mass    1.00783
   Atom   11 Element H  Has Mass    1.00783
   Atom   12 Element C  Has Mass   12.00000
   Atom   13 Element O  Has Mass   15.99491
   Atom   14 Element O  Has Mass   15.99491
   Atom   15 Element O  Has Mass   15.99491
   Atom   16 Element O  Has Mass   15.99491
   Atom   17 Element O  Has Mass   15.99491
   Atom   18 Element O  Has Mass   15.99491
   Atom   19 Element H  Has Mass    1.00783
   Molecular Mass:   164.032100 amu
   Principal axes and moments of inertia in amu*Bohr^2:
                             1           2           3
    Eigenvalues --      833.91993  3702.23633  3965.86482
          X               0.93250     0.29491     0.20851
          Y              -0.26225     0.94981    -0.17053
          Z              -0.24833     0.10433     0.96304
   Rotational Symmetry Number is   1
   The Molecule is an Asymmetric Top
   Translational Enthalpy:        0.889 kcal/mol
   Rotational Enthalpy:           0.889 kcal/mol
   Vibrational Enthalpy:         90.264 kcal/mol
   gas constant (RT):             0.592 kcal/mol
   Translational Entropy:        41.193  cal/mol.K
   Rotational Entropy:           30.882  cal/mol.K
   Vibrational Entropy:          43.353  cal/mol.K

   Total Enthalpy:               92.634 kcal/mol
   Total Entropy:               115.429  cal/mol.K
Archival summary:
1\1\c4-86\FREQ\ProcedureUnspecified\BasisUnspecified\658(2-,1)\alotsuki\SatApr2102:30:582018SatApr2102:30:582018\0\\#,FREQ,ProcedureUnspecified,BasisUnspecified,\\-2,1\O\C,1,1.38489\O,2,1.21209,1,121.21\C,2,1.50236,1,114.426,3,174.067,0\H,4,1.08951,2,110.825,1,37.43,0\H,4,1.09084,2,110.245,1,160.187,0\H,4,1.09397,2,107.533,1,-81.1396,0\O,1,1.82252,2,80.3974,3,98.7356,0\C,8,1.39771,1,105.699,2,-103.689,0\H,9,1.10227,8,107.113,1,169.523,0\H,9,1.10247,8,110.429,1,53.5208,0\C,9,1.53204,8,113.434,1,-70.0068,0\H,12,1.09322,9,108.791,8,61.2038,0\H,12,1.09469,9,108.841,8,-57.6211,0\C,12,1.533,9,110.2,8,-178.176,0\O,15,1.26054,12,117.354,9,-90.0828,0\O,15,1.26079,12,117.314,9,87.8762,0\O,1,1.87578,2,91.4005,3,-84.4663,0\H,18,0.964736,1,96.0397,2,90.7453,0\\\@

 Total job time:  162455.92s(wall), 626641.24s(cpu) 
 Sat Apr 21 02:30:58 2018

        *************************************************************
        *                                                           *
        *  Thank you very much for using Q-Chem.  Have a nice day.  *
        *                                                           *
        *************************************************************


