
Running Job 1 of 1 qc-freq1.in
qchem qc-freq1.in_21181.0 /scratch/leeping/1945561/qchem21181/ 1
/home/leeping/opt/qchem/5.0.2-openmp/exe/qcprog.exe_s qc-freq1.in_21181.0 /scratch/leeping/1945561/qchem21181/
Check license passed

                  Welcome to Q-Chem
     A Quantum Leap Into The Future Of Chemistry


 Q-Chem 5.0, Q-Chem, Inc., Pleasanton, CA (2017)

 Yihan Shao,  Zhengting Gan,  E. Epifanovsky,  A. T. B. Gilbert,  M. Wormit,  
 J. Kussmann,  A. W. Lange,  A. Behn,  Jia Deng,  Xintian Feng,  D. Ghosh,  
 M. Goldey,  P. R. Horn,  L. D. Jacobson,  I. Kaliman,  T. Kus,  A. Landau,  
 Jie Liu,  E. I. Proynov,  R. M. Richard,  R. P. Steele,  E. J. Sundstrom,  
 H. L. Woodcock III,  P. M. Zimmerman,  D. Zuev,  B. Albrecht,  E. Alguire,  
 S. A. Baeppler,  D. Barton,  Z. Benda,  Y. A. Bernard,  E. J. Berquist,  
 K. B. Bravaya,  H. Burton,  D. Casanova,  Chun-Min Chang,  Yunqing Chen,  
 A. Chien,  K. D. Closser,  M. P. Coons,  S. Dasgupta,  A. L. Dempwolff,  
 M. Diedenhofen,  Hainam Do,  R. G. Edgar,  Po-Tung Fang,  S. Fatehi,  
 Qingguo Feng,  J. Fosso-Tande,  Qinghui Ge,  A. Ghysels,  G. Gidofalvi,  
 J. Gomes,  J. Gonthier,  A. Gunina,  M. W. D. Hanson-Heine,  
 P. H. P. Harbach,  A. W. Hauser,  J. E. Herr,  E. G. Hohenstein,  
 Z. C. Holden,  Kerwin Hui,  T.-C. Jagau,  Hyunjun Ji,  B. Kaduk,  
 K. Khistyaev,  Jaehoon Kim,  P. Klunzinger,  K. Koh,  D. Kosenkov,  
 L. Koulias,  T. Kowalczyk,  C. M. Krauter,  A. Kunitsa,  Ka Un Lao,  
 A. Laurent,  K. V. Lawler,  Joonho Lee,  D. Lefrancois,  S. Lehtola,  
 D. S. Levine,  Yi-Pei Li,  You-Sheng Lin,  Fenglai Liu,  E. Livshits,  
 A. Luenser,  P. Manohar,  E. Mansoor,  S. F. Manzer,  Shan-Ping Mao,  
 Yuezhi Mao,  N. Mardirossian,  A. V. Marenich,  T. Markovich,  
 L. A. Martinez-Martinez,  S. A. Maurer,  N. J. Mayhall,  S. C. McKenzie,  
 J.-M. Mewes,  A. F. Morrison,  J. W. Mullinax,  K. Nanda,  
 T. S. Nguyen-Beck,  R. Olivares-Amaya,  J. A. Parkhill,  T. M. Perrine,  
 F. Plasser,  S. Prager,  A. Prociuk,  E. Ramos,  D. R. Rehn,  F. Rob,  
 M. Schneider,  N. Sergueev,  S. M. Sharada,  S. Sharma,  D. W. Small,  
 T. Stauch,  T. Stein,  Yu-Chuan Su,  A. J. W. Thom,  A. Tkatchenko,  
 T. Tsuchimochi,  L. Vogt,  O. Vydrov,  M. A. Watson,  J. Wenzel,  
 M. de Wergifosse,  T. A. Wesolowski,  A. White,  J. Witte,  A. Yamada,  
 Jun Yang,  K. Yao,  S. Yeganeh,  S. R. Yost,  Zhi-Qiang You,  A. Zech,  
 Igor Ying Zhang,  Xing Zhang,  Yan Zhao,  Ying Zhu,  B. R. Brooks,  
 G. K. L. Chan,  C. J. Cramer,  M. S. Gordon,  W. J. Hehre,  A. Klamt,  
 M. W. Schmidt,  C. D. Sherrill,  D. G. Truhlar,  A. Aspuru-Guzik,  R. Baer,  
 A. T. Bell,  N. A. Besley,  Jeng-Da Chai,  R. A. DiStasio Jr.,  A. Dreuw,  
 B. D. Dunietz,  T. R. Furlani,  Chao-Ping Hsu,  Yousung Jung,  Jing Kong,  
 D. S. Lambrecht,  WanZhen Liang,  C. Ochsenfeld,  V. A. Rassolov,  
 L. V. Slipchenko,  J. E. Subotnik,  T. Van Voorhis,  J. M. Herbert,  
 A. I. Krylov,  P. M. W. Gill,  M. Head-Gordon

 Contributors to earlier versions of Q-Chem not listed above: 
 R. D. Adamson,  B. Austin,  J. Baker,  G. J. O. Beran,  K. Brandhorst,  
 S. T. Brown,  E. F. C. Byrd,  A. K. Chakraborty,  C.-L. Cheng,  
 Siu Hung Chien,  D. M. Chipman,  D. L. Crittenden,  H. Dachsel,  
 R. J. Doerksen,  A. D. Dutoi,  L. Fusti-Molnar,  W. A. Goddard III,  
 A. Golubeva-Zadorozhnaya,  S. R. Gwaltney,  G. Hawkins,  A. Heyden,  
 S. Hirata,  G. Kedziora,  F. J. Keil,  C. Kelley,  Jihan Kim,  R. A. King,  
 R. Z. Khaliullin,  P. P. Korambath,  W. Kurlancheek,  A. M. Lee,  M. S. Lee,  
 S. V. Levchenko,  Ching Yeh Lin,  D. Liotard,  R. C. Lochan,  I. Lotan,  
 P. E. Maslen,  N. Nair,  D. P. O'Neill,  D. Neuhauser,  E. Neuscamman,  
 C. M. Oana,  R. Olson,  B. Peters,  R. Peverati,  P. A. Pieniazek,  
 Y. M. Rhee,  J. Ritchie,  M. A. Rohrdanz,  E. Rosta,  N. J. Russ,  
 H. F. Schaefer III,  N. E. Schultz,  N. Shenvi,  A. C. Simmonett,  A. Sodt,  
 D. Stuck,  K. S. Thanthiriwatte,  V. Vanovschi,  Tao Wang,  A. Warshel,  
 C. F. Williams,  Q. Wu,  X. Xu,  W. Zhang

 Please cite Q-Chem as follows:
 Y. Shao et al., Mol. Phys. 113, 184-215 (2015)
 DOI: 10.1080/00268976.2014.952696

 Q-Chem 5.0.2 for Intel X86 EM64T Linux

 Parts of Q-Chem use Armadillo 5.200.1 (Boston Tea Smuggler).
 http://arma.sourceforge.net/

 Q-Chem begins on Fri Apr 10 10:48:16 2020  

Host: 
0

     Scratch files written to /scratch/leeping/1945561/qchem21181//
 Dec517 15110_ 26548  26544 5633   
Processing $rem in /home/leeping/opt/qchem/5.0.2-openmp/config/preferences.
 MEM_STATIC 2000
 MEM_TOTAL  8000
 SYMMETRY   OFF
 SYM_IGNORE TRUE 
Symmetry turned off for PCM/SM12/SMD calculation

Checking the input file for inconsistencies... 	...done.

--------------------------------------------------------------
User input:
--------------------------------------------------------------
$molecule
-2 1
C       -2.8588495558    1.2067830004    0.1650521128
C        0.7233869631    0.4713561358    0.3733310110
C        0.5026579567   -0.5618640726   -0.4322614435
H       -0.0672869194    1.1736241922    0.6234325250
H        1.7032141674    0.6351949167    0.8138859337
H        3.4735256479    1.7372753438   -0.7607152782
O       -2.9702182449    1.1864567810   -1.0893165834
C       -3.0972907023   -0.1039574054    0.9194435435
H       -2.4208325321   -0.1872298332    1.7734465132
H       -4.1225751679   -0.1011467851    1.3054377618
H       -2.9786944538   -0.9691544189    0.2642853981
O       -2.5881172843    2.2245872685    0.8570147165
H       -0.4856514307   -0.7333317435   -0.8537952754
C        1.5490692601   -1.5975523632   -0.7836206484
O        1.1286959316   -2.6529240494   -1.3135402445
O        2.7593056734   -1.3457590054   -0.5159054359
O        4.0628211923    0.9900541305   -0.9087414532
H        3.5144395902    0.1867406283   -0.7349256637
$end

$rem
jobtype               freq
method                wb97x-v
basis                 def2-tzvpd
symmetry              off
sym_ignore            true
incdft                false
incfock               0
!scf_algorithm        diis_gdm
scf_convergence       8
thresh                14
!purecart             112
max_scf_cycles        1000
geom_opt_max_cycles   500
geom_opt_dmax         100
geom_opt_tol_gradient 10
solvent_method        pcm
ideriv                1
rpath_tol_displacement 1000
rpath_max_cycles      100
rpath_direction       1
$end

$pcm
theory              cosmo
method              iswig
Radii               bondi
vdwScale            1.20
hpoints             110
heavypoints         110
$end

$solvent
dielectric 78.400000
$end

--------------------------------------------------------------
 ----------------------------------------------------------------
             Standard Nuclear Orientation (Angstroms)
    I     Atom           X                Y                Z
 ----------------------------------------------------------------
    1      C      -2.8588495558     1.2067830004     0.1650521128
    2      C       0.7233869631     0.4713561358     0.3733310110
    3      C       0.5026579567    -0.5618640726    -0.4322614435
    4      H      -0.0672869194     1.1736241922     0.6234325250
    5      H       1.7032141674     0.6351949167     0.8138859337
    6      H       3.4735256479     1.7372753438    -0.7607152782
    7      O      -2.9702182449     1.1864567810    -1.0893165834
    8      C      -3.0972907023    -0.1039574054     0.9194435435
    9      H      -2.4208325321    -0.1872298332     1.7734465132
   10      H      -4.1225751679    -0.1011467851     1.3054377618
   11      H      -2.9786944538    -0.9691544189     0.2642853981
   12      O      -2.5881172843     2.2245872685     0.8570147165
   13      H      -0.4856514307    -0.7333317435    -0.8537952754
   14      C       1.5490692601    -1.5975523632    -0.7836206484
   15      O       1.1286959316    -2.6529240494    -1.3135402445
   16      O       2.7593056734    -1.3457590054    -0.5159054359
   17      O       4.0628211923     0.9900541305    -0.9087414532
   18      H       3.5144395902     0.1867406283    -0.7349256637
 ----------------------------------------------------------------
 Nuclear Repulsion Energy =   478.2778007294 hartrees
 There are       40 alpha and       40 beta electrons
 Requested basis set is def2-TZVPD
 There are 175 shells and 457 basis functions

 Total QAlloc Memory Limit   8000 MB
 Mega-Array Size      1956 MB
 MEM_STATIC part      2000 MB
 Discretize the solute cavity surface with Lebedev spheres
	Using 110 Lebedev grid points for each H atom
	Using 110 Lebedev grid points for other atoms
	Atomic van der Waals radii will be scaled by 1.20
 Remove points where switching function is < 1.0e-08
 Keep 1213 surface tesserae and discard 767 interior tesserae
 Molecular Surface Area = 223.263 Angst**2
 A cutoff of  1.0D-14 yielded  13273 shell pairs
 There are     90225 function pairs (    114417 Cartesian)
 
 -------------------------------------------------------
 OpenMP Integral Computing Module                       
 Release: version 1.0, May 2013, Q-Chem Inc. Pittsburgh 
 -------------------------------------------------------
 Integral Job Info:
 Integral job number is                      11
 Integral operator is                         1
 short-range coefficients              16700000
 long-range coefficients              100000000
 Omega coefficients                         300
 if combine SR and LR in K                    1
 Integral screening is                        0
 Integral computing path is                   2
 max size of driver memory is            800000
 size of driver memory is                776718
 size of scratch memory is              4473992
 max col of scratch BK array              10000
 max len of scratch array in speh3          662
 max len of scratch index in speh4           32
 max int batch size is                      520
 min int batch size is                       52
 fixed nKL is                                52
 max L of basis functions is                  3
 order of int derivative is                   0
 number of shells is                        175
 number of basis is                         517
 number of cartesian basis is               517
 number of contracted shell pairs         13273
 number of primitive shell pairs          26375
 maxK2 (contraction) of shell pair           36
 max number of K2 of shell pair               1
 max number of CS2 of shell pair           2261
 max number of PS2 of shell pair           2958
 mem total for path MDJ                  756436
 -------------------------------------------------------
 Smallest overlap matrix eigenvalue = 3.33E-06
 Guess from superposition of atomic densities
 Warning:  Energy on first SCF cycle will be non-variational
 SAD guess density has 78.000000 electrons
 Long-range K will be added via erf
 Coulomb attenuation parameter = 0.3 bohr**(-1)
 A restricted hybrid HF-DFT SCF calculation will be
 performed using Pulay DIIS extrapolation
 Polarizable Continuum solvation model will be applied
 Exchange:     0.1670 Hartree-Fock + 1.0000 wB97X-V + LR-HF
 Correlation:  1.0000 wB97X-V
 Using SG-2 standard quadrature grid
 Nonlocal Correlation:  VV10 with C = 0.0100 and b = 6.00
 Grid used for NLC:  SG-1 standard quadrature
 SCF converges when DIIS error is below 1.0E-08
 using 16 threads for integral computing
 -------------------------------------------------------
 OpenMP Integral computing Module                
 Release: version 1.0, May 2013, Q-Chem Inc. Pittsburgh 
 -------------------------------------------------------
 using 16 threads for integral computing
 -------------------------------------------------------
 OpenMP Integral computing Module                
 Release: version 1.0, May 2013, Q-Chem Inc. Pittsburgh 
 -------------------------------------------------------
 -------------------------------------------------------
 OpenMP BLAS3 based DFT computing Module                
 Release: version 1.0, May 2013, Q-Chem Inc. Pittsburgh 
 -------------------------------------------------------
 -------------------------------------------------------
 OpenMP BLAS3 based DFT computing Module                
 Release: version 1.0, May 2013, Q-Chem Inc. Pittsburgh 
 -------------------------------------------------------
 -------------------------------------------------------
 OpenMP BLAS3 based DFT computing Module                
 Release: version 1.0, May 2013, Q-Chem Inc. Pittsburgh 
 -------------------------------------------------------
 ---------------------------------------
  Cycle       Energy         DIIS Error
 ---------------------------------------
    1    -573.0298506027      2.21E-02
    2    -571.4191780221      4.60E-03
    3    -571.4386663141      4.92E-03
    4    -571.8354991388      3.09E-04
    5    -571.8375326598      1.60E-04
    6    -571.8380617539      5.87E-05
    7    -571.8381281438      1.90E-05
    8    -571.8381374428      6.44E-06
    9    -571.8381385789      2.42E-06
   10    -571.8381387963      5.37E-07
   11    -571.8381388107      2.02E-07
   12    -571.8381388130      7.51E-08
   13    -571.8381388133      2.69E-08
   14    -571.8381388133      9.01E-09 Convergence criterion met
 ---------------------------------------

************** Final PCM Free Energy Summary **************
 G_electrostatic  =      -0.29135858 hartree =    -182.83026903 kcal/mol
 G_cavitation     =       0.00000000 hartree =       0.00000000 kcal/mol
 G_dispersion     =       0.00000000 hartree =       0.00000000 kcal/mol
 G_repulsion      =       0.00000000 hartree =       0.00000000 kcal/mol
 --------------------------------------------------
 Non-electrostatic Free Energy =       0.00000000 hartree =       0.00000000 kcal/mol
 Total                         =      -0.29135858 hartree =    -182.83026903 kcal/mol
 --------------------------------------------------
 SCF Energy (H0 + V/2)                       =    -571.83813881 
 Solute Internal Energy (H0)                 =    -571.54678023 
 Total Free Energy (H0 + V/2 + non-elec)     =    -571.83813881 hartree
                                             = -358833.84798436 kcal/mol
***********************************************************

 SCF time:  CPU 2819.28 s  wall 209.21 s
 SCF   energy in the final basis set = -571.83813881
 Total energy in the final basis set = -571.83813881
 
 --------------------------------------------------------------
 
                    Orbital Energies (a.u.)
 --------------------------------------------------------------
 
 Alpha MOs
 -- Occupied --
-19.189 -19.153 -19.151 -19.140 -19.139 -10.354 -10.342 -10.263
-10.262 -10.242  -1.157  -1.143  -1.112  -1.062  -1.049  -0.896
 -0.832  -0.724  -0.633  -0.612  -0.604  -0.568  -0.548  -0.533
 -0.529  -0.528  -0.519  -0.506  -0.480  -0.476  -0.466  -0.450
 -0.410  -0.370  -0.359  -0.355  -0.347  -0.342  -0.338  -0.330
 -- Virtual --
  0.057   0.060   0.071   0.078   0.089   0.098   0.099   0.105
  0.115   0.121   0.126   0.133   0.138   0.143   0.148   0.155
  0.162   0.166   0.172   0.177   0.184   0.186   0.197   0.203
  0.213   0.218   0.223   0.227   0.233   0.238   0.246   0.255
  0.258   0.270   0.275   0.285   0.289   0.294   0.307   0.314
  0.320   0.322   0.326   0.333   0.343   0.345   0.355   0.359
  0.361   0.367   0.372   0.376   0.380   0.386   0.388   0.394
  0.404   0.406   0.414   0.417   0.420   0.423   0.426   0.439
  0.447   0.450   0.456   0.460   0.465   0.469   0.476   0.482
  0.490   0.492   0.501   0.504   0.507   0.517   0.522   0.527
  0.532   0.541   0.548   0.553   0.554   0.562   0.566   0.570
  0.576   0.582   0.587   0.596   0.607   0.609   0.617   0.627
  0.634   0.636   0.645   0.651   0.657   0.663   0.672   0.676
  0.681   0.688   0.694   0.698   0.704   0.717   0.722   0.724
  0.731   0.741   0.745   0.750   0.755   0.762   0.774   0.783
  0.792   0.798   0.801   0.804   0.820   0.828   0.838   0.845
  0.849   0.853   0.859   0.870   0.871   0.874   0.881   0.890
  0.900   0.911   0.913   0.920   0.936   0.949   0.957   0.974
  0.982   0.989   1.002   1.008   1.022   1.035   1.043   1.054
  1.059   1.074   1.097   1.102   1.109   1.121   1.135   1.149
  1.158   1.171   1.181   1.190   1.211   1.222   1.237   1.244
  1.278   1.306   1.323   1.327   1.351   1.354   1.364   1.379
  1.385   1.396   1.402   1.416   1.449   1.474   1.499   1.524
  1.532   1.565   1.592   1.633   1.670   1.688   1.722   1.739
  1.757   1.767   1.790   1.858   1.870   1.889   1.900   1.903
  1.915   1.930   1.942   1.947   1.960   1.964   1.969   1.974
  1.989   1.990   2.011   2.040   2.066   2.083   2.091   2.111
  2.121   2.127   2.132   2.149   2.169   2.174   2.194   2.223
  2.233   2.247   2.272   2.279   2.292   2.305   2.331   2.342
  2.357   2.368   2.415   2.435   2.442   2.469   2.476   2.477
  2.509   2.518   2.531   2.563   2.584   2.595   2.606   2.620
  2.653   2.679   2.684   2.700   2.726   2.747   2.777   2.811
  2.825   2.841   2.863   2.881   2.902   2.919   2.928   2.935
  2.948   2.975   2.988   2.998   3.073   3.083   3.091   3.111
  3.125   3.149   3.151   3.204   3.212   3.233   3.244   3.254
  3.271   3.286   3.306   3.328   3.336   3.343   3.369   3.373
  3.382   3.400   3.425   3.431   3.438   3.445   3.447   3.462
  3.479   3.494   3.533   3.556   3.560   3.596   3.603   3.621
  3.632   3.643   3.651   3.665   3.675   3.679   3.723   3.742
  3.747   3.761   3.770   3.778   3.802   3.842   3.873   3.920
  3.966   4.000   4.038   4.054   4.091   4.194   4.201   4.206
  4.263   4.308   4.339   4.389   4.516   4.573   4.601   4.637
  4.684   4.750   4.776   4.820   4.842   4.859   4.927   4.969
  5.002   5.013   5.233   5.240   5.312   5.319   5.337   5.349
  5.357   5.358   5.367   5.378   5.381   5.497   5.498   5.542
  5.593   5.633   5.701   5.715   5.716   5.733   5.773   5.787
  5.986   6.023   6.178   6.244   6.258   6.303   6.308   6.317
  6.365   6.460   6.596   6.615   6.618   6.640   6.655   6.666
  6.675   6.708   6.726   6.753   6.760   6.771   6.781   6.926
  6.962   6.993   7.018   7.047   7.057   7.141   7.219   7.249
  7.285   7.345   7.363   7.398   7.405   7.412   7.468  22.617
 22.647  23.046  23.680  23.721  44.017  44.345  44.396  44.405
 44.433
 --------------------------------------------------------------
 
          Ground-State Mulliken Net Atomic Charges

     Atom                 Charge (a.u.)
  ----------------------------------------
      1 C                     0.405070
      2 C                    -0.754784
      3 C                     0.326730
      4 H                     0.176132
      5 H                     0.242826
      6 H                     0.341739
      7 O                    -0.708229
      8 C                    -0.574019
      9 H                     0.194665
     10 H                     0.223132
     11 H                     0.198049
     12 O                    -0.711071
     13 H                     0.346534
     14 C                     0.062568
     15 O                    -0.669403
     16 O                    -0.750604
     17 O                    -0.681336
     18 H                     0.332002
  ----------------------------------------
  Sum of atomic charges =    -2.000000

 -----------------------------------------------------------------
                    Cartesian Multipole Moments
 -----------------------------------------------------------------
    Charge (ESU x 10^10)
                -9.6064
    Dipole Moment (Debye)
         X      -0.4787      Y       0.1801      Z       7.0859
       Tot       7.1044
    Quadrupole Moments (Debye-Ang)
        XX    -146.6211     XY      39.4698     YY    -109.0500
        XZ       7.4696     YZ     -11.5399     ZZ     -80.1197
    Octopole Moments (Debye-Ang^2)
       XXX     -83.5847    XXY     -52.9381    XYY      27.4623
       YYY      25.9035    XXZ      80.4253    XYZ      -8.4037
       YYZ      38.6789    XZZ      11.2963    YZZ      -0.0799
       ZZZ      60.0990
    Hexadecapole Moments (Debye-Ang^3)
      XXXX   -3581.3697   XXXY     461.4825   XXYY    -788.6419
      XYYY     541.2652   YYYY   -1160.6122   XXXZ     295.2701
      XXYZ     -34.5694   XYYZ     132.8176   YYYZ    -225.4011
      XXZZ    -600.5203   XYZZ     146.1584   YYZZ    -274.2117
      XZZZ     220.5530   YZZZ    -122.2859   ZZZZ    -378.4075
 -----------------------------------------------------------------
 Calculating analytic gradient of the SCF energy
 Gradient of SCF Energy
            1           2           3           4           5           6
    1   0.0049456  -0.0463412   0.0057654   0.0637560  -0.0578927   0.0308147
    2   0.0786090  -0.0262013   0.0872506  -0.0422701  -0.0136050  -0.0424284
    3  -0.0398627   0.0429765  -0.0025294  -0.0148911  -0.0274527  -0.0083365
            7           8           9          10          11          12
    1   0.0016144   0.0003625  -0.0476423   0.0641824  -0.0058447  -0.0128850
    2  -0.0099475  -0.0892136   0.0059329  -0.0000517   0.0609503  -0.0485591
    3   0.0555682   0.0406079  -0.0604548  -0.0225890   0.0446066  -0.0199065
           13          14          15          16          17          18
    1   0.0432594   0.0272762   0.0097233  -0.0473850  -0.0486035   0.0148944
    2  -0.0061097  -0.0471463   0.0540766  -0.0154595  -0.0039350   0.0581078
    3   0.0103323  -0.0131474   0.0260024  -0.0157952   0.0130874  -0.0082161
 Max gradient component =       8.921E-02
 RMS gradient           =       3.924E-02
 Computing fast CPCM-ISWIG gradient
 Updating gradient with PCM contributions...
 -- total gradient after adding PCM contribution --
---------------------------------------------------
  Atom         X              Y              Z     
---------------------------------------------------
   1       0.000002      -0.000001      -0.000002
   2       0.000000      -0.000000      -0.000003
   3       0.000000       0.000002       0.000001
   4       0.000001       0.000001      -0.000001
   5       0.000000       0.000001      -0.000000
   6       0.000002      -0.000001       0.000005
   7      -0.000002       0.000002       0.000000
   8       0.000006      -0.000001       0.000000
   9      -0.000004       0.000001      -0.000000
  10      -0.000004       0.000002      -0.000003
  11      -0.000003       0.000000      -0.000003
  12       0.000000       0.000002       0.000001
  13      -0.000000      -0.000001       0.000001
  14       0.000004       0.000000       0.000002
  15      -0.000002      -0.000003       0.000002
  16      -0.000002       0.000002       0.000001
  17      -0.000004      -0.000003      -0.000006
  18       0.000002      -0.000001       0.000005
---------------------------------------------------
 Number of fixed atoms: 0
 Gradient time:  CPU 684.11 s  wall 53.82 s
 ######################################################
 ######################################################
 # Starting finite difference calculation for IDERIV  #
 Finite diff step size:  1.88973e-03 a.u.
 ----------------------------------------------------------------
             Standard Nuclear Orientation (Angstroms)
    I     Atom           X                Y                Z
 ----------------------------------------------------------------
    1      C      -2.8578495558     1.2067830004     0.1650521128
    2      C       0.7233869631     0.4713561358     0.3733310110
    3      C       0.5026579567    -0.5618640726    -0.4322614435
    4      H      -0.0672869194     1.1736241922     0.6234325250
    5      H       1.7032141674     0.6351949167     0.8138859337
    6      H       3.4735256479     1.7372753438    -0.7607152782
    7      O      -2.9702182449     1.1864567810    -1.0893165834
    8      C      -3.0972907023    -0.1039574054     0.9194435435
    9      H      -2.4208325321    -0.1872298332     1.7734465132
   10      H      -4.1225751679    -0.1011467851     1.3054377618
   11      H      -2.9786944538    -0.9691544189     0.2642853981
   12      O      -2.5881172843     2.2245872685     0.8570147165
   13      H      -0.4856514307    -0.7333317435    -0.8537952754
   14      C       1.5490692601    -1.5975523632    -0.7836206484
   15      O       1.1286959316    -2.6529240494    -1.3135402445
   16      O       2.7593056734    -1.3457590054    -0.5159054359
   17      O       4.0628211923     0.9900541305    -0.9087414532
   18      H       3.5144395902     0.1867406283    -0.7349256637
 ----------------------------------------------------------------
 Nuclear Repulsion Energy =   478.2838619057 hartrees
 There are       40 alpha and       40 beta electrons
 Discretize the solute cavity surface with Lebedev spheres
	Using 110 Lebedev grid points for each H atom
	Using 110 Lebedev grid points for other atoms
	Atomic van der Waals radii will be scaled by 1.20
 Remove points where switching function is < 1.0e-08
 Keep 1213 surface tesserae and discard 767 interior tesserae
 Molecular Surface Area = 223.257 Angst**2
 Requested basis set is def2-TZVPD
 There are 175 shells and 457 basis functions
 A cutoff of  1.0D-14 yielded  13273 shell pairs
 There are     90225 function pairs (    114417 Cartesian)
 Smallest overlap matrix eigenvalue = 3.33E-06
 Guess MOs from SCF MO coefficient file
 Reading MOs from coefficient file
 Reading MOs from coefficient file
 Long-range K will be added via erf
 Coulomb attenuation parameter = 0.3 bohr**(-1)
 A restricted hybrid HF-DFT SCF calculation will be
 performed using Pulay DIIS extrapolation
 Polarizable Continuum solvation model will be applied
 Exchange:     0.1670 Hartree-Fock + 1.0000 wB97X-V + LR-HF
 Correlation:  1.0000 wB97X-V
 Using SG-2 standard quadrature grid
 Nonlocal Correlation:  VV10 with C = 0.0100 and b = 6.00
 Grid used for NLC:  SG-1 standard quadrature
 SCF converges when DIIS error is below 1.0E-08
 using 16 threads for integral computing
 -------------------------------------------------------
 OpenMP Integral computing Module                
 Release: version 1.0, May 2013, Q-Chem Inc. Pittsburgh 
 -------------------------------------------------------
 using 16 threads for integral computing
 -------------------------------------------------------
 OpenMP Integral computing Module                
 Release: version 1.0, May 2013, Q-Chem Inc. Pittsburgh 
 -------------------------------------------------------
 -------------------------------------------------------
 OpenMP BLAS3 based DFT computing Module                
 Release: version 1.0, May 2013, Q-Chem Inc. Pittsburgh 
 -------------------------------------------------------
 -------------------------------------------------------
 OpenMP BLAS3 based DFT computing Module                
 Release: version 1.0, May 2013, Q-Chem Inc. Pittsburgh 
 -------------------------------------------------------
 -------------------------------------------------------
 OpenMP BLAS3 based DFT computing Module                
 Release: version 1.0, May 2013, Q-Chem Inc. Pittsburgh 
 -------------------------------------------------------
 ---------------------------------------
  Cycle       Energy         DIIS Error
 ---------------------------------------
    1    -571.5468988732      3.50E-04
    2    -571.8310817786      3.69E-04
    3    -571.8360539228      1.70E-04
    4    -571.8368809972      1.26E-04
    5    -571.8374070348      9.47E-05
    6    -571.8376578238      7.66E-05
    7    -571.8378599312      5.82E-05
    8    -571.8380000880      4.09E-05
    9    -571.8381040024      2.04E-05
   10    -571.8381331015      7.97E-06
   11    -571.8381381207      1.52E-06
   12    -571.8381383040      2.75E-07
   13    -571.8381383099      4.73E-08
   14    -571.8381383100      6.14E-09 Convergence criterion met
 ---------------------------------------

************** Final PCM Free Energy Summary **************
 G_electrostatic  =      -0.29135192 hartree =    -182.82608793 kcal/mol
 G_cavitation     =       0.00000000 hartree =       0.00000000 kcal/mol
 G_dispersion     =       0.00000000 hartree =       0.00000000 kcal/mol
 G_repulsion      =       0.00000000 hartree =       0.00000000 kcal/mol
 --------------------------------------------------
 Non-electrostatic Free Energy =       0.00000000 hartree =       0.00000000 kcal/mol
 Total                         =      -0.29135192 hartree =    -182.82608793 kcal/mol
 --------------------------------------------------
 SCF Energy (H0 + V/2)                       =    -571.83813831 
 Solute Internal Energy (H0)                 =    -571.54678639 
 Total Free Energy (H0 + V/2 + non-elec)     =    -571.83813831 hartree
                                             = -358833.84766855 kcal/mol
***********************************************************

 SCF time:  CPU 2963.18 s  wall 217.47 s
 SCF   energy in the final basis set = -571.83813831
 Total energy in the final basis set = -571.83813831
 
 --------------------------------------------------------------
 
                    Orbital Energies (a.u.)
 --------------------------------------------------------------
 
 Alpha MOs
 -- Occupied --
-19.189 -19.153 -19.151 -19.140 -19.139 -10.354 -10.342 -10.263
-10.262 -10.242  -1.157  -1.143  -1.112  -1.062  -1.049  -0.896
 -0.832  -0.724  -0.633  -0.612  -0.604  -0.568  -0.548  -0.533
 -0.529  -0.528  -0.519  -0.506  -0.480  -0.476  -0.466  -0.450
 -0.410  -0.370  -0.359  -0.355  -0.347  -0.342  -0.338  -0.330
 -- Virtual --
  0.057   0.060   0.071   0.078   0.089   0.098   0.099   0.105
  0.115   0.121   0.126   0.133   0.138   0.143   0.148   0.155
  0.162   0.166   0.172   0.177   0.184   0.186   0.197   0.203
  0.213   0.218   0.223   0.227   0.233   0.238   0.246   0.255
  0.258   0.270   0.275   0.285   0.289   0.294   0.307   0.314
  0.320   0.322   0.326   0.333   0.343   0.345   0.355   0.359
  0.361   0.367   0.372   0.376   0.380   0.386   0.388   0.394
  0.404   0.406   0.414   0.417   0.420   0.423   0.426   0.439
  0.447   0.450   0.456   0.460   0.465   0.469   0.476   0.482
  0.490   0.492   0.501   0.504   0.507   0.517   0.522   0.527
  0.532   0.541   0.548   0.553   0.554   0.562   0.566   0.570
  0.576   0.582   0.587   0.596   0.607   0.609   0.617   0.627
  0.634   0.636   0.645   0.651   0.657   0.663   0.672   0.676
  0.681   0.688   0.694   0.698   0.704   0.717   0.722   0.724
  0.731   0.741   0.745   0.750   0.755   0.762   0.774   0.783
  0.792   0.798   0.801   0.804   0.820   0.828   0.838   0.845
  0.849   0.853   0.859   0.870   0.871   0.874   0.881   0.890
  0.900   0.911   0.913   0.920   0.936   0.949   0.957   0.974
  0.982   0.989   1.002   1.008   1.022   1.035   1.043   1.054
  1.059   1.074   1.097   1.102   1.109   1.121   1.135   1.149
  1.158   1.171   1.181   1.190   1.211   1.222   1.237   1.243
  1.278   1.306   1.323   1.326   1.351   1.354   1.364   1.379
  1.385   1.396   1.402   1.416   1.449   1.474   1.499   1.524
  1.532   1.565   1.592   1.633   1.670   1.688   1.722   1.739
  1.757   1.768   1.790   1.858   1.870   1.889   1.900   1.903
  1.915   1.930   1.942   1.947   1.960   1.964   1.969   1.974
  1.989   1.990   2.011   2.040   2.066   2.083   2.091   2.111
  2.121   2.127   2.132   2.149   2.169   2.174   2.194   2.223
  2.233   2.247   2.272   2.279   2.292   2.305   2.331   2.342
  2.357   2.368   2.415   2.435   2.442   2.469   2.476   2.477
  2.509   2.518   2.531   2.563   2.584   2.595   2.607   2.620
  2.653   2.679   2.684   2.700   2.726   2.747   2.777   2.811
  2.825   2.841   2.863   2.881   2.902   2.919   2.928   2.935
  2.948   2.975   2.988   2.998   3.073   3.083   3.091   3.111
  3.125   3.149   3.151   3.204   3.212   3.233   3.244   3.254
  3.271   3.286   3.306   3.328   3.336   3.343   3.369   3.373
  3.382   3.400   3.425   3.431   3.438   3.444   3.447   3.462
  3.479   3.494   3.532   3.556   3.560   3.596   3.603   3.621
  3.632   3.643   3.651   3.665   3.675   3.679   3.723   3.742
  3.747   3.761   3.770   3.778   3.802   3.843   3.873   3.921
  3.966   4.000   4.038   4.054   4.091   4.194   4.200   4.206
  4.263   4.308   4.338   4.389   4.516   4.573   4.601   4.637
  4.684   4.750   4.776   4.820   4.842   4.858   4.927   4.969
  5.002   5.013   5.233   5.240   5.312   5.319   5.337   5.349
  5.357   5.358   5.367   5.378   5.381   5.497   5.498   5.542
  5.593   5.633   5.701   5.715   5.716   5.733   5.773   5.787
  5.986   6.023   6.178   6.244   6.258   6.303   6.308   6.317
  6.365   6.460   6.596   6.616   6.618   6.640   6.655   6.666
  6.675   6.708   6.726   6.753   6.760   6.771   6.781   6.926
  6.962   6.993   7.018   7.047   7.057   7.141   7.219   7.249
  7.285   7.345   7.363   7.398   7.406   7.412   7.468  22.617
 22.647  23.046  23.680  23.721  44.017  44.345  44.396  44.405
 44.433
 --------------------------------------------------------------
 
          Ground-State Mulliken Net Atomic Charges

     Atom                 Charge (a.u.)
  ----------------------------------------
      1 C                     0.404985
      2 C                    -0.754805
      3 C                     0.326911
      4 H                     0.176055
      5 H                     0.242814
      6 H                     0.341739
      7 O                    -0.708357
      8 C                    -0.573979
      9 H                     0.194553
     10 H                     0.223181
     11 H                     0.198053
     12 O                    -0.710828
     13 H                     0.346567
     14 C                     0.062444
     15 O                    -0.669400
     16 O                    -0.750600
     17 O                    -0.681336
     18 H                     0.332003
  ----------------------------------------
  Sum of atomic charges =    -2.000000

 -----------------------------------------------------------------
                    Cartesian Multipole Moments
 -----------------------------------------------------------------
    Charge (ESU x 10^10)
                -9.6064
    Dipole Moment (Debye)
         X      -0.4771      Y       0.1822      Z       7.0874
       Tot       7.1058
    Quadrupole Moments (Debye-Ang)
        XX    -146.6293     XY      39.4666     YY    -109.0445
        XZ       7.4652     YZ     -11.5357     ZZ     -80.1203
    Octopole Moments (Debye-Ang^2)
       XXX     -83.5656    XXY     -52.9369    XYY      27.4439
       YYY      25.9229    XXZ      80.4399    XYZ      -8.4147
       YYZ      38.6876    XZZ      11.2893    YZZ      -0.0764
       ZZZ      60.1037
    Hexadecapole Moments (Debye-Ang^3)
      XXXX   -3581.3115   XXXY     461.4804   XXYY    -788.5741
      XYYY     541.1891   YYYY   -1160.5491   XXXZ     295.2143
      XXYZ     -34.5375   XYYZ     132.7877   YYYZ    -225.3739
      XXZZ    -600.4723   XYZZ     146.1394   YYZZ    -274.2034
      XZZZ     220.5355   YZZZ    -122.2693   ZZZZ    -378.4123
 -----------------------------------------------------------------
 Calculating analytic gradient of the SCF energy
 Gradient of SCF Energy
            1           2           3           4           5           6
    1   0.0051301  -0.0463501   0.0058024   0.0637554  -0.0579004   0.0308136
    2   0.0788549  -0.0261751   0.0871993  -0.0422409  -0.0136059  -0.0424271
    3  -0.0397106   0.0429829  -0.0025232  -0.0148972  -0.0274526  -0.0083363
            7           8           9          10          11          12
    1   0.0015944   0.0002814  -0.0476397   0.0641818  -0.0058532  -0.0129566
    2  -0.0099680  -0.0892827   0.0059734  -0.0000932   0.0609696  -0.0487395
    3   0.0554931   0.0406415  -0.0604821  -0.0225628   0.0446007  -0.0200086
           13          14          15          16          17          18
    1   0.0432499   0.0272593   0.0097229  -0.0473832  -0.0486020   0.0148940
    2  -0.0061122  -0.0471387   0.0540755  -0.0154607  -0.0039358   0.0581072
    3   0.0103291  -0.0131521   0.0260020  -0.0157950   0.0130869  -0.0082157
 Max gradient component =       8.928E-02
 RMS gradient           =       3.925E-02
 Computing fast CPCM-ISWIG gradient
 Updating gradient with PCM contributions...
 -- total gradient after adding PCM contribution --
---------------------------------------------------
  Atom         X              Y              Z     
---------------------------------------------------
   1       0.000530       0.000167       0.000107
   2       0.000000       0.000001      -0.000002
   3       0.000001       0.000001       0.000000
   4      -0.000004       0.000001      -0.000002
   5       0.000001       0.000001      -0.000000
   6       0.000002      -0.000001       0.000005
   7      -0.000157      -0.000005      -0.000046
   8      -0.000172      -0.000017       0.000016
   9       0.000003       0.000040      -0.000021
  10      -0.000012      -0.000056       0.000029
  11      -0.000006       0.000010      -0.000011
  12      -0.000186      -0.000135      -0.000081
  13      -0.000000      -0.000001       0.000001
  14       0.000003       0.000001       0.000002
  15      -0.000001      -0.000004       0.000001
  16      -0.000001       0.000002       0.000001
  17      -0.000003      -0.000003      -0.000006
  18       0.000002      -0.000001       0.000005
---------------------------------------------------
 Number of fixed atoms: 0
 Gradient time:  CPU 685.71 s  wall 52.16 s
 ----------------------------------------------------------------
             Standard Nuclear Orientation (Angstroms)
    I     Atom           X                Y                Z
 ----------------------------------------------------------------
    1      C      -2.8598495558     1.2067830004     0.1650521128
    2      C       0.7233869631     0.4713561358     0.3733310110
    3      C       0.5026579567    -0.5618640726    -0.4322614435
    4      H      -0.0672869194     1.1736241922     0.6234325250
    5      H       1.7032141674     0.6351949167     0.8138859337
    6      H       3.4735256479     1.7372753438    -0.7607152782
    7      O      -2.9702182449     1.1864567810    -1.0893165834
    8      C      -3.0972907023    -0.1039574054     0.9194435435
    9      H      -2.4208325321    -0.1872298332     1.7734465132
   10      H      -4.1225751679    -0.1011467851     1.3054377618
   11      H      -2.9786944538    -0.9691544189     0.2642853981
   12      O      -2.5881172843     2.2245872685     0.8570147165
   13      H      -0.4856514307    -0.7333317435    -0.8537952754
   14      C       1.5490692601    -1.5975523632    -0.7836206484
   15      O       1.1286959316    -2.6529240494    -1.3135402445
   16      O       2.7593056734    -1.3457590054    -0.5159054359
   17      O       4.0628211923     0.9900541305    -0.9087414532
   18      H       3.5144395902     0.1867406283    -0.7349256637
 ----------------------------------------------------------------
 Nuclear Repulsion Energy =   478.2717128007 hartrees
 There are       40 alpha and       40 beta electrons
 Discretize the solute cavity surface with Lebedev spheres
	Using 110 Lebedev grid points for each H atom
	Using 110 Lebedev grid points for other atoms
	Atomic van der Waals radii will be scaled by 1.20
 Remove points where switching function is < 1.0e-08
 Keep 1213 surface tesserae and discard 767 interior tesserae
 Molecular Surface Area = 223.269 Angst**2
 Requested basis set is def2-TZVPD
 There are 175 shells and 457 basis functions
 A cutoff of  1.0D-14 yielded  13273 shell pairs
 There are     90225 function pairs (    114417 Cartesian)
 Smallest overlap matrix eigenvalue = 3.33E-06
 Guess MOs from SCF MO coefficient file
 Reading MOs from coefficient file
 Reading MOs from coefficient file
 Long-range K will be added via erf
 Coulomb attenuation parameter = 0.3 bohr**(-1)
 A restricted hybrid HF-DFT SCF calculation will be
 performed using Pulay DIIS extrapolation
 Polarizable Continuum solvation model will be applied
 Exchange:     0.1670 Hartree-Fock + 1.0000 wB97X-V + LR-HF
 Correlation:  1.0000 wB97X-V
 Using SG-2 standard quadrature grid
 Nonlocal Correlation:  VV10 with C = 0.0100 and b = 6.00
 Grid used for NLC:  SG-1 standard quadrature
 SCF converges when DIIS error is below 1.0E-08
 using 16 threads for integral computing
 -------------------------------------------------------
 OpenMP Integral computing Module                
 Release: version 1.0, May 2013, Q-Chem Inc. Pittsburgh 
 -------------------------------------------------------
 using 16 threads for integral computing
 -------------------------------------------------------
 OpenMP Integral computing Module                
 Release: version 1.0, May 2013, Q-Chem Inc. Pittsburgh 
 -------------------------------------------------------
 -------------------------------------------------------
 OpenMP BLAS3 based DFT computing Module                
 Release: version 1.0, May 2013, Q-Chem Inc. Pittsburgh 
 -------------------------------------------------------
 -------------------------------------------------------
 OpenMP BLAS3 based DFT computing Module                
 Release: version 1.0, May 2013, Q-Chem Inc. Pittsburgh 
 -------------------------------------------------------
 -------------------------------------------------------
 OpenMP BLAS3 based DFT computing Module                
 Release: version 1.0, May 2013, Q-Chem Inc. Pittsburgh 
 -------------------------------------------------------
 ---------------------------------------
  Cycle       Energy         DIIS Error
 ---------------------------------------
    1    -571.5465446586      3.50E-04
    2    -571.8310890307      3.69E-04
    3    -571.8360575051      1.70E-04
    4    -571.8368847208      1.25E-04
    5    -571.8374183836      9.39E-05
    6    -571.8376938354      7.36E-05
    7    -571.8379328286      4.99E-05
    8    -571.8380784942      2.68E-05
    9    -571.8381330914      7.92E-06
   10    -571.8381380075      1.94E-06
   11    -571.8381383142      2.27E-07
   12    -571.8381383184      4.20E-08
   13    -571.8381383185      1.41E-08
   14    -571.8381383185      7.72E-09 Convergence criterion met
 ---------------------------------------

************** Final PCM Free Energy Summary **************
 G_electrostatic  =      -0.29136522 hartree =    -182.83443713 kcal/mol
 G_cavitation     =       0.00000000 hartree =       0.00000000 kcal/mol
 G_dispersion     =       0.00000000 hartree =       0.00000000 kcal/mol
 G_repulsion      =       0.00000000 hartree =       0.00000000 kcal/mol
 --------------------------------------------------
 Non-electrostatic Free Energy =       0.00000000 hartree =       0.00000000 kcal/mol
 Total                         =      -0.29136522 hartree =    -182.83443713 kcal/mol
 --------------------------------------------------
 SCF Energy (H0 + V/2)                       =    -571.83813832 
 Solute Internal Energy (H0)                 =    -571.54677310 
 Total Free Energy (H0 + V/2 + non-elec)     =    -571.83813832 hartree
                                             = -358833.84767387 kcal/mol
***********************************************************

 SCF time:  CPU 2971.06 s  wall 218.11 s
 SCF   energy in the final basis set = -571.83813832
 Total energy in the final basis set = -571.83813832
 
 --------------------------------------------------------------
 
                    Orbital Energies (a.u.)
 --------------------------------------------------------------
 
 Alpha MOs
 -- Occupied --
-19.189 -19.153 -19.151 -19.140 -19.139 -10.354 -10.343 -10.263
-10.262 -10.242  -1.157  -1.143  -1.112  -1.062  -1.049  -0.896
 -0.832  -0.724  -0.633  -0.612  -0.604  -0.568  -0.548  -0.533
 -0.529  -0.528  -0.519  -0.506  -0.480  -0.476  -0.466  -0.450
 -0.410  -0.370  -0.359  -0.355  -0.347  -0.342  -0.338  -0.330
 -- Virtual --
  0.057   0.060   0.071   0.078   0.089   0.098   0.099   0.105
  0.115   0.121   0.126   0.133   0.138   0.143   0.148   0.155
  0.162   0.166   0.172   0.177   0.184   0.186   0.197   0.203
  0.213   0.218   0.223   0.227   0.233   0.238   0.246   0.255
  0.258   0.270   0.275   0.285   0.289   0.294   0.307   0.314
  0.320   0.322   0.326   0.333   0.343   0.345   0.355   0.359
  0.361   0.367   0.372   0.376   0.380   0.386   0.388   0.394
  0.404   0.406   0.414   0.417   0.420   0.423   0.426   0.439
  0.447   0.450   0.456   0.460   0.465   0.469   0.476   0.482
  0.490   0.492   0.501   0.504   0.507   0.517   0.522   0.527
  0.532   0.541   0.548   0.553   0.554   0.562   0.566   0.570
  0.576   0.582   0.587   0.596   0.607   0.609   0.617   0.627
  0.634   0.636   0.645   0.651   0.657   0.663   0.672   0.676
  0.681   0.688   0.694   0.698   0.704   0.717   0.722   0.724
  0.731   0.741   0.745   0.750   0.755   0.762   0.774   0.783
  0.792   0.798   0.801   0.804   0.820   0.828   0.838   0.845
  0.849   0.853   0.859   0.870   0.871   0.874   0.881   0.890
  0.900   0.911   0.913   0.920   0.936   0.949   0.957   0.974
  0.982   0.989   1.002   1.008   1.022   1.035   1.043   1.054
  1.059   1.074   1.097   1.102   1.109   1.121   1.135   1.149
  1.158   1.171   1.181   1.190   1.211   1.222   1.237   1.244
  1.278   1.306   1.323   1.327   1.351   1.354   1.364   1.379
  1.384   1.396   1.402   1.416   1.449   1.474   1.499   1.524
  1.532   1.565   1.592   1.633   1.670   1.688   1.722   1.739
  1.757   1.767   1.790   1.858   1.870   1.889   1.900   1.903
  1.915   1.930   1.942   1.947   1.960   1.964   1.969   1.974
  1.989   1.990   2.011   2.040   2.066   2.083   2.091   2.111
  2.121   2.127   2.132   2.149   2.169   2.174   2.194   2.223
  2.233   2.247   2.272   2.279   2.293   2.306   2.331   2.342
  2.357   2.368   2.415   2.435   2.442   2.469   2.476   2.477
  2.509   2.518   2.531   2.563   2.584   2.595   2.606   2.620
  2.653   2.679   2.684   2.700   2.726   2.747   2.777   2.811
  2.825   2.841   2.863   2.881   2.901   2.919   2.928   2.935
  2.948   2.975   2.988   2.998   3.073   3.083   3.091   3.111
  3.125   3.149   3.151   3.204   3.212   3.233   3.244   3.254
  3.271   3.286   3.306   3.328   3.336   3.343   3.369   3.373
  3.381   3.400   3.425   3.431   3.438   3.445   3.447   3.462
  3.479   3.494   3.533   3.556   3.560   3.596   3.603   3.620
  3.632   3.643   3.651   3.666   3.675   3.679   3.723   3.742
  3.746   3.761   3.769   3.778   3.802   3.842   3.873   3.920
  3.967   4.000   4.038   4.054   4.092   4.194   4.201   4.206
  4.263   4.308   4.339   4.389   4.516   4.573   4.601   4.637
  4.684   4.750   4.776   4.821   4.842   4.859   4.927   4.969
  5.002   5.013   5.233   5.240   5.312   5.319   5.337   5.349
  5.357   5.358   5.367   5.378   5.381   5.497   5.498   5.542
  5.593   5.633   5.701   5.715   5.716   5.733   5.773   5.787
  5.986   6.023   6.178   6.244   6.258   6.302   6.308   6.317
  6.365   6.460   6.596   6.615   6.618   6.640   6.655   6.666
  6.675   6.708   6.726   6.753   6.760   6.771   6.781   6.926
  6.962   6.994   7.018   7.047   7.057   7.141   7.219   7.249
  7.285   7.345   7.363   7.398   7.405   7.412   7.468  22.617
 22.647  23.046  23.679  23.721  44.017  44.345  44.396  44.405
 44.433
 --------------------------------------------------------------
 
          Ground-State Mulliken Net Atomic Charges

     Atom                 Charge (a.u.)
  ----------------------------------------
      1 C                     0.405154
      2 C                    -0.754765
      3 C                     0.326551
      4 H                     0.176208
      5 H                     0.242837
      6 H                     0.341738
      7 O                    -0.708102
      8 C                    -0.574059
      9 H                     0.194777
     10 H                     0.223084
     11 H                     0.198044
     12 O                    -0.711315
     13 H                     0.346501
     14 C                     0.062692
     15 O                    -0.669405
     16 O                    -0.750607
     17 O                    -0.681337
     18 H                     0.332002
  ----------------------------------------
  Sum of atomic charges =    -2.000000

 -----------------------------------------------------------------
                    Cartesian Multipole Moments
 -----------------------------------------------------------------
    Charge (ESU x 10^10)
                -9.6064
    Dipole Moment (Debye)
         X      -0.4804      Y       0.1780      Z       7.0845
       Tot       7.1030
    Quadrupole Moments (Debye-Ang)
        XX    -146.6129     XY      39.4730     YY    -109.0555
        XZ       7.4741     YZ     -11.5440     ZZ     -80.1191
    Octopole Moments (Debye-Ang^2)
       XXX     -83.6037    XXY     -52.9394    XYY      27.4808
       YYY      25.8838    XXZ      80.4106    XYZ      -8.3927
       YYZ      38.6702    XZZ      11.3034    YZZ      -0.0835
       ZZZ      60.0943
    Hexadecapole Moments (Debye-Ang^3)
      XXXX   -3581.4267   XXXY     461.4845   XXYY    -788.7099
      XYYY     541.3412   YYYY   -1160.6752   XXXZ     295.3256
      XXYZ     -34.6011   XYYZ     132.8473   YYYZ    -225.4281
      XXZZ    -600.5684   XYZZ     146.1774   YYZZ    -274.2200
      XZZZ     220.5703   YZZZ    -122.3023   ZZZZ    -378.4026
 -----------------------------------------------------------------
 Calculating analytic gradient of the SCF energy
 Gradient of SCF Energy
            1           2           3           4           5           6
    1   0.0047609  -0.0463323   0.0057285   0.0637567  -0.0578850   0.0308159
    2   0.0783630  -0.0262274   0.0873014  -0.0422994  -0.0136041  -0.0424298
    3  -0.0400143   0.0429703  -0.0025355  -0.0148849  -0.0274529  -0.0083368
            7           8           9          10          11          12
    1   0.0016343   0.0004436  -0.0476450   0.0641831  -0.0058363  -0.0128129
    2  -0.0099270  -0.0891445   0.0058924  -0.0000102   0.0609309  -0.0483785
    3   0.0556425   0.0405744  -0.0604275  -0.0226152   0.0446126  -0.0198041
           13          14          15          16          17          18
    1   0.0432691   0.0272926   0.0097239  -0.0473868  -0.0486050   0.0148948
    2  -0.0061070  -0.0471537   0.0540778  -0.0154583  -0.0039342   0.0581084
    3   0.0103354  -0.0131427   0.0260027  -0.0157954   0.0130880  -0.0082166
 Max gradient component =       8.914E-02
 RMS gradient           =       3.923E-02
 Computing fast CPCM-ISWIG gradient
 Updating gradient with PCM contributions...
 -- total gradient after adding PCM contribution --
---------------------------------------------------
  Atom         X              Y              Z     
---------------------------------------------------
   1      -0.000526      -0.000168      -0.000111
   2       0.000001      -0.000001      -0.000003
   3       0.000000       0.000002       0.000001
   4       0.000005       0.000001      -0.000000
   5      -0.000000       0.000001       0.000000
   6       0.000003      -0.000001       0.000005
   7       0.000153       0.000009       0.000045
   8       0.000184       0.000014      -0.000016
   9      -0.000010      -0.000039       0.000021
  10       0.000005       0.000060      -0.000035
  11      -0.000000      -0.000010       0.000005
  12       0.000187       0.000139       0.000082
  13       0.000000      -0.000001       0.000000
  14       0.000004      -0.000001       0.000002
  15      -0.000002      -0.000002       0.000002
  16      -0.000002       0.000002       0.000001
  17      -0.000004      -0.000003      -0.000006
  18       0.000002      -0.000001       0.000005
---------------------------------------------------
 Number of fixed atoms: 0
 Gradient time:  CPU 679.25 s  wall 51.78 s
 ----------------------------------------------------------------
             Standard Nuclear Orientation (Angstroms)
    I     Atom           X                Y                Z
 ----------------------------------------------------------------
    1      C      -2.8588495558     1.2077830004     0.1650521128
    2      C       0.7233869631     0.4713561358     0.3733310110
    3      C       0.5026579567    -0.5618640726    -0.4322614435
    4      H      -0.0672869194     1.1736241922     0.6234325250
    5      H       1.7032141674     0.6351949167     0.8138859337
    6      H       3.4735256479     1.7372753438    -0.7607152782
    7      O      -2.9702182449     1.1864567810    -1.0893165834
    8      C      -3.0972907023    -0.1039574054     0.9194435435
    9      H      -2.4208325321    -0.1872298332     1.7734465132
   10      H      -4.1225751679    -0.1011467851     1.3054377618
   11      H      -2.9786944538    -0.9691544189     0.2642853981
   12      O      -2.5881172843     2.2245872685     0.8570147165
   13      H      -0.4856514307    -0.7333317435    -0.8537952754
   14      C       1.5490692601    -1.5975523632    -0.7836206484
   15      O       1.1286959316    -2.6529240494    -1.3135402445
   16      O       2.7593056734    -1.3457590054    -0.5159054359
   17      O       4.0628211923     0.9900541305    -0.9087414532
   18      H       3.5144395902     0.1867406283    -0.7349256637
 ----------------------------------------------------------------
 Nuclear Repulsion Energy =   478.2797392122 hartrees
 There are       40 alpha and       40 beta electrons
 Discretize the solute cavity surface with Lebedev spheres
	Using 110 Lebedev grid points for each H atom
	Using 110 Lebedev grid points for other atoms
	Atomic van der Waals radii will be scaled by 1.20
 Remove points where switching function is < 1.0e-08
 Keep 1213 surface tesserae and discard 767 interior tesserae
 Molecular Surface Area = 223.266 Angst**2
 Requested basis set is def2-TZVPD
 There are 175 shells and 457 basis functions
 A cutoff of  1.0D-14 yielded  13273 shell pairs
 There are     90225 function pairs (    114417 Cartesian)
 Smallest overlap matrix eigenvalue = 3.33E-06
 Guess MOs from SCF MO coefficient file
 Reading MOs from coefficient file
 Reading MOs from coefficient file
 Long-range K will be added via erf
 Coulomb attenuation parameter = 0.3 bohr**(-1)
 A restricted hybrid HF-DFT SCF calculation will be
 performed using Pulay DIIS extrapolation
 Polarizable Continuum solvation model will be applied
 Exchange:     0.1670 Hartree-Fock + 1.0000 wB97X-V + LR-HF
 Correlation:  1.0000 wB97X-V
 Using SG-2 standard quadrature grid
 Nonlocal Correlation:  VV10 with C = 0.0100 and b = 6.00
 Grid used for NLC:  SG-1 standard quadrature
 SCF converges when DIIS error is below 1.0E-08
 using 16 threads for integral computing
 -------------------------------------------------------
 OpenMP Integral computing Module                
 Release: version 1.0, May 2013, Q-Chem Inc. Pittsburgh 
 -------------------------------------------------------
 using 16 threads for integral computing
 -------------------------------------------------------
 OpenMP Integral computing Module                
 Release: version 1.0, May 2013, Q-Chem Inc. Pittsburgh 
 -------------------------------------------------------
 -------------------------------------------------------
 OpenMP BLAS3 based DFT computing Module                
 Release: version 1.0, May 2013, Q-Chem Inc. Pittsburgh 
 -------------------------------------------------------
 -------------------------------------------------------
 OpenMP BLAS3 based DFT computing Module                
 Release: version 1.0, May 2013, Q-Chem Inc. Pittsburgh 
 -------------------------------------------------------
 -------------------------------------------------------
 OpenMP BLAS3 based DFT computing Module                
 Release: version 1.0, May 2013, Q-Chem Inc. Pittsburgh 
 -------------------------------------------------------
 ---------------------------------------
  Cycle       Energy         DIIS Error
 ---------------------------------------
    1    -571.5475482520      3.51E-04
    2    -571.8310732100      3.69E-04
    3    -571.8360568474      1.70E-04
    4    -571.8368863338      1.25E-04
    5    -571.8374207859      9.37E-05
    6    -571.8376894893      7.39E-05
    7    -571.8379289147      5.03E-05
    8    -571.8380752045      2.74E-05
    9    -571.8381317376      8.45E-06
   10    -571.8381373789      1.90E-06
   11    -571.8381376732      1.89E-07
   12    -571.8381376761      4.56E-08
   13    -571.8381376762      1.77E-08
   14    -571.8381376762      6.79E-09 Convergence criterion met
 ---------------------------------------

************** Final PCM Free Energy Summary **************
 G_electrostatic  =      -0.29131802 hartree =    -182.80481691 kcal/mol
 G_cavitation     =       0.00000000 hartree =       0.00000000 kcal/mol
 G_dispersion     =       0.00000000 hartree =       0.00000000 kcal/mol
 G_repulsion      =       0.00000000 hartree =       0.00000000 kcal/mol
 --------------------------------------------------
 Non-electrostatic Free Energy =       0.00000000 hartree =       0.00000000 kcal/mol
 Total                         =      -0.29131802 hartree =    -182.80481691 kcal/mol
 --------------------------------------------------
 SCF Energy (H0 + V/2)                       =    -571.83813768 
 Solute Internal Energy (H0)                 =    -571.54681966 
 Total Free Energy (H0 + V/2 + non-elec)     =    -571.83813768 hartree
                                             = -358833.84727083 kcal/mol
***********************************************************

 SCF time:  CPU 2967.18 s  wall 217.78 s
 SCF   energy in the final basis set = -571.83813768
 Total energy in the final basis set = -571.83813768
 
 --------------------------------------------------------------
 
                    Orbital Energies (a.u.)
 --------------------------------------------------------------
 
 Alpha MOs
 -- Occupied --
-19.189 -19.153 -19.151 -19.140 -19.139 -10.354 -10.342 -10.263
-10.262 -10.242  -1.157  -1.143  -1.112  -1.062  -1.049  -0.896
 -0.831  -0.724  -0.633  -0.612  -0.604  -0.568  -0.548  -0.533
 -0.529  -0.528  -0.519  -0.505  -0.480  -0.476  -0.466  -0.451
 -0.410  -0.370  -0.359  -0.355  -0.347  -0.342  -0.338  -0.330
 -- Virtual --
  0.057   0.060   0.071   0.078   0.089   0.098   0.099   0.105
  0.115   0.121   0.126   0.133   0.138   0.143   0.148   0.155
  0.162   0.166   0.172   0.177   0.184   0.186   0.197   0.203
  0.213   0.218   0.223   0.227   0.233   0.238   0.246   0.255
  0.258   0.270   0.275   0.285   0.289   0.294   0.307   0.314
  0.320   0.322   0.326   0.333   0.343   0.345   0.355   0.359
  0.361   0.367   0.372   0.376   0.380   0.386   0.388   0.394
  0.404   0.406   0.414   0.417   0.420   0.423   0.426   0.439
  0.447   0.450   0.456   0.460   0.465   0.469   0.476   0.482
  0.490   0.492   0.501   0.504   0.507   0.517   0.522   0.527
  0.532   0.541   0.548   0.553   0.554   0.562   0.566   0.570
  0.577   0.582   0.587   0.596   0.607   0.609   0.617   0.627
  0.634   0.636   0.645   0.651   0.657   0.663   0.672   0.676
  0.681   0.688   0.694   0.698   0.704   0.717   0.722   0.724
  0.731   0.741   0.745   0.750   0.755   0.762   0.774   0.783
  0.792   0.798   0.801   0.804   0.820   0.828   0.838   0.845
  0.849   0.853   0.859   0.870   0.871   0.874   0.881   0.890
  0.900   0.911   0.914   0.920   0.936   0.949   0.957   0.974
  0.982   0.989   1.002   1.008   1.022   1.035   1.043   1.054
  1.059   1.074   1.097   1.102   1.109   1.121   1.135   1.149
  1.158   1.171   1.181   1.190   1.211   1.222   1.237   1.244
  1.278   1.306   1.323   1.327   1.351   1.354   1.364   1.379
  1.384   1.396   1.402   1.416   1.449   1.474   1.499   1.524
  1.532   1.565   1.592   1.633   1.670   1.688   1.722   1.739
  1.757   1.767   1.790   1.858   1.870   1.889   1.900   1.903
  1.915   1.930   1.942   1.947   1.960   1.964   1.969   1.974
  1.989   1.990   2.011   2.040   2.066   2.083   2.091   2.111
  2.121   2.127   2.132   2.149   2.169   2.174   2.194   2.223
  2.233   2.247   2.272   2.279   2.292   2.305   2.331   2.341
  2.357   2.368   2.415   2.435   2.442   2.469   2.476   2.477
  2.509   2.518   2.531   2.562   2.584   2.595   2.606   2.620
  2.653   2.679   2.684   2.700   2.726   2.747   2.777   2.811
  2.825   2.841   2.863   2.881   2.902   2.919   2.928   2.935
  2.948   2.975   2.988   2.998   3.073   3.083   3.091   3.111
  3.125   3.149   3.151   3.204   3.212   3.233   3.244   3.254
  3.271   3.286   3.306   3.328   3.336   3.343   3.369   3.373
  3.382   3.400   3.425   3.431   3.438   3.445   3.447   3.462
  3.479   3.494   3.533   3.556   3.560   3.596   3.603   3.621
  3.632   3.643   3.651   3.665   3.675   3.679   3.723   3.742
  3.746   3.761   3.770   3.778   3.802   3.842   3.873   3.920
  3.966   4.000   4.038   4.054   4.091   4.194   4.201   4.206
  4.263   4.308   4.339   4.389   4.516   4.573   4.601   4.637
  4.684   4.750   4.776   4.820   4.841   4.858   4.927   4.969
  5.002   5.013   5.233   5.240   5.312   5.319   5.337   5.349
  5.357   5.358   5.367   5.378   5.381   5.497   5.498   5.542
  5.593   5.633   5.702   5.715   5.716   5.733   5.774   5.787
  5.987   6.023   6.178   6.244   6.260   6.303   6.308   6.317
  6.365   6.460   6.596   6.617   6.618   6.640   6.655   6.666
  6.675   6.708   6.725   6.753   6.760   6.771   6.781   6.927
  6.962   6.993   7.018   7.047   7.057   7.141   7.218   7.249
  7.285   7.345   7.365   7.398   7.406   7.412   7.468  22.617
 22.646  23.046  23.682  23.721  44.017  44.345  44.396  44.405
 44.433
 --------------------------------------------------------------
 
          Ground-State Mulliken Net Atomic Charges

     Atom                 Charge (a.u.)
  ----------------------------------------
      1 C                     0.405114
      2 C                    -0.754843
      3 C                     0.326816
      4 H                     0.176085
      5 H                     0.242839
      6 H                     0.341739
      7 O                    -0.708439
      8 C                    -0.574549
      9 H                     0.194628
     10 H                     0.223087
     11 H                     0.198038
     12 O                    -0.710288
     13 H                     0.346549
     14 C                     0.062564
     15 O                    -0.669400
     16 O                    -0.750605
     17 O                    -0.681336
     18 H                     0.332002
  ----------------------------------------
  Sum of atomic charges =    -2.000000

 -----------------------------------------------------------------
                    Cartesian Multipole Moments
 -----------------------------------------------------------------
    Charge (ESU x 10^10)
                -9.6064
    Dipole Moment (Debye)
         X      -0.4766      Y       0.1896      Z       7.0884
       Tot       7.1069
    Quadrupole Moments (Debye-Ang)
        XX    -146.6337     XY      39.4449     YY    -109.0283
        XZ       7.4647     YZ     -11.5270     ZZ     -80.1217
    Octopole Moments (Debye-Ang^2)
       XXX     -83.5221    XXY     -52.8694    XYY      27.4063
       YYY      25.9532    XXZ      80.4352    XYZ      -8.4397
       YYZ      38.7042    XZZ      11.3059    YZZ      -0.0734
       ZZZ      60.1067
    Hexadecapole Moments (Debye-Ang^3)
      XXXX   -3581.6723   XXXY     461.2894   XXYY    -788.4916
      XYYY     541.1345   YYYY   -1160.5145   XXXZ     295.2563
      XXYZ     -34.4570   XYYZ     132.7486   YYYZ    -225.3327
      XXZZ    -600.5625   XYZZ     146.1438   YYZZ    -274.2034
      XZZZ     220.5387   YZZZ    -122.2356   ZZZZ    -378.4183
 -----------------------------------------------------------------
 Calculating analytic gradient of the SCF energy
 Gradient of SCF Energy
            1           2           3           4           5           6
    1   0.0051897  -0.0463661   0.0057777   0.0637514  -0.0578884   0.0308136
    2   0.0796838  -0.0262030   0.0872590  -0.0422682  -0.0136036  -0.0424265
    3  -0.0396470   0.0429643  -0.0025233  -0.0148849  -0.0274503  -0.0083360
            7           8           9          10          11          12
    1   0.0016069   0.0002994  -0.0476579   0.0642254  -0.0058529  -0.0130718
    2  -0.0100328  -0.0894906   0.0059511  -0.0000366   0.0609501  -0.0493043
    3   0.0556205   0.0407400  -0.0604610  -0.0226080   0.0446220  -0.0202983
           13          14          15          16          17          18
    1   0.0432716   0.0272755   0.0097219  -0.0473879  -0.0486024   0.0148946
    2  -0.0061146  -0.0471539   0.0540792  -0.0154604  -0.0039371   0.0581084
    3   0.0103335  -0.0131509   0.0260043  -0.0157959   0.0130868  -0.0082159
 Max gradient component =       8.949E-02
 RMS gradient           =       3.932E-02
 Computing fast CPCM-ISWIG gradient
 Updating gradient with PCM contributions...
 -- total gradient after adding PCM contribution --
---------------------------------------------------
  Atom         X              Y              Z     
---------------------------------------------------
   1       0.000170       0.001205       0.000137
   2       0.000001      -0.000000      -0.000002
   3       0.000001       0.000002       0.000001
   4      -0.000000       0.000001      -0.000001
   5       0.000000       0.000000      -0.000000
   6       0.000003      -0.000001       0.000005
   7      -0.000003      -0.000196       0.000088
   8      -0.000005      -0.000283       0.000077
   9      -0.000010       0.000004      -0.000008
  10       0.000001       0.000008      -0.000008
  11      -0.000012      -0.000027       0.000018
  12      -0.000144      -0.000706      -0.000310
  13      -0.000000      -0.000001      -0.000000
  14       0.000004      -0.000001       0.000002
  15      -0.000002      -0.000003       0.000002
  16      -0.000002       0.000002       0.000001
  17      -0.000004      -0.000003      -0.000006
  18       0.000002      -0.000001       0.000005
---------------------------------------------------
 Number of fixed atoms: 0
 Gradient time:  CPU 688.09 s  wall 52.32 s
 ----------------------------------------------------------------
             Standard Nuclear Orientation (Angstroms)
    I     Atom           X                Y                Z
 ----------------------------------------------------------------
    1      C      -2.8588495558     1.2057830004     0.1650521128
    2      C       0.7233869631     0.4713561358     0.3733310110
    3      C       0.5026579567    -0.5618640726    -0.4322614435
    4      H      -0.0672869194     1.1736241922     0.6234325250
    5      H       1.7032141674     0.6351949167     0.8138859337
    6      H       3.4735256479     1.7372753438    -0.7607152782
    7      O      -2.9702182449     1.1864567810    -1.0893165834
    8      C      -3.0972907023    -0.1039574054     0.9194435435
    9      H      -2.4208325321    -0.1872298332     1.7734465132
   10      H      -4.1225751679    -0.1011467851     1.3054377618
   11      H      -2.9786944538    -0.9691544189     0.2642853981
   12      O      -2.5881172843     2.2245872685     0.8570147165
   13      H      -0.4856514307    -0.7333317435    -0.8537952754
   14      C       1.5490692601    -1.5975523632    -0.7836206484
   15      O       1.1286959316    -2.6529240494    -1.3135402445
   16      O       2.7593056734    -1.3457590054    -0.5159054359
   17      O       4.0628211923     0.9900541305    -0.9087414532
   18      H       3.5144395902     0.1867406283    -0.7349256637
 ----------------------------------------------------------------
 Nuclear Repulsion Energy =   478.2758680222 hartrees
 There are       40 alpha and       40 beta electrons
 Discretize the solute cavity surface with Lebedev spheres
	Using 110 Lebedev grid points for each H atom
	Using 110 Lebedev grid points for other atoms
	Atomic van der Waals radii will be scaled by 1.20
 Remove points where switching function is < 1.0e-08
 Keep 1213 surface tesserae and discard 767 interior tesserae
 Molecular Surface Area = 223.259 Angst**2
 Requested basis set is def2-TZVPD
 There are 175 shells and 457 basis functions
 A cutoff of  1.0D-14 yielded  13273 shell pairs
 There are     90225 function pairs (    114417 Cartesian)
 Smallest overlap matrix eigenvalue = 3.33E-06
 Guess MOs from SCF MO coefficient file
 Reading MOs from coefficient file
 Reading MOs from coefficient file
 Long-range K will be added via erf
 Coulomb attenuation parameter = 0.3 bohr**(-1)
 A restricted hybrid HF-DFT SCF calculation will be
 performed using Pulay DIIS extrapolation
 Polarizable Continuum solvation model will be applied
 Exchange:     0.1670 Hartree-Fock + 1.0000 wB97X-V + LR-HF
 Correlation:  1.0000 wB97X-V
 Using SG-2 standard quadrature grid
 Nonlocal Correlation:  VV10 with C = 0.0100 and b = 6.00
 Grid used for NLC:  SG-1 standard quadrature
 SCF converges when DIIS error is below 1.0E-08
 using 16 threads for integral computing
 -------------------------------------------------------
 OpenMP Integral computing Module                
 Release: version 1.0, May 2013, Q-Chem Inc. Pittsburgh 
 -------------------------------------------------------
 using 16 threads for integral computing
 -------------------------------------------------------
 OpenMP Integral computing Module                
 Release: version 1.0, May 2013, Q-Chem Inc. Pittsburgh 
 -------------------------------------------------------
 -------------------------------------------------------
 OpenMP BLAS3 based DFT computing Module                
 Release: version 1.0, May 2013, Q-Chem Inc. Pittsburgh 
 -------------------------------------------------------
 -------------------------------------------------------
 OpenMP BLAS3 based DFT computing Module                
 Release: version 1.0, May 2013, Q-Chem Inc. Pittsburgh 
 -------------------------------------------------------
 -------------------------------------------------------
 OpenMP BLAS3 based DFT computing Module                
 Release: version 1.0, May 2013, Q-Chem Inc. Pittsburgh 
 -------------------------------------------------------
 ---------------------------------------
  Cycle       Energy         DIIS Error
 ---------------------------------------
    1    -571.5455172886      3.50E-04
    2    -571.8310983178      3.68E-04
    3    -571.8360569975      1.70E-04
    4    -571.8368845464      1.25E-04
    5    -571.8374320216      9.29E-05
    6    -571.8377387656      6.97E-05
    7    -571.8379990664      4.09E-05
    8    -571.8381127090      1.72E-05
    9    -571.8381364904      3.74E-06
   10    -571.8381376099      8.87E-07
   11    -571.8381376737      1.17E-07
   12    -571.8381376748      3.95E-08
   13    -571.8381376749      1.22E-08
   14    -571.8381376749      6.43E-09 Convergence criterion met
 ---------------------------------------

************** Final PCM Free Energy Summary **************
 G_electrostatic  =      -0.29139929 hartree =    -182.85581342 kcal/mol
 G_cavitation     =       0.00000000 hartree =       0.00000000 kcal/mol
 G_dispersion     =       0.00000000 hartree =       0.00000000 kcal/mol
 G_repulsion      =       0.00000000 hartree =       0.00000000 kcal/mol
 --------------------------------------------------
 Non-electrostatic Free Energy =       0.00000000 hartree =       0.00000000 kcal/mol
 Total                         =      -0.29139929 hartree =    -182.85581342 kcal/mol
 --------------------------------------------------
 SCF Energy (H0 + V/2)                       =    -571.83813767 
 Solute Internal Energy (H0)                 =    -571.54673839 
 Total Free Energy (H0 + V/2 + non-elec)     =    -571.83813767 hartree
                                             = -358833.84727001 kcal/mol
***********************************************************

 SCF time:  CPU 3119.93 s  wall 227.35 s
 SCF   energy in the final basis set = -571.83813767
 Total energy in the final basis set = -571.83813767
 
 --------------------------------------------------------------
 
                    Orbital Energies (a.u.)
 --------------------------------------------------------------
 
 Alpha MOs
 -- Occupied --
-19.189 -19.153 -19.151 -19.140 -19.139 -10.354 -10.343 -10.263
-10.262 -10.242  -1.157  -1.143  -1.112  -1.062  -1.048  -0.896
 -0.832  -0.724  -0.633  -0.612  -0.604  -0.568  -0.548  -0.533
 -0.529  -0.528  -0.519  -0.506  -0.480  -0.476  -0.466  -0.450
 -0.410  -0.370  -0.359  -0.355  -0.347  -0.342  -0.338  -0.330
 -- Virtual --
  0.057   0.060   0.071   0.078   0.089   0.098   0.099   0.105
  0.115   0.121   0.126   0.133   0.139   0.143   0.148   0.155
  0.162   0.166   0.172   0.177   0.184   0.186   0.197   0.203
  0.213   0.218   0.223   0.227   0.233   0.238   0.246   0.255
  0.258   0.270   0.275   0.285   0.289   0.294   0.307   0.314
  0.320   0.322   0.326   0.333   0.343   0.345   0.355   0.359
  0.361   0.367   0.372   0.376   0.380   0.386   0.388   0.394
  0.404   0.406   0.414   0.417   0.420   0.423   0.426   0.439
  0.447   0.450   0.456   0.460   0.465   0.469   0.476   0.482
  0.490   0.492   0.501   0.504   0.507   0.517   0.522   0.527
  0.532   0.541   0.548   0.553   0.554   0.562   0.566   0.570
  0.576   0.582   0.587   0.596   0.607   0.609   0.617   0.627
  0.634   0.636   0.645   0.651   0.657   0.663   0.672   0.676
  0.681   0.688   0.694   0.698   0.704   0.717   0.722   0.724
  0.731   0.741   0.745   0.750   0.754   0.762   0.774   0.783
  0.792   0.798   0.801   0.804   0.820   0.828   0.838   0.845
  0.849   0.853   0.859   0.870   0.871   0.874   0.881   0.890
  0.900   0.911   0.913   0.920   0.936   0.949   0.957   0.974
  0.982   0.989   1.002   1.008   1.022   1.035   1.043   1.054
  1.059   1.074   1.097   1.102   1.109   1.121   1.135   1.149
  1.158   1.172   1.181   1.190   1.211   1.222   1.237   1.244
  1.278   1.306   1.323   1.327   1.351   1.354   1.364   1.379
  1.385   1.396   1.402   1.416   1.449   1.474   1.499   1.524
  1.532   1.565   1.592   1.633   1.670   1.688   1.722   1.739
  1.757   1.767   1.790   1.858   1.870   1.889   1.900   1.903
  1.915   1.930   1.942   1.947   1.960   1.964   1.969   1.974
  1.989   1.990   2.011   2.040   2.066   2.083   2.091   2.111
  2.121   2.127   2.132   2.149   2.169   2.174   2.194   2.223
  2.233   2.247   2.272   2.279   2.293   2.306   2.331   2.342
  2.358   2.368   2.415   2.435   2.442   2.469   2.476   2.477
  2.508   2.518   2.531   2.563   2.584   2.595   2.607   2.620
  2.653   2.679   2.684   2.700   2.726   2.747   2.777   2.811
  2.825   2.841   2.863   2.881   2.902   2.919   2.928   2.936
  2.948   2.975   2.988   2.998   3.073   3.083   3.091   3.111
  3.125   3.149   3.151   3.204   3.212   3.233   3.244   3.254
  3.271   3.286   3.306   3.328   3.336   3.343   3.369   3.373
  3.382   3.400   3.425   3.430   3.438   3.445   3.447   3.462
  3.479   3.494   3.533   3.556   3.560   3.596   3.603   3.620
  3.631   3.643   3.651   3.666   3.675   3.679   3.723   3.742
  3.747   3.761   3.769   3.778   3.802   3.843   3.873   3.921
  3.966   4.000   4.038   4.054   4.092   4.194   4.201   4.206
  4.263   4.308   4.339   4.389   4.516   4.573   4.601   4.637
  4.684   4.750   4.776   4.821   4.842   4.859   4.927   4.969
  5.002   5.013   5.233   5.240   5.312   5.319   5.337   5.349
  5.357   5.358   5.367   5.378   5.381   5.496   5.498   5.542
  5.593   5.633   5.700   5.715   5.716   5.733   5.773   5.787
  5.985   6.023   6.178   6.244   6.257   6.302   6.308   6.317
  6.365   6.460   6.596   6.614   6.618   6.640   6.655   6.666
  6.675   6.708   6.726   6.753   6.760   6.771   6.781   6.925
  6.962   6.994   7.018   7.046   7.057   7.141   7.219   7.249
  7.285   7.345   7.362   7.398   7.405   7.412   7.468  22.617
 22.647  23.046  23.678  23.721  44.017  44.345  44.396  44.405
 44.433
 --------------------------------------------------------------
 
          Ground-State Mulliken Net Atomic Charges

     Atom                 Charge (a.u.)
  ----------------------------------------
      1 C                     0.405023
      2 C                    -0.754728
      3 C                     0.326648
      4 H                     0.176178
      5 H                     0.242812
      6 H                     0.341739
      7 O                    -0.708020
      8 C                    -0.573493
      9 H                     0.194703
     10 H                     0.223179
     11 H                     0.198059
     12 O                    -0.711850
     13 H                     0.346518
     14 C                     0.062573
     15 O                    -0.669405
     16 O                    -0.750602
     17 O                    -0.681337
     18 H                     0.332003
  ----------------------------------------
  Sum of atomic charges =    -2.000000

 -----------------------------------------------------------------
                    Cartesian Multipole Moments
 -----------------------------------------------------------------
    Charge (ESU x 10^10)
                -9.6064
    Dipole Moment (Debye)
         X      -0.4809      Y       0.1706      Z       7.0835
       Tot       7.1019
    Quadrupole Moments (Debye-Ang)
        XX    -146.6084     XY      39.4947     YY    -109.0716
        XZ       7.4745     YZ     -11.5528     ZZ     -80.1178
    Octopole Moments (Debye-Ang^2)
       XXX     -83.6472    XXY     -53.0068    XYY      27.5183
       YYY      25.8536    XXZ      80.4154    XYZ      -8.3678
       YYZ      38.6536    XZZ      11.2867    YZZ      -0.0865
       ZZZ      60.0914
    Hexadecapole Moments (Debye-Ang^3)
      XXXX   -3581.0658   XXXY     461.6756   XXYY    -788.7920
      XYYY     541.3956   YYYY   -1160.7096   XXXZ     295.2834
      XXYZ     -34.6816   XYYZ     132.8863   YYYZ    -225.4693
      XXZZ    -600.4780   XYZZ     146.1731   YYZZ    -274.2200
      XZZZ     220.5671   YZZZ    -122.3359   ZZZZ    -378.3967
 -----------------------------------------------------------------
 Calculating analytic gradient of the SCF energy
 Gradient of SCF Energy
            1           2           3           4           5           6
    1   0.0047024  -0.0463166   0.0057531   0.0637613  -0.0578974   0.0308161
    2   0.0775358  -0.0261994   0.0872421  -0.0422725  -0.0136065  -0.0424307
    3  -0.0400744   0.0429893  -0.0025358  -0.0148973  -0.0274553  -0.0083372
            7           8           9          10          11          12
    1   0.0016218   0.0004260  -0.0476272   0.0641400  -0.0058365  -0.0126993
    2  -0.0098620  -0.0889352   0.0059147  -0.0000668   0.0609510  -0.0478175
    3   0.0555155   0.0404752  -0.0604490  -0.0225701   0.0445915  -0.0195175
           13          14          15          16          17          18
    1   0.0432477   0.0272766   0.0097249  -0.0473824  -0.0486049   0.0148944
    2  -0.0061046  -0.0471390   0.0540745  -0.0154586  -0.0039328   0.0581075
    3   0.0103311  -0.0131438   0.0260006  -0.0157946   0.0130881  -0.0082164
 Max gradient component =       8.894E-02
 RMS gradient           =       3.916E-02
 Computing fast CPCM-ISWIG gradient
 Updating gradient with PCM contributions...
 -- total gradient after adding PCM contribution --
---------------------------------------------------
  Atom         X              Y              Z     
---------------------------------------------------
   1      -0.000165      -0.001204      -0.000137
   2      -0.000000      -0.000001      -0.000003
   3      -0.000000       0.000001       0.000000
   4       0.000002      -0.000000      -0.000001
   5       0.000000       0.000001       0.000000
   6       0.000002      -0.000001       0.000005
   7      -0.000001       0.000199      -0.000088
   8       0.000018       0.000281      -0.000077
   9       0.000002      -0.000002       0.000008
  10      -0.000007      -0.000004       0.000003
  11       0.000007       0.000028      -0.000024
  12       0.000143       0.000706       0.000309
  13       0.000000      -0.000001       0.000002
  14       0.000004       0.000001       0.000002
[...]
 C         -0.070 -0.176  0.408    0.179 -0.197 -0.050    0.000 -0.002  0.003
 O          0.025  0.039 -0.095   -0.172 -0.147 -0.093   -0.000 -0.000 -0.001
 O         -0.019  0.039 -0.098    0.194  0.149  0.079    0.001  0.001 -0.000
 O         -0.000 -0.000 -0.002   -0.005 -0.010  0.002   -0.000  0.000  0.000
 H          0.030 -0.006  0.054    0.002 -0.008  0.005    0.001 -0.000  0.001
 TransDip  -0.042 -0.081  0.215    0.093 -0.199 -0.065   -0.035 -0.135  0.073

 Mode:                25                     26                     27
 Frequency:      1017.69                1025.30                1048.18
 Force Cnst:      0.7888                 0.9027                 0.7467
 Red. Mass:       1.2927                 1.4575                 1.1535
 IR Active:          YES                    YES                    YES
 IR Intens:       74.996                 21.724                 21.143
 Raman Active:       YES                    YES                    YES
               X      Y      Z        X      Y      Z        X      Y      Z
 C         -0.003 -0.000  0.000    0.003  0.007  0.003   -0.004  0.001  0.000
 C          0.038  0.089 -0.121   -0.000  0.001 -0.001   -0.002 -0.032  0.036
 C         -0.012 -0.021  0.030    0.000 -0.000  0.000    0.006  0.059 -0.083
 H         -0.143 -0.308  0.426    0.000 -0.000  0.003    0.092  0.237 -0.417
 H         -0.207 -0.455  0.629   -0.002 -0.006  0.005   -0.094 -0.133  0.277
 H         -0.002 -0.002 -0.007   -0.000 -0.000  0.000   -0.002 -0.002 -0.002
 O          0.001  0.000  0.001   -0.001 -0.020  0.057    0.001 -0.000 -0.000
 C          0.002  0.000  0.001   -0.032 -0.087 -0.144    0.003 -0.001 -0.000
 H         -0.004 -0.007  0.005    0.034  0.603 -0.123   -0.006 -0.006  0.007
 H          0.000  0.006 -0.005    0.082  0.196  0.158   -0.000  0.010 -0.008
 H         -0.005  0.003 -0.003   -0.016 -0.542  0.467   -0.008 -0.003  0.001
 O          0.000 -0.001 -0.001    0.017  0.065  0.017    0.001 -0.001  0.000
 H         -0.049 -0.090  0.144    0.000 -0.003  0.002   -0.244 -0.364  0.672
 C          0.003  0.007 -0.015    0.000  0.000 -0.000    0.001 -0.007  0.008
 O         -0.001 -0.002  0.002    0.000  0.000  0.000   -0.003 -0.002 -0.005
 O          0.004 -0.001  0.004   -0.000 -0.000  0.000    0.015  0.003  0.001
 O          0.002 -0.000 -0.000    0.000 -0.000  0.000    0.001 -0.000  0.000
 H         -0.017  0.010 -0.013   -0.000  0.000  0.000   -0.008  0.004 -0.004
 TransDip  -0.090 -0.143  0.220   -0.024 -0.071 -0.129   -0.065 -0.051  0.122

 Mode:                28                     29                     30
 Frequency:      1059.74                1070.63                1297.86
 Force Cnst:      1.2938                 1.0529                 1.3195
 Red. Mass:       1.9554                 1.5590                 1.3295
 IR Active:          YES                    YES                    YES
 IR Intens:       16.615                 18.615                 14.584
 Raman Active:       YES                    YES                    YES
               X      Y      Z        X      Y      Z        X      Y      Z
 C          0.220 -0.051 -0.016    0.034 -0.007 -0.003    0.001  0.001 -0.001
 C         -0.017  0.010  0.001    0.094 -0.053 -0.015   -0.097 -0.030 -0.052
 C          0.028 -0.002 -0.000   -0.146  0.017 -0.015    0.103 -0.008  0.029
 H          0.050  0.070  0.041   -0.262 -0.368 -0.239   -0.009  0.028  0.024
 H          0.005 -0.078 -0.012   -0.091  0.420  0.199    0.058 -0.388 -0.270
 H         -0.001 -0.000 -0.000    0.002  0.000 -0.000    0.001  0.001 -0.001
 O         -0.042  0.008  0.009   -0.006  0.001  0.002   -0.000  0.000  0.001
 C         -0.161  0.048  0.007   -0.024  0.007  0.000   -0.000  0.001 -0.000
 H          0.289  0.264 -0.317    0.043  0.041 -0.047   -0.000 -0.001 -0.000
 H         -0.016 -0.581  0.344   -0.001 -0.085  0.052    0.000 -0.006  0.000
 H          0.360  0.187 -0.088    0.053  0.025 -0.011   -0.001 -0.001  0.001
 O         -0.042  0.003  0.002   -0.006  0.000  0.000   -0.000 -0.001 -0.000
 H          0.049 -0.125  0.001   -0.310  0.579  0.132   -0.190  0.721  0.432
 C         -0.002  0.006 -0.004    0.010 -0.030  0.020    0.020 -0.035 -0.010
 O          0.005  0.002  0.002   -0.021 -0.005 -0.011    0.012  0.035  0.017
 O         -0.018 -0.004 -0.003    0.093  0.016  0.012   -0.022 -0.003 -0.005
 O          0.000  0.000 -0.000   -0.000 -0.001  0.000   -0.001 -0.000  0.000
 H         -0.000  0.002  0.001   -0.001 -0.007 -0.006    0.003  0.003  0.005
 TransDip   0.130 -0.006 -0.005   -0.120 -0.056 -0.040    0.027 -0.104 -0.059

 Mode:                31                     32                     33
 Frequency:      1360.24                1396.43                1433.60
 Force Cnst:      1.5186                 2.5485                 4.0607
 Red. Mass:       1.3930                 2.2182                 3.3535
 IR Active:          YES                    YES                    YES
 IR Intens:        9.855                162.339                343.613
 Raman Active:       YES                    YES                    YES
               X      Y      Z        X      Y      Z        X      Y      Z
 C         -0.017 -0.078  0.043   -0.002  0.001  0.004    0.031  0.288 -0.178
 C         -0.000 -0.000 -0.000    0.002  0.006  0.004    0.001  0.001  0.001
 C          0.000  0.000  0.000   -0.041 -0.083 -0.070   -0.001  0.001  0.000
 H         -0.002 -0.002 -0.001    0.404  0.355  0.379   -0.002 -0.002 -0.004
 H          0.001 -0.003 -0.001   -0.210  0.529  0.325    0.002 -0.002 -0.001
 H          0.000  0.000 -0.000   -0.035 -0.030  0.009   -0.002 -0.002  0.001
 O         -0.003  0.005 -0.059    0.000 -0.000 -0.002    0.013 -0.023  0.179
 C         -0.027 -0.107  0.068    0.001  0.000 -0.000   -0.045 -0.085  0.093
 H          0.306  0.449 -0.160    0.002 -0.001 -0.001    0.520 -0.056 -0.351
 H         -0.133  0.520 -0.258   -0.002 -0.001 -0.007   -0.242  0.293 -0.463
 H          0.170  0.303 -0.413   -0.006 -0.005  0.005    0.216 -0.045  0.058
 O          0.014  0.053  0.028    0.001 -0.001 -0.001   -0.034 -0.142 -0.067
 H         -0.002  0.004  0.004   -0.139  0.119  0.041    0.002 -0.007 -0.005
 C          0.000 -0.001 -0.000    0.170 -0.143 -0.037    0.003 -0.001 -0.000
 O          0.000  0.001  0.000    0.023  0.117  0.054    0.000  0.001  0.000
 O         -0.000 -0.000 -0.000   -0.126 -0.014 -0.023   -0.002 -0.000 -0.000
 O         -0.000 -0.000  0.000    0.004 -0.001 -0.001    0.000 -0.000 -0.000
 H          0.000 -0.000  0.000   -0.029  0.040  0.005   -0.002  0.002  0.001
 TransDip   0.007 -0.097  0.026    0.337 -0.221 -0.064    0.118  0.450 -0.368

 Mode:                34                     35                     36
 Frequency:      1451.87                1454.54                1472.35
 Force Cnst:      1.4172                 2.5379                 1.4929
 Red. Mass:       1.1411                 2.0360                 1.1688
 IR Active:          YES                    YES                    YES
 IR Intens:      116.357                279.974                 42.176
 Raman Active:       YES                    YES                    YES
               X      Y      Z        X      Y      Z        X      Y      Z
 C          0.009  0.066  0.012   -0.001 -0.009 -0.003    0.034  0.064 -0.032
 C          0.001  0.001  0.001    0.045  0.032  0.037    0.001  0.001  0.001
 C         -0.002  0.002  0.001   -0.071  0.099  0.045   -0.002  0.002  0.001
 H         -0.008 -0.007 -0.009   -0.472 -0.392 -0.440   -0.008 -0.006 -0.008
 H          0.005 -0.008 -0.004    0.224 -0.413 -0.217    0.004 -0.007 -0.004
 H         -0.000 -0.000  0.000   -0.007 -0.007  0.004   -0.001 -0.000  0.000
 O         -0.000 -0.003  0.002    0.000  0.000 -0.000   -0.001 -0.004  0.031
 C         -0.027 -0.047 -0.036   -0.000  0.005  0.000    0.043 -0.054  0.013
 H         -0.337 -0.073  0.230    0.016 -0.019 -0.016   -0.243  0.552  0.289
 H          0.202  0.397  0.566   -0.007 -0.011 -0.019    0.055 -0.260  0.092
 H          0.491  0.155 -0.183   -0.000 -0.010  0.020   -0.527  0.179 -0.386
 O         -0.009 -0.042 -0.023    0.001  0.005  0.003   -0.012 -0.033 -0.016
 H          0.000 -0.004 -0.002    0.052 -0.229 -0.134    0.002 -0.006 -0.005
 C          0.005 -0.003 -0.001    0.175 -0.122 -0.034    0.004 -0.002 -0.001
 O          0.000  0.002  0.001    0.012  0.069  0.033    0.000  0.001  0.001
 O         -0.003 -0.000 -0.001   -0.110 -0.010 -0.019   -0.003 -0.000 -0.000
 O          0.000 -0.000 -0.000   -0.001 -0.001 -0.000    0.000 -0.000 -0.000
 H         -0.000  0.001  0.000    0.005  0.020  0.008   -0.000  0.001  0.000
 TransDip   0.112  0.258  0.200    0.368 -0.339 -0.191   -0.041  0.197 -0.053

 Mode:                37                     38                     39
 Frequency:      1583.57                1592.09                1640.74
 Force Cnst:     11.6694                15.4643                 1.7139
 Red. Mass:       7.8981                10.3549                 1.0806
 IR Active:          YES                    YES                    YES
 IR Intens:     1310.462               1234.540                145.126
 Raman Active:       YES                    YES                    YES
               X      Y      Z        X      Y      Z        X      Y      Z
 C          0.114  0.301  0.588   -0.007 -0.019 -0.036   -0.000  0.000 -0.001
 C         -0.001 -0.007 -0.006   -0.014 -0.111 -0.084    0.001  0.005  0.003
 C         -0.002  0.012  0.008   -0.026  0.064  0.048   -0.002 -0.008 -0.006
 H         -0.010 -0.025 -0.015    0.162  0.019  0.041    0.002  0.009  0.007
 H         -0.001 -0.013 -0.008   -0.128  0.135  0.065   -0.007  0.003  0.024
 H         -0.001 -0.001  0.001   -0.109 -0.096  0.036    0.456  0.389 -0.140
 O         -0.024 -0.017 -0.255    0.001  0.001  0.015    0.000 -0.000  0.000
 C         -0.005 -0.011 -0.035    0.000  0.001  0.002    0.000 -0.000  0.000
 H          0.253  0.193 -0.206   -0.015 -0.014  0.011    0.001 -0.000  0.000
 H         -0.098 -0.080 -0.274    0.006  0.007  0.016   -0.000  0.000  0.000
 H         -0.202 -0.257  0.278    0.015  0.015 -0.016    0.000 -0.000 -0.000
 O         -0.053 -0.192 -0.147    0.004  0.012  0.009    0.000 -0.000  0.000
 H          0.007  0.000  0.001   -0.054  0.242  0.141   -0.012  0.011  0.008
 C          0.025  0.021  0.012    0.508  0.488  0.288    0.018  0.007  0.007
 O         -0.006 -0.014 -0.007   -0.120 -0.290 -0.147   -0.003 -0.004 -0.003
 O         -0.011 -0.003 -0.003   -0.224 -0.059 -0.057   -0.013  0.001 -0.001
 O         -0.000 -0.001  0.000    0.008 -0.011 -0.001   -0.063  0.002  0.017
 H          0.001  0.004 -0.002   -0.105  0.174 -0.020    0.618 -0.456 -0.160
 TransDip   0.237  0.541  0.998    0.763  0.750  0.347    0.379  0.052 -0.050

 Mode:                40                     41                     42
 Frequency:      1722.85                3056.35                3128.23
 Force Cnst:      8.8366                 5.7082                 6.3360
 Red. Mass:       5.0529                 1.0372                 1.0989
 IR Active:          YES                    YES                    YES
 IR Intens:       43.208                 14.631                 29.826
 Raman Active:       YES                    YES                    YES
               X      Y      Z        X      Y      Z        X      Y      Z
 C         -0.002 -0.002 -0.005    0.000  0.003 -0.001   -0.001 -0.001  0.001
 C         -0.054 -0.311 -0.240    0.000  0.000  0.000   -0.000  0.000  0.000
 C          0.011  0.362  0.253    0.000 -0.000 -0.000   -0.001 -0.000 -0.000
 H          0.428  0.005  0.154   -0.000  0.001  0.000    0.004 -0.004 -0.001
 H         -0.378  0.308  0.116   -0.003 -0.000 -0.001   -0.003 -0.000 -0.001
 H          0.044  0.038 -0.016    0.000 -0.000 -0.000    0.000 -0.000 -0.000
 O          0.001 -0.000  0.002   -0.000 -0.000  0.000   -0.000  0.000 -0.000
 C          0.000 -0.000  0.000   -0.023 -0.035  0.030   -0.086  0.029  0.000
 H         -0.004 -0.002  0.003   -0.332  0.031 -0.402    0.363 -0.037  0.476
 H          0.000  0.002  0.001    0.659 -0.010 -0.243    0.648  0.002 -0.250
 H          0.001  0.002 -0.003   -0.059  0.375  0.297    0.027 -0.304 -0.237
 O          0.001  0.001  0.001   -0.000 -0.000 -0.000    0.000  0.000  0.000
 H          0.307 -0.256 -0.067    0.000 -0.000  0.000    0.006  0.001  0.002
 C         -0.025 -0.099 -0.058   -0.000  0.000 -0.000    0.000 -0.000 -0.000
 O          0.017  0.022  0.014    0.000  0.000 -0.000   -0.000  0.000  0.000
 O          0.010  0.011  0.008    0.000  0.000 -0.000   -0.000  0.000  0.000
 O         -0.005  0.001  0.002   -0.000 -0.000  0.000    0.000  0.000 -0.000
 H          0.058 -0.053 -0.016    0.002  0.001 -0.000   -0.000 -0.001  0.000
 TransDip  -0.037 -0.187 -0.090   -0.036 -0.093  0.071   -0.154  0.082 -0.015

 Mode:                43                     44                     45
 Frequency:      3151.59                3152.24                3181.05
 Force Cnst:      6.3411                 6.3202                 6.5225
 Red. Mass:       1.0836                 1.0796                 1.0940
 IR Active:          YES                    YES                    YES
 IR Intens:       42.333                  5.952                 12.856
 Raman Active:       YES                    YES                    YES
               X      Y      Z        X      Y      Z        X      Y      Z
 C         -0.000 -0.000 -0.002    0.000  0.001  0.002   -0.000 -0.000 -0.000
 C         -0.007 -0.035 -0.028   -0.007 -0.038 -0.030    0.016  0.012  0.014
 C         -0.009  0.003 -0.001   -0.013  0.002 -0.003   -0.075 -0.017 -0.035
 H         -0.350  0.304  0.106   -0.377  0.327  0.114    0.045 -0.040 -0.015
 H          0.428  0.069  0.189    0.457  0.073  0.202   -0.223 -0.037 -0.099
 H         -0.000  0.000  0.000    0.000 -0.000  0.000   -0.000  0.001 -0.000
 O         -0.000  0.000  0.000   -0.000 -0.000 -0.001   -0.000  0.000  0.000
 C         -0.013 -0.034 -0.058    0.011  0.032  0.053    0.000 -0.001 -0.002
 H          0.278 -0.035  0.340   -0.253  0.032 -0.311    0.008 -0.001  0.010
 H         -0.059 -0.005  0.011    0.059  0.005 -0.012   -0.007 -0.000  0.002
 H         -0.067  0.451  0.346    0.061 -0.416 -0.318   -0.003  0.019  0.015
 O          0.000  0.000  0.000   -0.000 -0.000 -0.000    0.000  0.000  0.000
 H          0.120  0.020  0.051    0.167  0.028  0.070    0.874  0.153  0.374
 C         -0.001 -0.000 -0.000   -0.001 -0.000 -0.000    0.001 -0.003 -0.001
 O          0.000 -0.000 -0.000    0.000 -0.000 -0.000    0.000  0.001  0.000
 O          0.000  0.000  0.000    0.000  0.000  0.000   -0.000  0.000 -0.000
 O          0.000  0.000 -0.000   -0.000  0.000  0.000    0.000  0.001 -0.000
 H         -0.001 -0.002  0.001   -0.001 -0.001  0.000   -0.006 -0.010  0.002
 TransDip  -0.071 -0.121 -0.154   -0.026  0.033  0.066   -0.106 -0.025 -0.036

 Mode:                46                     47                     48
 Frequency:      3242.81                3339.00                3876.20
 Force Cnst:      6.9182                 7.0150                 9.4394
 Red. Mass:       1.1166                 1.0679                 1.0663
 IR Active:          YES                    YES                    YES
 IR Intens:        4.030               1405.146                 83.204
 Raman Active:       YES                    YES                    YES
               X      Y      Z        X      Y      Z        X      Y      Z
 C         -0.000 -0.000 -0.000   -0.000 -0.000  0.000    0.000  0.000 -0.000
 C         -0.093  0.031 -0.008   -0.000  0.000  0.000   -0.000  0.000 -0.000
 C         -0.011 -0.002 -0.005   -0.001 -0.000 -0.001   -0.000  0.000 -0.000
 H          0.517 -0.463 -0.167    0.003 -0.002 -0.001    0.000 -0.000 -0.000
 H          0.612  0.108  0.278    0.002  0.002  0.002    0.001  0.000  0.000
 H          0.001  0.000 -0.000    0.028 -0.076 -0.006   -0.591  0.788  0.148
 O          0.000  0.000  0.000    0.000 -0.000 -0.000    0.000  0.000  0.000
 C          0.000 -0.000 -0.000   -0.000  0.000 -0.000   -0.000  0.000  0.000
 H         -0.001  0.000 -0.002    0.001 -0.000  0.002   -0.000  0.000 -0.000
 H         -0.000 -0.000  0.000   -0.001  0.000  0.000    0.000  0.000 -0.000
 H         -0.000  0.003  0.002    0.000 -0.000 -0.000    0.000 -0.000 -0.000
 O         -0.000  0.000  0.000    0.000  0.000  0.000    0.000  0.000  0.000
 H          0.118  0.021  0.051    0.012 -0.000  0.004    0.000 -0.000  0.000
 C         -0.000 -0.001 -0.000   -0.008 -0.002 -0.002   -0.000 -0.000 -0.000
 O          0.000  0.000  0.000    0.002  0.002  0.001    0.000  0.000  0.000
 O          0.000  0.000  0.000    0.005  0.002  0.000    0.000  0.000 -0.000
 O          0.000  0.000 -0.000   -0.037 -0.049  0.012    0.034 -0.052 -0.008
 H         -0.002 -0.005  0.001    0.533  0.822 -0.170    0.054  0.031 -0.016
 TransDip  -0.058 -0.015 -0.024    0.682  0.978 -0.136   -0.052  0.287  0.018

 STANDARD THERMODYNAMIC QUANTITIES AT   298.15 K  AND     1.00 ATM

   This Molecule has  0 Imaginary Frequencies
   Zero point vibrational energy:       80.428 kcal/mol

   Atom    1 Element C  Has Mass   12.00000
   Atom    2 Element C  Has Mass   12.00000
   Atom    3 Element C  Has Mass   12.00000
   Atom    4 Element H  Has Mass    1.00783
   Atom    5 Element H  Has Mass    1.00783
   Atom    6 Element H  Has Mass    1.00783
   Atom    7 Element O  Has Mass   15.99491
   Atom    8 Element C  Has Mass   12.00000
   Atom    9 Element H  Has Mass    1.00783
   Atom   10 Element H  Has Mass    1.00783
   Atom   11 Element H  Has Mass    1.00783
   Atom   12 Element O  Has Mass   15.99491
   Atom   13 Element H  Has Mass    1.00783
   Atom   14 Element C  Has Mass   12.00000
   Atom   15 Element O  Has Mass   15.99491
   Atom   16 Element O  Has Mass   15.99491
   Atom   17 Element O  Has Mass   15.99491
   Atom   18 Element H  Has Mass    1.00783
   Molecular Mass:   148.037190 amu
   Principal axes and moments of inertia in amu*Bohr^2:
                             1           2           3
    Eigenvalues --     1067.43764  4062.10920  4718.45240
          X               0.93076     0.34756     0.11354
          Y              -0.32064     0.92512    -0.20334
          Z              -0.17571     0.15286     0.97250
   Rotational Symmetry Number is   1
   The Molecule is an Asymmetric Top
   Translational Enthalpy:        0.889 kcal/mol
   Rotational Enthalpy:           0.889 kcal/mol
   Vibrational Enthalpy:         87.785 kcal/mol
   gas constant (RT):             0.592 kcal/mol
   Translational Entropy:        40.887  cal/mol.K
   Rotational Entropy:           31.392  cal/mol.K
   Vibrational Entropy:          59.757  cal/mol.K

   Total Enthalpy:               90.155 kcal/mol
   Total Entropy:               132.036  cal/mol.K
Archival summary:
1\1\c5-81\FREQ\ProcedureUnspecified\BasisUnspecified\558(2-,1)\leeping\FriApr1019:23:392020FriApr1019:23:392020\0\\#,FREQ,ProcedureUnspecified,BasisUnspecified,\\-2,1\O\C,1,1.26481\O,2,1.25353,1,125.308\C,2,1.51363,1,118.434,3,179.336,0\H,4,1.08805,2,115.48,1,168.422,0\C,4,1.32863,2,123.918,1,-14.0794,0\H,6,1.08669,4,121.415,2,-178.009,0\H,6,1.08674,4,120.853,2,1.30995,0\H,1,1.72243,2,124.73,3,139.908,0\O,9,0.988052,1,171.522,2,-139.548,0\H,10,0.963079,9,105.317,1,173.344,0\O,7,2.74111,6,159.474,4,13.3938,0\C,12,1.26017,7,80.8578,6,-7.49586,0\O,13,1.25947,12,125.374,7,-95.8636,0\C,13,1.53101,12,117.024,7,85.3801,0\H,15,1.09172,13,111.461,12,-160.198,0\H,15,1.09263,13,110.729,12,-37.4466,0\H,15,1.09554,13,108.492,12,80.5584,0\\\@

 Total job time:  30923.32s(wall), 418694.59s(cpu) 
 Fri Apr 10 19:23:39 2020

        *************************************************************
        *                                                           *
        *  Thank you very much for using Q-Chem.  Have a nice day.  *
        *                                                           *
        *************************************************************


