
Running Job 1 of 1 qc-3-tshess.in
qchem qc-3-tshess.in_31423.0 ./qc-3-tshess.d/ 1
/home/leeping/opt/qchem/5.0.2-openmp/exe/qcprog.exe_s qc-3-tshess.in_31423.0 ./qc-3-tshess.d/
Check license passed

                  Welcome to Q-Chem
     A Quantum Leap Into The Future Of Chemistry


 Q-Chem 5.0, Q-Chem, Inc., Pleasanton, CA (2017)

 Yihan Shao,  Zhengting Gan,  E. Epifanovsky,  A. T. B. Gilbert,  M. Wormit,  
 J. Kussmann,  A. W. Lange,  A. Behn,  Jia Deng,  Xintian Feng,  D. Ghosh,  
 M. Goldey,  P. R. Horn,  L. D. Jacobson,  I. Kaliman,  T. Kus,  A. Landau,  
 Jie Liu,  E. I. Proynov,  R. M. Richard,  R. P. Steele,  E. J. Sundstrom,  
 H. L. Woodcock III,  P. M. Zimmerman,  D. Zuev,  B. Albrecht,  E. Alguire,  
 S. A. Baeppler,  D. Barton,  Z. Benda,  Y. A. Bernard,  E. J. Berquist,  
 K. B. Bravaya,  H. Burton,  D. Casanova,  Chun-Min Chang,  Yunqing Chen,  
 A. Chien,  K. D. Closser,  M. P. Coons,  S. Dasgupta,  A. L. Dempwolff,  
 M. Diedenhofen,  Hainam Do,  R. G. Edgar,  Po-Tung Fang,  S. Fatehi,  
 Qingguo Feng,  J. Fosso-Tande,  Qinghui Ge,  A. Ghysels,  G. Gidofalvi,  
 J. Gomes,  J. Gonthier,  A. Gunina,  M. W. D. Hanson-Heine,  
 P. H. P. Harbach,  A. W. Hauser,  J. E. Herr,  E. G. Hohenstein,  
 Z. C. Holden,  Kerwin Hui,  T.-C. Jagau,  Hyunjun Ji,  B. Kaduk,  
 K. Khistyaev,  Jaehoon Kim,  P. Klunzinger,  K. Koh,  D. Kosenkov,  
 L. Koulias,  T. Kowalczyk,  C. M. Krauter,  A. Kunitsa,  Ka Un Lao,  
 A. Laurent,  K. V. Lawler,  Joonho Lee,  D. Lefrancois,  S. Lehtola,  
 D. S. Levine,  Yi-Pei Li,  You-Sheng Lin,  Fenglai Liu,  E. Livshits,  
 A. Luenser,  P. Manohar,  E. Mansoor,  S. F. Manzer,  Shan-Ping Mao,  
 Yuezhi Mao,  N. Mardirossian,  A. V. Marenich,  T. Markovich,  
 L. A. Martinez-Martinez,  S. A. Maurer,  N. J. Mayhall,  S. C. McKenzie,  
 J.-M. Mewes,  A. F. Morrison,  J. W. Mullinax,  K. Nanda,  
 T. S. Nguyen-Beck,  R. Olivares-Amaya,  J. A. Parkhill,  T. M. Perrine,  
 F. Plasser,  S. Prager,  A. Prociuk,  E. Ramos,  D. R. Rehn,  F. Rob,  
 M. Schneider,  N. Sergueev,  S. M. Sharada,  S. Sharma,  D. W. Small,  
 T. Stauch,  T. Stein,  Yu-Chuan Su,  A. J. W. Thom,  A. Tkatchenko,  
 T. Tsuchimochi,  L. Vogt,  O. Vydrov,  M. A. Watson,  J. Wenzel,  
 M. de Wergifosse,  T. A. Wesolowski,  A. White,  J. Witte,  A. Yamada,  
 Jun Yang,  K. Yao,  S. Yeganeh,  S. R. Yost,  Zhi-Qiang You,  A. Zech,  
 Igor Ying Zhang,  Xing Zhang,  Yan Zhao,  Ying Zhu,  B. R. Brooks,  
 G. K. L. Chan,  C. J. Cramer,  M. S. Gordon,  W. J. Hehre,  A. Klamt,  
 M. W. Schmidt,  C. D. Sherrill,  D. G. Truhlar,  A. Aspuru-Guzik,  R. Baer,  
 A. T. Bell,  N. A. Besley,  Jeng-Da Chai,  R. A. DiStasio Jr.,  A. Dreuw,  
 B. D. Dunietz,  T. R. Furlani,  Chao-Ping Hsu,  Yousung Jung,  Jing Kong,  
 D. S. Lambrecht,  WanZhen Liang,  C. Ochsenfeld,  V. A. Rassolov,  
 L. V. Slipchenko,  J. E. Subotnik,  T. Van Voorhis,  J. M. Herbert,  
 A. I. Krylov,  P. M. W. Gill,  M. Head-Gordon

 Contributors to earlier versions of Q-Chem not listed above: 
 R. D. Adamson,  B. Austin,  J. Baker,  G. J. O. Beran,  K. Brandhorst,  
 S. T. Brown,  E. F. C. Byrd,  A. K. Chakraborty,  C.-L. Cheng,  
 Siu Hung Chien,  D. M. Chipman,  D. L. Crittenden,  H. Dachsel,  
 R. J. Doerksen,  A. D. Dutoi,  L. Fusti-Molnar,  W. A. Goddard III,  
 A. Golubeva-Zadorozhnaya,  S. R. Gwaltney,  G. Hawkins,  A. Heyden,  
 S. Hirata,  G. Kedziora,  F. J. Keil,  C. Kelley,  Jihan Kim,  R. A. King,  
 R. Z. Khaliullin,  P. P. Korambath,  W. Kurlancheek,  A. M. Lee,  M. S. Lee,  
 S. V. Levchenko,  Ching Yeh Lin,  D. Liotard,  R. C. Lochan,  I. Lotan,  
 P. E. Maslen,  N. Nair,  D. P. O'Neill,  D. Neuhauser,  E. Neuscamman,  
 C. M. Oana,  R. Olson,  B. Peters,  R. Peverati,  P. A. Pieniazek,  
 Y. M. Rhee,  J. Ritchie,  M. A. Rohrdanz,  E. Rosta,  N. J. Russ,  
 H. F. Schaefer III,  N. E. Schultz,  N. Shenvi,  A. C. Simmonett,  A. Sodt,  
 D. Stuck,  K. S. Thanthiriwatte,  V. Vanovschi,  Tao Wang,  A. Warshel,  
 C. F. Williams,  Q. Wu,  X. Xu,  W. Zhang

 Please cite Q-Chem as follows:
 Y. Shao et al., Mol. Phys. 113, 184-215 (2015)
 DOI: 10.1080/00268976.2014.952696

 Q-Chem 5.0.2 for Intel X86 EM64T Linux

 Parts of Q-Chem use Armadillo 5.200.1 (Boston Tea Smuggler).
 http://arma.sourceforge.net/

 Q-Chem begins on Sat May 25 21:38:17 2019  

Host: 
0

     Scratch files written to ./qc-3-tshess.d//
 Dec517 15110_ 26548  26544 5633   
Processing $rem in /home/leeping/opt/qchem/5.0.2-openmp/config/preferences.
 MEM_STATIC 2000
 MEM_TOTAL  8000
 SYMMETRY   OFF
 SYM_IGNORE TRUE 
Symmetry turned off for PCM/SM12/SMD calculation

Checking the input file for inconsistencies... 	...done.

--------------------------------------------------------------
User input:
--------------------------------------------------------------
$molecule
-3 1
C        0.4896174721    0.9335027394   -3.3765187097
O        0.2319549758    2.0550288498   -3.8974854120
O        0.9926862780   -0.0498280642   -3.9790057245
C        0.1303474574    0.7883555104   -1.8868453222
H       -0.9574001929    0.8786815139   -1.8233963774
H        0.5309285826    1.6602778494   -1.3656902427
C        0.5994832749   -0.4930171712   -1.2117471238
H        1.6820332063   -0.5924910727   -1.3098657795
H        0.1528838638   -1.3597003005   -1.7046107669
C        0.2721993619   -0.5966472771    0.2845547178
C       -1.2331477220   -0.5619039403    0.5632123081
H       -1.6593248309    0.4014835991    0.2814492020
H       -1.4073602763   -0.7185189725    1.6268358923
H       -1.7440598583   -1.3466325101    0.0019936662
O        0.7928125618   -1.8612597208    0.7314955055
O        0.9487150280    0.4258939837    0.9480585962
H        0.9435919388   -1.6619975320    1.6801916735
O        0.9616242818   -0.0510109086    2.6427506445
H        0.0480574845    0.1595765717    3.2571987107
O       -0.7735065588    0.2905588709    4.2326995319
O       -1.0021363268    1.6996479798    4.3047250102
$end

$rem
jobtype               freq
method                b3lyp
basis                 def2-tzvpd
dft_d                 d3_bj
symmetry              off
sym_ignore            true
incdft                false
incfock               0
!scf_algorithm        diis_gdm
scf_convergence       8
thresh                14
unrestricted          true
!purecart             112
scf_guess             read
max_scf_cycles        1000
geom_opt_max_cycles   500
geom_opt_dmax         100
geom_opt_tol_gradient 10
solvent_method        pcm
ideriv                1
rpath_tol_displacement 1000
rpath_max_cycles      100
rpath_direction       1
$end

$pcm
theory              cosmo
method              iswig
Radii               bondi
vdwScale            1.20
hpoints             110
heavypoints         110
$end

$solvent
dielectric 78.400000
$end

--------------------------------------------------------------
 Adding empirical dispersion correction 
 ----------------------------------------------------------------
 Doing -D3(BJ) with
 s6 =   1.00000
 s8 =   1.98890
 a1 =   0.39810
 a2 =   4.42110
 -D3 energy without 3body term =     -0.0306983872 hartrees
 ----------------------------------------------------------------
             Standard Nuclear Orientation (Angstroms)
    I     Atom           X                Y                Z
 ----------------------------------------------------------------
    1      C       0.4896174721     0.9335027394    -3.3765187097
    2      O       0.2319549758     2.0550288498    -3.8974854120
    3      O       0.9926862780    -0.0498280642    -3.9790057245
    4      C       0.1303474574     0.7883555104    -1.8868453222
    5      H      -0.9574001929     0.8786815139    -1.8233963774
    6      H       0.5309285826     1.6602778494    -1.3656902427
    7      C       0.5994832749    -0.4930171712    -1.2117471238
    8      H       1.6820332063    -0.5924910727    -1.3098657795
    9      H       0.1528838638    -1.3597003005    -1.7046107669
   10      C       0.2721993619    -0.5966472771     0.2845547178
   11      C      -1.2331477220    -0.5619039403     0.5632123081
   12      H      -1.6593248309     0.4014835991     0.2814492020
   13      H      -1.4073602763    -0.7185189725     1.6268358923
   14      H      -1.7440598583    -1.3466325101     0.0019936662
   15      O       0.7928125618    -1.8612597208     0.7314955055
   16      O       0.9487150280     0.4258939837     0.9480585962
   17      H       0.9435919388    -1.6619975320     1.6801916735
   18      O       0.9616242818    -0.0510109086     2.6427506445
   19      H       0.0480574845     0.1595765717     3.2571987107
   20      O      -0.7735065588     0.2905588709     4.2326995319
   21      O      -1.0021363268     1.6996479798     4.3047250102
 ----------------------------------------------------------------
 Nuclear Repulsion Energy =   713.6427894154 hartrees
 There are       49 alpha and       49 beta electrons
 Requested basis set is def2-TZVPD
 There are 208 shells and 546 basis functions

 Total QAlloc Memory Limit   8000 MB
 Mega-Array Size      1956 MB
 MEM_STATIC part      2000 MB
 Discretize the solute cavity surface with Lebedev spheres
	Using 110 Lebedev grid points for each H atom
	Using 110 Lebedev grid points for other atoms
	Atomic van der Waals radii will be scaled by 1.20
 Remove points where switching function is < 1.0e-08
 Keep 1254 surface tesserae and discard 1056 interior tesserae
 Molecular Surface Area = 230.173 Angst**2
 A cutoff of  1.0D-14 yielded  18669 shell pairs
 There are    126803 function pairs (    160407 Cartesian)
 
 -------------------------------------------------------
 OpenMP Integral Computing Module                       
 Release: version 1.0, May 2013, Q-Chem Inc. Pittsburgh 
 -------------------------------------------------------
 Integral Job Info:
 Integral job number is                      11
 Integral operator is                         1
 short-range coefficients                     0
 long-range coefficients              100000000
 Omega coefficients                           0
 if combine SR and LR in K                    0
 Integral screening is                        0
 Integral computing path is                   2
 max size of driver memory is            800000
 size of driver memory is                776718
 size of scratch memory is              4384136
 max col of scratch BK array              10000
 max len of scratch array in speh3          662
 max len of scratch index in speh4           32
 max int batch size is                      520
 min int batch size is                       52
 fixed nKL is                                52
 max L of basis functions is                  3
 order of int derivative is                   0
 number of shells is                        208
 number of basis is                         618
 number of cartesian basis is               618
 number of contracted shell pairs         18669
 number of primitive shell pairs          36998
 maxK2 (contraction) of shell pair           36
 max number of K2 of shell pair               1
 max number of CS2 of shell pair           3176
 max number of PS2 of shell pair           4158
 mem total for path MDJ                  850012
 -------------------------------------------------------
 Smallest overlap matrix eigenvalue = 2.10E-06
 Guess MOs from SCF MO coefficient file
 Reading MOs from coefficient file
 Reading MOs from coefficient file
 An unrestricted hybrid HF-DFT SCF calculation will be
 performed using Pulay DIIS extrapolation
 Polarizable Continuum solvation model will be applied
 Exchange:     0.2000 Hartree-Fock + 0.0800 Slater + 0.7200 B88
 Correlation:  0.1900 VWN1RPA + 0.8100 LYP
 Using SG-1 standard quadrature grid
 Dispersion:   Grimme D3
 SCF converges when DIIS error is below 1.0E-08
Using Q-Chem read-in guess as SCF_GUESS READ specified.

 using 16 threads for integral computing
 -------------------------------------------------------
 OpenMP Integral computing Module                
 Release: version 1.0, May 2013, Q-Chem Inc. Pittsburgh 
 -------------------------------------------------------
 -------------------------------------------------------
 OpenMP BLAS3 based DFT computing Module                
 Release: version 1.0, May 2013, Q-Chem Inc. Pittsburgh 
 -------------------------------------------------------
 ---------------------------------------
  Cycle       Energy         DIIS Error
 ---------------------------------------
    1    -722.4557667064      3.65E-04
    2    -722.7360515608      1.86E-03
    3    -723.0408149425      4.27E-04
    4    -723.0514150744      3.11E-04
    5    -723.0547677807      1.67E-04
    6    -723.0564694878      1.35E-04
    7    -723.0571771093      1.10E-04
    8    -723.0577342433      8.71E-05
    9    -723.0581086240      6.78E-05
   10    -723.0584735041      4.31E-05
   11    -723.0586116251      3.18E-05
   12    -723.0586108200      3.19E-05
   13    -723.0586401811      2.93E-05
   14    -723.0586754860      2.58E-05
   15    -723.0587084969      2.21E-05
   16    -723.0587470600      1.68E-05
   17    -723.0587995793      7.10E-07
   18    -723.0587996959      5.47E-07
   19    -723.0587997586      5.43E-07
   20    -723.0587998058      1.37E-07
   21    -723.0587998399      7.42E-08
   22    -723.0587998453      6.50E-08
   23    -723.0587998486      4.87E-08
   24    -723.0587998510      1.21E-08
   25    -723.0587998515      1.29E-08
   26    -723.0587998517      6.53E-09 Convergence criterion met
 ---------------------------------------

************** Final PCM Free Energy Summary **************
 G_electrostatic  =      -0.60303314 hartree =    -378.40900934 kcal/mol
 G_cavitation     =       0.00000000 hartree =       0.00000000 kcal/mol
 G_dispersion     =       0.00000000 hartree =       0.00000000 kcal/mol
 G_repulsion      =       0.00000000 hartree =       0.00000000 kcal/mol
 --------------------------------------------------
 Non-electrostatic Free Energy =       0.00000000 hartree =       0.00000000 kcal/mol
 Total                         =      -0.60303314 hartree =    -378.40900934 kcal/mol
 --------------------------------------------------
 SCF Energy (H0 + V/2)                       =    -723.05879985 
 Solute Internal Energy (H0)                 =    -722.45576671 
 Total Free Energy (H0 + V/2 + non-elec)     =    -723.05879985 hartree
                                             = -453726.24499681 kcal/mol
***********************************************************

 <S^2> = 0.3095
 SCF time:  CPU 8179.91 s  wall 619.42 s
 SCF   energy in the final basis set = -723.05879985
 Total energy in the final basis set = -723.05879985
 
 --------------------------------------------------------------
 
                    Orbital Energies (a.u.)
 --------------------------------------------------------------
 
 Alpha MOs
 -- Occupied --
-19.111 -19.099 -19.087 -19.081 -19.057 -19.055 -19.054 -10.245
-10.242 -10.149 -10.149 -10.139  -1.030  -1.012  -0.971  -0.946
 -0.922  -0.860  -0.763  -0.705  -0.694  -0.642  -0.536  -0.495
 -0.472  -0.455  -0.448  -0.424  -0.419  -0.404  -0.401  -0.389
 -0.372  -0.353  -0.347  -0.338  -0.333  -0.321  -0.320  -0.299
 -0.279  -0.267  -0.249  -0.247  -0.239  -0.233  -0.225  -0.153
 -0.137
 -- Virtual --
 -0.069   0.008   0.021   0.027   0.034   0.040   0.045   0.050
  0.056   0.064   0.069   0.073   0.078   0.085   0.087   0.098
  0.099   0.102   0.113   0.116   0.123   0.127   0.133   0.137
  0.141   0.145   0.151   0.160   0.163   0.169   0.170   0.181
  0.184   0.188   0.193   0.195   0.207   0.211   0.217   0.221
  0.225   0.232   0.232   0.238   0.245   0.248   0.254   0.260
  0.265   0.273   0.277   0.282   0.284   0.287   0.294   0.297
  0.304   0.310   0.314   0.317   0.320   0.329   0.331   0.336
  0.339   0.347   0.351   0.354   0.357   0.370   0.374   0.377
  0.382   0.387   0.391   0.397   0.402   0.406   0.407   0.419
  0.423   0.429   0.431   0.435   0.439   0.444   0.450   0.451
  0.458   0.465   0.470   0.473   0.479   0.481   0.484   0.487
  0.496   0.498   0.505   0.507   0.513   0.514   0.520   0.524
  0.527   0.534   0.536   0.542   0.550   0.555   0.556   0.560
  0.570   0.577   0.587   0.594   0.601   0.602   0.605   0.616
  0.628   0.631   0.634   0.639   0.647   0.653   0.657   0.662
  0.669   0.681   0.689   0.692   0.696   0.696   0.700   0.709
  0.716   0.728   0.734   0.737   0.745   0.746   0.755   0.761
  0.765   0.769   0.774   0.783   0.785   0.788   0.797   0.805
  0.808   0.810   0.822   0.824   0.831   0.850   0.854   0.872
  0.877   0.883   0.889   0.902   0.907   0.912   0.919   0.932
  0.941   0.952   0.958   0.964   0.971   0.978   0.992   1.005
  1.012   1.034   1.038   1.047   1.060   1.067   1.081   1.085
  1.096   1.101   1.107   1.118   1.128   1.135   1.151   1.156
  1.161   1.198   1.206   1.224   1.230   1.243   1.251   1.259
  1.284   1.291   1.298   1.327   1.343   1.344   1.346   1.359
  1.382   1.395   1.411   1.430   1.440   1.471   1.487   1.499
  1.511   1.540   1.579   1.580   1.606   1.617   1.655   1.661
  1.708   1.722   1.745   1.755   1.764   1.772   1.780   1.795
  1.813   1.817   1.835   1.839   1.850   1.861   1.866   1.875
  1.893   1.900   1.907   1.922   1.922   1.942   1.947   1.962
  1.981   1.986   2.000   2.009   2.015   2.040   2.053   2.071
  2.095   2.108   2.126   2.141   2.160   2.170   2.185   2.191
  2.196   2.217   2.241   2.250   2.266   2.284   2.306   2.312
  2.332   2.355   2.363   2.376   2.398   2.405   2.407   2.421
  2.437   2.465   2.476   2.492   2.502   2.528   2.546   2.563
  2.574   2.599   2.621   2.639   2.647   2.667   2.677   2.709
  2.743   2.763   2.787   2.800   2.811   2.824   2.848   2.864
  2.884   2.890   2.913   2.914   2.926   2.939   2.958   2.966
  2.972   2.984   3.001   3.018   3.033   3.066   3.082   3.099
  3.112   3.139   3.149   3.158   3.174   3.195   3.208   3.210
  3.243   3.261   3.279   3.289   3.296   3.305   3.340   3.364
  3.375   3.386   3.412   3.424   3.431   3.443   3.444   3.471
  3.480   3.492   3.501   3.514   3.538   3.548   3.553   3.579
  3.596   3.606   3.608   3.624   3.625   3.643   3.652   3.679
  3.692   3.704   3.715   3.738   3.748   3.787   3.796   3.828
  3.847   3.912   3.918   3.954   4.014   4.039   4.067   4.112
  4.154   4.168   4.191   4.198   4.230   4.257   4.274   4.335
  4.358   4.497   4.552   4.575   4.582   4.619   4.682   4.707
  4.711   4.733   4.783   4.838   4.845   4.892   4.918   4.930
  4.963   5.002   5.022   5.088   5.096   5.130   5.162   5.204
  5.214   5.225   5.240   5.249   5.252   5.255   5.269   5.284
  5.290   5.327   5.370   5.390   5.414   5.438   5.466   5.497
  5.505   5.524   5.567   5.574   5.602   5.617   5.651   5.668
  5.679   5.740   5.813   5.889   5.920   5.969   6.022   6.024
  6.129   6.157   6.196   6.211   6.240   6.345   6.401   6.480
  6.492   6.500   6.513   6.519   6.524   6.543   6.561   6.576
  6.587   6.609   6.635   6.649   6.658   6.701   6.732   6.757
  6.839   6.856   6.887   6.909   6.937   6.945   7.018   7.024
  7.105   7.137   7.155   7.179   7.231   7.246   7.278   7.291
  7.301   7.424   7.461   7.580   8.190  22.645  22.794  22.855
 22.947  23.612  43.729  44.132  44.173  44.312  44.355  44.401
 44.475
 
 Beta MOs
 -- Occupied --
-19.104 -19.099 -19.088 -19.082 -19.061 -19.057 -19.054 -10.246
-10.242 -10.149 -10.149 -10.139  -1.025  -1.012  -0.983  -0.937
 -0.922  -0.851  -0.761  -0.711  -0.703  -0.641  -0.535  -0.493
 -0.469  -0.454  -0.446  -0.427  -0.419  -0.404  -0.400  -0.388
 -0.372  -0.353  -0.348  -0.344  -0.333  -0.321  -0.318  -0.303
 -0.281  -0.263  -0.247  -0.246  -0.238  -0.232  -0.225  -0.173
 -0.155
 -- Virtual --
 -0.039   0.008   0.022   0.027   0.034   0.040   0.045   0.051
  0.056   0.064   0.069   0.073   0.078   0.085   0.087   0.097
  0.099   0.102   0.112   0.115   0.123   0.127   0.132   0.137
  0.140   0.145   0.150   0.160   0.163   0.168   0.169   0.181
  0.184   0.188   0.193   0.195   0.207   0.211   0.217   0.220
  0.225   0.232   0.233   0.238   0.245   0.248   0.254   0.260
  0.265   0.273   0.277   0.281   0.285   0.287   0.294   0.297
  0.304   0.310   0.315   0.318   0.320   0.329   0.331   0.336
  0.339   0.347   0.351   0.354   0.357   0.370   0.374   0.377
  0.382   0.387   0.391   0.397   0.402   0.406   0.407   0.419
  0.424   0.429   0.430   0.435   0.439   0.444   0.450   0.451
  0.458   0.465   0.469   0.472   0.478   0.481   0.484   0.487
  0.496   0.498   0.505   0.506   0.511   0.514   0.520   0.524
  0.527   0.534   0.536   0.542   0.550   0.554   0.556   0.560
  0.570   0.577   0.587   0.594   0.601   0.602   0.605   0.616
  0.628   0.631   0.634   0.639   0.648   0.653   0.657   0.662
  0.669   0.681   0.689   0.692   0.696   0.697   0.700   0.709
  0.717   0.728   0.734   0.737   0.745   0.746   0.756   0.761
  0.765   0.769   0.774   0.783   0.785   0.788   0.797   0.805
  0.808   0.810   0.822   0.825   0.831   0.851   0.854   0.871
  0.877   0.882   0.889   0.902   0.907   0.913   0.918   0.933
  0.941   0.951   0.958   0.964   0.971   0.978   0.993   1.005
  1.012   1.034   1.037   1.047   1.060   1.067   1.081   1.085
  1.096   1.101   1.108   1.119   1.128   1.135   1.151   1.156
  1.161   1.198   1.206   1.225   1.230   1.243   1.251   1.258
  1.286   1.292   1.301   1.328   1.343   1.344   1.345   1.360
  1.383   1.396   1.412   1.430   1.441   1.472   1.488   1.499
  1.512   1.540   1.579   1.580   1.603   1.616   1.656   1.659
  1.709   1.721   1.744   1.752   1.761   1.771   1.780   1.795
  1.814   1.816   1.836   1.840   1.848   1.858   1.867   1.874
  1.892   1.901   1.907   1.921   1.922   1.942   1.946   1.963
  1.979   1.985   2.003   2.009   2.016   2.040   2.053   2.072
  2.096   2.108   2.128   2.142   2.160   2.170   2.181   2.191
  2.196   2.217   2.241   2.250   2.267   2.284   2.308   2.312
  2.333   2.356   2.363   2.377   2.399   2.406   2.407   2.422
  2.438   2.465   2.476   2.490   2.503   2.526   2.546   2.565
  2.574   2.600   2.621   2.639   2.647   2.667   2.678   2.709
  2.743   2.763   2.787   2.800   2.811   2.823   2.848   2.865
  2.884   2.891   2.904   2.913   2.924   2.940   2.956   2.968
  2.971   2.983   3.001   3.019   3.028   3.063   3.083   3.099
  3.111   3.140   3.149   3.158   3.174   3.195   3.209   3.211
  3.244   3.262   3.279   3.284   3.297   3.305   3.339   3.364
  3.376   3.386   3.413   3.424   3.431   3.442   3.444   3.472
  3.480   3.492   3.501   3.513   3.538   3.548   3.554   3.579
  3.597   3.606   3.608   3.624   3.625   3.643   3.653   3.681
  3.693   3.704   3.715   3.739   3.748   3.788   3.796   3.831
  3.849   3.913   3.924   3.957   4.015   4.039   4.067   4.112
  4.154   4.169   4.185   4.198   4.230   4.255   4.274   4.335
  4.359   4.497   4.552   4.576   4.582   4.620   4.682   4.708
  4.711   4.733   4.783   4.831   4.847   4.885   4.918   4.932
  4.954   4.994   5.022   5.083   5.100   5.133   5.165   5.209
  5.214   5.218   5.233   5.248   5.254   5.255   5.270   5.285
  5.291   5.332   5.373   5.390   5.408   5.442   5.470   5.488
  5.507   5.525   5.562   5.578   5.602   5.617   5.649   5.668
  5.687   5.745   5.816   5.890   5.925   5.978   6.009   6.020
  6.129   6.161   6.196   6.212   6.242   6.345   6.392   6.462
  6.476   6.499   6.507   6.513   6.519   6.537   6.563   6.579
  6.593   6.604   6.634   6.649   6.657   6.700   6.745   6.772
  6.839   6.856   6.891   6.913   6.934   6.938   7.011   7.031
  7.109   7.136   7.148   7.181   7.225   7.246   7.279   7.291
  7.308   7.426   7.458   7.594   8.186  22.645  22.794  22.855
 22.947  23.612  43.723  44.134  44.173  44.312  44.351  44.404
 44.478
 --------------------------------------------------------------
 
          Ground-State Mulliken Net Atomic Charges

     Atom                 Charge (a.u.)    Spin (a.u.)
  --------------------------------------------------------
      1 C                     0.208493      -0.000106
      2 O                    -0.782005      -0.000095
      3 O                    -0.757469      -0.000236
      4 C                    -0.459979       0.001789
      5 H                     0.256715       0.000828
      6 H                     0.241936       0.001806
      7 C                    -0.410537       0.025609
      8 H                     0.213458       0.002249
      9 H                     0.192790       0.002248
     10 C                     1.767110      -0.013003
     11 C                    -1.816965      -0.005222
     12 H                     0.358596      -0.001305
     13 H                     0.356064       0.001963
     14 H                     0.299593      -0.001041
     15 O                    -0.703153       0.001696
     16 O                    -0.602546       0.229912
     17 H                     0.407558      -0.001478
     18 O                    -0.817612       0.131860
     19 H                     0.378692       0.006547
     20 O                    -0.542412      -0.203421
     21 O                    -0.788329      -0.180598
  --------------------------------------------------------
  Sum of atomic charges =    -3.000000
  Sum of spin   charges =    -0.000000

 -----------------------------------------------------------------
                    Cartesian Multipole Moments
 -----------------------------------------------------------------
    Charge (ESU x 10^10)
               -14.4096
    Dipole Moment (Debye)
         X      -3.3596      Y     -10.7555      Z     -11.0422
       Tot      15.7765
    Quadrupole Moments (Debye-Ang)
        XX     -94.7515     XY       8.0350     YY    -113.4706
        XZ      29.0137     YZ      -8.6894     ZZ    -290.0715
    Octopole Moments (Debye-Ang^2)
       XXX     -39.4828    XXY     -22.9803    XYY      -8.4157
       YYY     -92.4373    XXZ     -31.8409    XYZ      29.1987
       YYZ      -3.0317    XZZ       9.8293    YZZ    -243.4258
       ZZZ    -166.6363
    Hexadecapole Moments (Debye-Ang^3)
      XXXX    -454.7552   XXXY      53.6292   XXYY    -200.6518
      XYYY      68.6172   YYYY    -807.0752   XXXZ     265.1868
      XXYZ     -14.3917   XYYZ     141.5708   YYYZ     110.8494
      XXZZ    -906.5938   XYZZ     128.4427   YYZZ   -1211.5052
      XZZZ     890.9241   YZZZ    -129.7061   ZZZZ   -7700.6621
 -----------------------------------------------------------------
 Calculating analytic gradient of the SCF energy
 Gradient of SCF Energy
            1           2           3           4           5           6
    1   0.0045790   0.0081773  -0.0225782  -0.0932492   0.0746305  -0.0389745
    2  -0.0300431  -0.0427349   0.0456490   0.1557785  -0.0003567  -0.0652232
    3  -0.0329195   0.0297684   0.0263744   0.0823760   0.0058773  -0.0392430
            7           8           9          10          11          12
    1   0.2473758  -0.0832555   0.0440873  -0.1174571  -0.1729435   0.0304143
    2  -0.2246411   0.0063743   0.0643924   0.0375860   0.0631358  -0.1291251
    3  -0.1167014  -0.0025400   0.0300118  -0.0029360   0.1202900   0.0352407
           13          14          15          16          17          18
    1   0.0261255   0.0495072   0.0275734   0.0037130  -0.0105691  -0.0018194
    2   0.0224811   0.0845687   0.0007849   0.0336911  -0.0087959   0.0080671
    3  -0.1374121   0.0641196   0.0417098  -0.0488701  -0.1000491   0.0910551
           19          20          21
    1   0.0168818   0.0215410  -0.0137599
    2  -0.0067434  -0.0970211   0.0821757
    3  -0.0345124  -0.0097712  -0.0018683
 Max gradient component =       2.474E-01
 RMS gradient           =       7.551E-02
 Computing fast CPCM-ISWIG gradient
 Updating gradient with PCM contributions...
 -- total gradient after adding PCM contribution --
---------------------------------------------------
  Atom         X              Y              Z     
---------------------------------------------------
   1      -0.000022      -0.000017      -0.000008
   2      -0.000017      -0.000017      -0.000010
   3      -0.000036      -0.000024      -0.000009
   4      -0.000010      -0.000008      -0.000004
   5      -0.000008       0.000002       0.000006
   6       0.000003      -0.000010      -0.000011
   7      -0.000015      -0.000010      -0.000003
   8      -0.000017      -0.000020      -0.000013
   9      -0.000028      -0.000008       0.000003
  10      -0.000001      -0.000002      -0.000000
  11      -0.000000       0.000014       0.000013
  12       0.000006       0.000016       0.000013
  13       0.000008       0.000019       0.000016
  14      -0.000012       0.000016       0.000021
  15      -0.000012      -0.000005      -0.000000
  16       0.000010      -0.000003      -0.000011
  17       0.000001      -0.000002      -0.000003
  18       0.000024      -0.000000      -0.000006
  19       0.000031       0.000011      -0.000001
  20       0.000041       0.000024       0.000004
  21       0.000055       0.000025       0.000002
---------------------------------------------------
 Number of fixed atoms: 0
 Gradient time:  CPU 1117.22 s  wall 84.47 s
 ######################################################
 ######################################################
 # Starting finite difference calculation for IDERIV  #
 Finite diff step size:  1.88973e-03 a.u.
 Adding empirical dispersion correction 
 ----------------------------------------------------------------
 Doing -D3(BJ) with
 s6 =   1.00000
 s8 =   1.98890
 a1 =   0.39810
 a2 =   4.42110
 -D3 energy without 3body term =     -0.0306983288 hartrees
 ----------------------------------------------------------------
             Standard Nuclear Orientation (Angstroms)
    I     Atom           X                Y                Z
 ----------------------------------------------------------------
    1      C       0.4906174721     0.9335027394    -3.3765187097
    2      O       0.2319549758     2.0550288498    -3.8974854120
    3      O       0.9926862780    -0.0498280642    -3.9790057245
    4      C       0.1303474574     0.7883555104    -1.8868453222
    5      H      -0.9574001929     0.8786815139    -1.8233963774
    6      H       0.5309285826     1.6602778494    -1.3656902427
    7      C       0.5994832749    -0.4930171712    -1.2117471238
    8      H       1.6820332063    -0.5924910727    -1.3098657795
    9      H       0.1528838638    -1.3597003005    -1.7046107669
   10      C       0.2721993619    -0.5966472771     0.2845547178
   11      C      -1.2331477220    -0.5619039403     0.5632123081
   12      H      -1.6593248309     0.4014835991     0.2814492020
   13      H      -1.4073602763    -0.7185189725     1.6268358923
   14      H      -1.7440598583    -1.3466325101     0.0019936662
   15      O       0.7928125618    -1.8612597208     0.7314955055
   16      O       0.9487150280     0.4258939837     0.9480585962
   17      H       0.9435919388    -1.6619975320     1.6801916735
   18      O       0.9616242818    -0.0510109086     2.6427506445
   19      H       0.0480574845     0.1595765717     3.2571987107
   20      O      -0.7735065588     0.2905588709     4.2326995319
   21      O      -1.0021363268     1.6996479798     4.3047250102
 ----------------------------------------------------------------
 Nuclear Repulsion Energy =   713.6433468082 hartrees
 There are       49 alpha and       49 beta electrons
 Discretize the solute cavity surface with Lebedev spheres
	Using 110 Lebedev grid points for each H atom
	Using 110 Lebedev grid points for other atoms
	Atomic van der Waals radii will be scaled by 1.20
 Remove points where switching function is < 1.0e-08
 Keep 1254 surface tesserae and discard 1056 interior tesserae
 Molecular Surface Area = 230.171 Angst**2
 Requested basis set is def2-TZVPD
 There are 208 shells and 546 basis functions
 A cutoff of  1.0D-14 yielded  18669 shell pairs
 There are    126803 function pairs (    160407 Cartesian)
 Smallest overlap matrix eigenvalue = 2.10E-06
 Guess MOs from SCF MO coefficient file
 Reading MOs from coefficient file
 Reading MOs from coefficient file
 An unrestricted hybrid HF-DFT SCF calculation will be
 performed using Pulay DIIS extrapolation
 Polarizable Continuum solvation model will be applied
 Exchange:     0.2000 Hartree-Fock + 0.0800 Slater + 0.7200 B88
 Correlation:  0.1900 VWN1RPA + 0.8100 LYP
 Using SG-1 standard quadrature grid
 Dispersion:   Grimme D3
 SCF converges when DIIS error is below 1.0E-08
Using Q-Chem read-in guess as SCF_GUESS READ specified.

 using 16 threads for integral computing
 -------------------------------------------------------
 OpenMP Integral computing Module                
 Release: version 1.0, May 2013, Q-Chem Inc. Pittsburgh 
 -------------------------------------------------------
 -------------------------------------------------------
 OpenMP BLAS3 based DFT computing Module                
 Release: version 1.0, May 2013, Q-Chem Inc. Pittsburgh 
 -------------------------------------------------------
 ---------------------------------------
  Cycle       Energy         DIIS Error
 ---------------------------------------
    1    -722.4559513401      3.65E-04
    2    -722.7361259166      1.86E-03
    3    -723.0408170985      4.27E-04
    4    -723.0514179826      3.11E-04
    5    -723.0547728248      1.67E-04
    6    -723.0564764235      1.34E-04
    7    -723.0571889303      1.09E-04
    8    -723.0577512401      8.63E-05
    9    -723.0581297062      6.66E-05
   10    -723.0584896601      4.17E-05
   11    -723.0586243688      3.05E-05
   12    -723.0586238849      3.05E-05
   13    -723.0586542699      2.78E-05
   14    -723.0587033119      2.26E-05
   15    -723.0587480743      1.64E-05
   16    -723.0587832052      9.10E-06
   17    -723.0587990245      5.25E-07
   18    -723.0587991360      6.86E-07
   19    -723.0587992197      5.05E-07
   20    -723.0587992748      1.39E-07
   21    -723.0587993015      5.74E-08
   22    -723.0587993070      8.20E-08
   23    -723.0587993113      4.52E-08
   24    -723.0587993136      1.57E-08
   25    -723.0587993139      1.32E-08
   26    -723.0587993139      6.44E-09 Convergence criterion met
 ---------------------------------------

************** Final PCM Free Energy Summary **************
 G_electrostatic  =      -0.60303102 hartree =    -378.40767573 kcal/mol
 G_cavitation     =       0.00000000 hartree =       0.00000000 kcal/mol
 G_dispersion     =       0.00000000 hartree =       0.00000000 kcal/mol
 G_repulsion      =       0.00000000 hartree =       0.00000000 kcal/mol
 --------------------------------------------------
 Non-electrostatic Free Energy =       0.00000000 hartree =       0.00000000 kcal/mol
 Total                         =      -0.60303102 hartree =    -378.40767573 kcal/mol
 --------------------------------------------------
 SCF Energy (H0 + V/2)                       =    -723.05879931 
 Solute Internal Energy (H0)                 =    -722.45576829 
 Total Free Energy (H0 + V/2 + non-elec)     =    -723.05879931 hartree
                                             = -453726.24465938 kcal/mol
***********************************************************

 <S^2> = 0.3095
 SCF time:  CPU 8194.20 s  wall 620.78 s
 SCF   energy in the final basis set = -723.05879931
 Total energy in the final basis set = -723.05879931
 
 --------------------------------------------------------------
 
                    Orbital Energies (a.u.)
 --------------------------------------------------------------
 
 Alpha MOs
 -- Occupied --
-19.111 -19.099 -19.087 -19.081 -19.057 -19.055 -19.054 -10.245
-10.242 -10.149 -10.149 -10.139  -1.030  -1.012  -0.971  -0.946
 -0.922  -0.860  -0.763  -0.705  -0.694  -0.642  -0.536  -0.495
 -0.472  -0.455  -0.448  -0.424  -0.419  -0.404  -0.401  -0.389
 -0.372  -0.353  -0.347  -0.338  -0.333  -0.321  -0.320  -0.299
 -0.279  -0.267  -0.249  -0.247  -0.239  -0.233  -0.225  -0.153
 -0.137
 -- Virtual --
 -0.069   0.008   0.021   0.027   0.034   0.040   0.045   0.050
  0.056   0.064   0.069   0.073   0.078   0.085   0.087   0.098
  0.099   0.102   0.113   0.116   0.123   0.127   0.133   0.137
  0.141   0.145   0.151   0.160   0.163   0.169   0.170   0.181
  0.184   0.187   0.193   0.195   0.207   0.211   0.217   0.221
  0.225   0.232   0.232   0.238   0.245   0.248   0.254   0.260
  0.265   0.273   0.277   0.282   0.284   0.287   0.294   0.297
  0.304   0.310   0.314   0.317   0.320   0.329   0.331   0.336
  0.339   0.347   0.351   0.354   0.357   0.370   0.374   0.377
  0.382   0.387   0.391   0.397   0.402   0.406   0.407   0.419
  0.423   0.429   0.431   0.435   0.439   0.444   0.450   0.451
  0.458   0.465   0.470   0.473   0.479   0.481   0.484   0.487
  0.496   0.498   0.505   0.507   0.513   0.514   0.520   0.524
  0.527   0.534   0.536   0.542   0.550   0.555   0.556   0.560
  0.570   0.577   0.587   0.594   0.601   0.602   0.605   0.616
  0.628   0.631   0.634   0.639   0.647   0.653   0.657   0.662
  0.669   0.681   0.689   0.692   0.696   0.696   0.700   0.709
  0.716   0.728   0.734   0.737   0.745   0.746   0.755   0.761
  0.765   0.769   0.774   0.783   0.785   0.788   0.797   0.805
  0.808   0.810   0.822   0.824   0.831   0.850   0.854   0.872
  0.877   0.883   0.889   0.902   0.907   0.912   0.919   0.932
  0.941   0.952   0.958   0.964   0.971   0.978   0.992   1.005
  1.012   1.034   1.038   1.047   1.060   1.067   1.081   1.085
  1.096   1.101   1.107   1.118   1.128   1.135   1.151   1.156
  1.161   1.198   1.206   1.224   1.230   1.243   1.251   1.259
  1.284   1.291   1.298   1.327   1.343   1.344   1.346   1.360
  1.382   1.395   1.411   1.430   1.440   1.471   1.487   1.499
  1.511   1.540   1.579   1.580   1.606   1.617   1.656   1.661
  1.708   1.722   1.745   1.755   1.764   1.772   1.780   1.795
  1.813   1.817   1.835   1.839   1.850   1.861   1.866   1.875
  1.893   1.900   1.907   1.922   1.922   1.942   1.947   1.962
  1.981   1.986   2.000   2.009   2.015   2.040   2.053   2.071
  2.095   2.108   2.126   2.141   2.160   2.170   2.185   2.191
  2.196   2.217   2.241   2.250   2.266   2.284   2.306   2.312
  2.332   2.356   2.363   2.376   2.398   2.405   2.407   2.421
  2.437   2.465   2.476   2.492   2.502   2.528   2.546   2.563
  2.574   2.599   2.621   2.639   2.647   2.667   2.677   2.709
  2.743   2.763   2.787   2.800   2.811   2.824   2.848   2.864
  2.884   2.890   2.913   2.913   2.926   2.939   2.958   2.966
  2.972   2.984   3.001   3.018   3.033   3.066   3.082   3.099
  3.112   3.139   3.149   3.158   3.174   3.195   3.208   3.210
  3.243   3.261   3.279   3.289   3.296   3.305   3.340   3.364
  3.375   3.386   3.412   3.424   3.431   3.443   3.444   3.471
  3.480   3.492   3.501   3.514   3.538   3.548   3.553   3.579
  3.596   3.606   3.608   3.624   3.625   3.643   3.652   3.679
  3.691   3.704   3.715   3.738   3.748   3.787   3.796   3.828
  3.847   3.912   3.918   3.954   4.014   4.039   4.067   4.112
  4.154   4.168   4.191   4.198   4.230   4.257   4.273   4.335
  4.358   4.497   4.552   4.575   4.582   4.619   4.682   4.707
  4.711   4.733   4.783   4.838   4.845   4.892   4.918   4.930
  4.963   5.002   5.022   5.088   5.096   5.130   5.162   5.204
  5.214   5.225   5.240   5.249   5.252   5.256   5.268   5.284
  5.290   5.327   5.370   5.390   5.414   5.438   5.466   5.497
  5.505   5.524   5.567   5.574   5.602   5.617   5.651   5.668
  5.679   5.740   5.813   5.890   5.920   5.969   6.022   6.024
  6.129   6.157   6.197   6.211   6.240   6.345   6.401   6.480
  6.492   6.500   6.513   6.519   6.524   6.543   6.561   6.576
  6.587   6.609   6.635   6.649   6.658   6.701   6.732   6.757
  6.839   6.856   6.887   6.909   6.937   6.945   7.018   7.024
  7.104   7.136   7.155   7.179   7.231   7.246   7.278   7.291
  7.302   7.424   7.461   7.580   8.190  22.645  22.794  22.855
 22.947  23.612  43.729  44.132  44.173  44.312  44.355  44.401
 44.475
 
 Beta MOs
 -- Occupied --
-19.104 -19.099 -19.088 -19.082 -19.061 -19.057 -19.054 -10.246
-10.242 -10.149 -10.149 -10.139  -1.025  -1.012  -0.983  -0.937
 -0.922  -0.851  -0.761  -0.711  -0.703  -0.641  -0.535  -0.493
 -0.469  -0.454  -0.446  -0.427  -0.419  -0.404  -0.400  -0.388
 -0.372  -0.353  -0.348  -0.344  -0.333  -0.321  -0.318  -0.303
 -0.281  -0.263  -0.247  -0.246  -0.238  -0.232  -0.225  -0.173
 -0.155
 -- Virtual --
 -0.039   0.008   0.022   0.027   0.034   0.040   0.045   0.051
  0.056   0.064   0.069   0.073   0.078   0.085   0.087   0.097
  0.099   0.102   0.112   0.115   0.123   0.127   0.132   0.137
  0.140   0.145   0.150   0.160   0.163   0.168   0.169   0.181
  0.184   0.188   0.193   0.195   0.207   0.211   0.217   0.220
  0.225   0.232   0.233   0.238   0.245   0.248   0.254   0.260
  0.265   0.273   0.277   0.281   0.285   0.287   0.294   0.297
  0.304   0.310   0.315   0.318   0.320   0.329   0.331   0.336
  0.339   0.347   0.351   0.354   0.357   0.370   0.374   0.377
  0.382   0.387   0.391   0.397   0.402   0.406   0.407   0.419
  0.424   0.429   0.430   0.435   0.439   0.444   0.450   0.451
  0.458   0.465   0.469   0.472   0.478   0.481   0.484   0.487
  0.496   0.498   0.505   0.506   0.511   0.514   0.520   0.524
  0.527   0.534   0.536   0.542   0.550   0.554   0.556   0.560
  0.570   0.577   0.587   0.594   0.601   0.602   0.605   0.616
  0.628   0.631   0.634   0.639   0.648   0.653   0.657   0.662
  0.669   0.681   0.689   0.692   0.696   0.697   0.700   0.709
  0.717   0.728   0.734   0.737   0.745   0.746   0.756   0.761
  0.765   0.769   0.774   0.783   0.785   0.788   0.797   0.805
  0.808   0.810   0.822   0.825   0.831   0.851   0.854   0.871
  0.877   0.882   0.889   0.902   0.907   0.913   0.918   0.933
  0.941   0.951   0.958   0.964   0.971   0.978   0.993   1.005
  1.012   1.034   1.037   1.047   1.060   1.067   1.081   1.085
  1.096   1.101   1.108   1.119   1.128   1.135   1.150   1.156
  1.161   1.198   1.206   1.225   1.230   1.243   1.251   1.258
  1.286   1.292   1.301   1.328   1.343   1.343   1.346   1.360
  1.383   1.396   1.412   1.430   1.441   1.472   1.488   1.499
  1.512   1.540   1.579   1.580   1.603   1.616   1.656   1.659
  1.709   1.721   1.744   1.752   1.761   1.771   1.780   1.795
  1.814   1.816   1.835   1.840   1.848   1.858   1.867   1.874
  1.892   1.901   1.907   1.921   1.922   1.942   1.946   1.963
  1.979   1.985   2.003   2.009   2.016   2.040   2.053   2.072
  2.096   2.108   2.128   2.142   2.160   2.169   2.181   2.191
  2.196   2.217   2.241   2.250   2.267   2.284   2.308   2.312
  2.332   2.356   2.363   2.376   2.399   2.406   2.407   2.422
  2.438   2.465   2.476   2.490   2.503   2.526   2.546   2.565
  2.574   2.600   2.621   2.639   2.647   2.667   2.678   2.709
  2.743   2.763   2.787   2.800   2.811   2.823   2.848   2.865
  2.884   2.891   2.904   2.913   2.924   2.940   2.956   2.968
  2.970   2.983   3.001   3.019   3.028   3.063   3.083   3.099
  3.111   3.140   3.149   3.158   3.174   3.195   3.209   3.211
  3.244   3.262   3.279   3.284   3.297   3.305   3.339   3.364
  3.376   3.386   3.413   3.424   3.431   3.442   3.444   3.472
  3.480   3.492   3.501   3.513   3.538   3.548   3.554   3.579
  3.597   3.606   3.608   3.624   3.626   3.643   3.653   3.681
  3.693   3.704   3.715   3.739   3.748   3.788   3.796   3.831
  3.849   3.913   3.924   3.957   4.015   4.039   4.067   4.112
  4.154   4.169   4.185   4.198   4.231   4.255   4.274   4.335
  4.359   4.497   4.552   4.575   4.582   4.619   4.682   4.708
  4.711   4.733   4.783   4.831   4.847   4.885   4.918   4.932
  4.954   4.994   5.022   5.083   5.100   5.133   5.165   5.209
  5.214   5.218   5.233   5.248   5.254   5.255   5.270   5.285
  5.291   5.332   5.373   5.390   5.408   5.442   5.470   5.488
  5.507   5.525   5.562   5.578   5.602   5.617   5.649   5.668
  5.687   5.745   5.816   5.890   5.925   5.978   6.009   6.020
  6.129   6.161   6.197   6.212   6.242   6.345   6.392   6.462
  6.476   6.500   6.507   6.513   6.519   6.537   6.563   6.579
  6.593   6.604   6.634   6.649   6.657   6.700   6.745   6.772
  6.839   6.856   6.891   6.913   6.934   6.938   7.011   7.031
  7.109   7.136   7.148   7.181   7.225   7.246   7.279   7.291
  7.308   7.426   7.458   7.594   8.186  22.645  22.794  22.855
 22.947  23.612  43.723  44.134  44.173  44.312  44.351  44.404
 44.478
 --------------------------------------------------------------
 
          Ground-State Mulliken Net Atomic Charges

     Atom                 Charge (a.u.)    Spin (a.u.)
  --------------------------------------------------------
      1 C                     0.208791      -0.000103
      2 O                    -0.782284      -0.000095
      3 O                    -0.756950      -0.000237
      4 C                    -0.460447       0.001784
      5 H                     0.256957       0.000827
      6 H                     0.241825       0.001807
      7 C                    -0.410777       0.025610
      8 H                     0.213437       0.002248
      9 H                     0.192876       0.002248
     10 C                     1.767092      -0.013005
     11 C                    -1.816980      -0.005223
     12 H                     0.358620      -0.001305
     13 H                     0.356060       0.001963
     14 H                     0.299589      -0.001041
     15 O                    -0.703153       0.001696
     16 O                    -0.602525       0.229903
     17 H                     0.407557      -0.001477
     18 O                    -0.817610       0.131834
     19 H                     0.378692       0.006548
     20 O                    -0.542422      -0.203404
     21 O                    -0.788348      -0.180577
  --------------------------------------------------------
  Sum of atomic charges =    -3.000000
  Sum of spin   charges =     0.000000

 -----------------------------------------------------------------
                    Cartesian Multipole Moments
 -----------------------------------------------------------------
    Charge (ESU x 10^10)
               -14.4096
    Dipole Moment (Debye)
         X      -3.3565      Y     -10.7597      Z     -11.0445
       Tot      15.7803
    Quadrupole Moments (Debye-Ang)
        XX     -94.7478     XY       8.0350     YY    -113.4790
        XZ      29.0025     YZ      -8.6750     ZZ    -290.0643
    Octopole Moments (Debye-Ang^2)
       XXX     -39.4904    XXY     -22.9813    XYY      -8.4242
       YYY     -92.4648    XXZ     -31.8568    XYZ      29.1999
       YYZ      -3.0061    XZZ       9.8734    YZZ    -243.4922
       ZZZ    -166.6968
    Hexadecapole Moments (Debye-Ang^3)
      XXXX    -454.7731   XXXY      53.6152   XXYY    -200.6630
      XYYY      68.5844   YYYY    -807.1534   XXXZ     265.2137
      XXYZ     -14.3893   XYYZ     141.6034   YYYZ     110.9467
      XXZZ    -906.5467   XYZZ     128.4361   YYZZ   -1211.6267
      XZZZ     890.8086   YZZZ    -129.4431   ZZZZ   -7700.4852
 -----------------------------------------------------------------
 Calculating analytic gradient of the SCF energy
 Gradient of SCF Energy
            1           2           3           4           5           6
    1   0.0048107   0.0081535  -0.0227156  -0.0932937   0.0746340  -0.0389628
    2  -0.0305221  -0.0425641   0.0459449   0.1558207  -0.0003667  -0.0652560
    3  -0.0331242   0.0297232   0.0265727   0.0824802   0.0058939  -0.0392813
            7           8           9          10          11          12
    1   0.2473481  -0.0832633   0.0440736  -0.1174353  -0.1729516   0.0304138
    2  -0.2246212   0.0063845   0.0644143   0.0375440   0.0631352  -0.1291250
    3  -0.1167276  -0.0025445   0.0300144  -0.0029356   0.1202921   0.0352390
           13          14          15          16          17          18
    1   0.0261251   0.0495077   0.0275714   0.0037104  -0.0105683  -0.0018224
    2   0.0224808   0.0845703   0.0007851   0.0336934  -0.0087964   0.0080672
    3  -0.1374133   0.0641199   0.0417083  -0.0488718  -0.1000503   0.0910566
           19          20          21
    1   0.0168842   0.0215411  -0.0137607
    2  -0.0067433  -0.0970239   0.0821784
    3  -0.0345126  -0.0097707  -0.0018686
 Max gradient component =       2.473E-01
 RMS gradient           =       7.552E-02
 Computing fast CPCM-ISWIG gradient
 Updating gradient with PCM contributions...
 -- total gradient after adding PCM contribution --
---------------------------------------------------
  Atom         X              Y              Z     
---------------------------------------------------
   1       0.000592      -0.000326      -0.000156
   2      -0.000190       0.000083      -0.000045
   3      -0.000295       0.000194       0.000141
   4      -0.000183      -0.000024       0.000015
   5      -0.000026       0.000002       0.000072
   6       0.000010      -0.000005      -0.000040
   7      -0.000010      -0.000017      -0.000026
   8      -0.000018      -0.000020      -0.000014
   9      -0.000027      -0.000006       0.000004
  10      -0.000004       0.000004       0.000004
  11      -0.000001       0.000014       0.000013
  12       0.000006       0.000015       0.000013
  13       0.000009       0.000019       0.000016
  14      -0.000012       0.000016       0.000021
  15      -0.000012      -0.000004      -0.000004
  16       0.000009      -0.000001      -0.000017
  17       0.000001      -0.000001      -0.000002
  18       0.000023      -0.000001      -0.000001
  19       0.000033       0.000010      -0.000003
  20       0.000040       0.000028       0.000006
  21       0.000055       0.000021       0.000002
---------------------------------------------------
 Number of fixed atoms: 0
 Gradient time:  CPU 1119.32 s  wall 141.40 s
 Adding empirical dispersion correction 
 ----------------------------------------------------------------
 Doing -D3(BJ) with
 s6 =   1.00000
 s8 =   1.98890
 a1 =   0.39810
 a2 =   4.42110
 -D3 energy without 3body term =     -0.0306984452 hartrees
 ----------------------------------------------------------------
             Standard Nuclear Orientation (Angstroms)
    I     Atom           X                Y                Z
 ----------------------------------------------------------------
    1      C       0.4886174721     0.9335027394    -3.3765187097
    2      O       0.2319549758     2.0550288498    -3.8974854120
    3      O       0.9926862780    -0.0498280642    -3.9790057245
    4      C       0.1303474574     0.7883555104    -1.8868453222
    5      H      -0.9574001929     0.8786815139    -1.8233963774
    6      H       0.5309285826     1.6602778494    -1.3656902427
    7      C       0.5994832749    -0.4930171712    -1.2117471238
    8      H       1.6820332063    -0.5924910727    -1.3098657795
    9      H       0.1528838638    -1.3597003005    -1.7046107669
   10      C       0.2721993619    -0.5966472771     0.2845547178
   11      C      -1.2331477220    -0.5619039403     0.5632123081
   12      H      -1.6593248309     0.4014835991     0.2814492020
   13      H      -1.4073602763    -0.7185189725     1.6268358923
   14      H      -1.7440598583    -1.3466325101     0.0019936662
   15      O       0.7928125618    -1.8612597208     0.7314955055
   16      O       0.9487150280     0.4258939837     0.9480585962
   17      H       0.9435919388    -1.6619975320     1.6801916735
   18      O       0.9616242818    -0.0510109086     2.6427506445
   19      H       0.0480574845     0.1595765717     3.2571987107
   20      O      -0.7735065588     0.2905588709     4.2326995319
   21      O      -1.0021363268     1.6996479798     4.3047250102
 ----------------------------------------------------------------
 Nuclear Repulsion Energy =   713.6422073360 hartrees
 There are       49 alpha and       49 beta electrons
 Discretize the solute cavity surface with Lebedev spheres
	Using 110 Lebedev grid points for each H atom
	Using 110 Lebedev grid points for other atoms
	Atomic van der Waals radii will be scaled by 1.20
 Remove points where switching function is < 1.0e-08
 Keep 1254 surface tesserae and discard 1056 interior tesserae
 Molecular Surface Area = 230.176 Angst**2
 Requested basis set is def2-TZVPD
 There are 208 shells and 546 basis functions
 A cutoff of  1.0D-14 yielded  18669 shell pairs
 There are    126803 function pairs (    160407 Cartesian)
 Smallest overlap matrix eigenvalue = 2.10E-06
 Guess MOs from SCF MO coefficient file
 Reading MOs from coefficient file
 Reading MOs from coefficient file
 An unrestricted hybrid HF-DFT SCF calculation will be
 performed using Pulay DIIS extrapolation
 Polarizable Continuum solvation model will be applied
 Exchange:     0.2000 Hartree-Fock + 0.0800 Slater + 0.7200 B88
 Correlation:  0.1900 VWN1RPA + 0.8100 LYP
 Using SG-1 standard quadrature grid
 Dispersion:   Grimme D3
 SCF converges when DIIS error is below 1.0E-08
Using Q-Chem read-in guess as SCF_GUESS READ specified.

 using 16 threads for integral computing
 -------------------------------------------------------
 OpenMP Integral computing Module                
 Release: version 1.0, May 2013, Q-Chem Inc. Pittsburgh 
 -------------------------------------------------------
 -------------------------------------------------------
 OpenMP BLAS3 based DFT computing Module                
 Release: version 1.0, May 2013, Q-Chem Inc. Pittsburgh 
 -------------------------------------------------------
 ---------------------------------------
  Cycle       Energy         DIIS Error
 ---------------------------------------
    1    -722.4553983297      3.66E-04
    2    -722.7354086325      1.86E-03
    3    -723.0408106166      4.27E-04
    4    -723.0514167931      3.11E-04
    5    -723.0547830672      1.67E-04
    6    -723.0564954720      1.34E-04
    7    -723.0572235157      1.08E-04
    8    -723.0578022134      8.40E-05
    9    -723.0581902513      6.30E-05
   10    -723.0585338295      3.79E-05
   11    -723.0586553579      2.74E-05
   12    -723.0586562009      2.72E-05
   13    -723.0586871538      2.41E-05
   14    -723.0587436195      1.69E-05
   15    -723.0587797741      9.80E-06
   16    -723.0587963175      3.42E-06
   17    -723.0587988867      7.86E-07
   18    -723.0587990333      7.64E-07
   19    -723.0587991472      4.04E-07
   20    -723.0587991966      2.62E-07
   21    -723.0587992145      6.13E-08
   22    -723.0587992221      9.32E-08
   23    -723.0587992277      3.37E-08
   24    -723.0587992292      2.84E-08
   25    -723.0587992293      1.13E-08
   26    -723.0587992294      4.89E-09 Convergence criterion met
 ---------------------------------------

************** Final PCM Free Energy Summary **************
 G_electrostatic  =      -0.60303548 hartree =    -378.41047264 kcal/mol
 G_cavitation     =       0.00000000 hartree =       0.00000000 kcal/mol
 G_dispersion     =       0.00000000 hartree =       0.00000000 kcal/mol
 G_repulsion      =       0.00000000 hartree =       0.00000000 kcal/mol
 --------------------------------------------------
 Non-electrostatic Free Energy =       0.00000000 hartree =       0.00000000 kcal/mol
 Total                         =      -0.60303548 hartree =    -378.41047264 kcal/mol
 --------------------------------------------------
 SCF Energy (H0 + V/2)                       =    -723.05879923 
 Solute Internal Energy (H0)                 =    -722.45576375 
 Total Free Energy (H0 + V/2 + non-elec)     =    -723.05879923 hartree
                                             = -453726.24460631 kcal/mol
***********************************************************

 <S^2> = 0.3096
 SCF time:  CPU 8190.64 s  wall 619.10 s
 SCF   energy in the final basis set = -723.05879923
 Total energy in the final basis set = -723.05879923
 
 --------------------------------------------------------------
 
                    Orbital Energies (a.u.)
 --------------------------------------------------------------
 
 Alpha MOs
 -- Occupied --
-19.111 -19.099 -19.087 -19.081 -19.057 -19.055 -19.054 -10.245
-10.242 -10.149 -10.149 -10.139  -1.030  -1.012  -0.971  -0.946
 -0.922  -0.860  -0.763  -0.705  -0.694  -0.642  -0.536  -0.495
 -0.472  -0.455  -0.448  -0.424  -0.419  -0.404  -0.401  -0.389
 -0.372  -0.353  -0.347  -0.338  -0.333  -0.321  -0.320  -0.299
 -0.279  -0.267  -0.249  -0.247  -0.239  -0.233  -0.225  -0.153
 -0.137
 -- Virtual --
 -0.069   0.008   0.021   0.027   0.034   0.040   0.045   0.050
  0.056   0.064   0.069   0.073   0.078   0.085   0.087   0.098
  0.099   0.102   0.113   0.116   0.123   0.127   0.133   0.137
  0.141   0.145   0.151   0.160   0.163   0.169   0.170   0.181
  0.184   0.188   0.193   0.195   0.207   0.211   0.217   0.221
  0.225   0.232   0.232   0.238   0.245   0.248   0.254   0.260
  0.265   0.273   0.277   0.282   0.284   0.287   0.294   0.297
  0.304   0.310   0.314   0.317   0.320   0.329   0.331   0.336
  0.339   0.347   0.351   0.354   0.357   0.370   0.374   0.377
  0.382   0.387   0.391   0.397   0.402   0.406   0.407   0.419
  0.423   0.429   0.431   0.435   0.439   0.444   0.450   0.451
  0.458   0.465   0.470   0.473   0.479   0.481   0.485   0.487
  0.496   0.498   0.505   0.507   0.513   0.514   0.520   0.524
  0.527   0.534   0.536   0.542   0.550   0.555   0.556   0.560
  0.570   0.577   0.587   0.594   0.601   0.602   0.605   0.616
  0.628   0.631   0.634   0.639   0.647   0.653   0.657   0.662
  0.669   0.681   0.689   0.692   0.696   0.696   0.700   0.709
  0.716   0.728   0.734   0.737   0.745   0.746   0.755   0.761
  0.765   0.769   0.774   0.783   0.785   0.788   0.797   0.805
  0.808   0.810   0.822   0.824   0.831   0.850   0.854   0.872
  0.877   0.883   0.889   0.902   0.907   0.912   0.919   0.932
  0.941   0.952   0.958   0.964   0.971   0.978   0.992   1.005
  1.012   1.034   1.038   1.047   1.060   1.067   1.081   1.085
  1.096   1.101   1.107   1.118   1.128   1.135   1.151   1.156
  1.161   1.198   1.206   1.224   1.230   1.243   1.251   1.259
  1.284   1.291   1.298   1.327   1.343   1.344   1.346   1.359
  1.382   1.395   1.411   1.430   1.440   1.471   1.487   1.499
  1.511   1.540   1.578   1.580   1.606   1.617   1.655   1.661
  1.708   1.722   1.745   1.755   1.764   1.772   1.780   1.795
  1.813   1.817   1.835   1.839   1.850   1.861   1.866   1.875
  1.893   1.900   1.907   1.922   1.922   1.942   1.947   1.962
  1.981   1.986   2.000   2.009   2.015   2.040   2.053   2.071
  2.095   2.108   2.127   2.141   2.160   2.170   2.185   2.191
  2.196   2.217   2.241   2.250   2.266   2.284   2.306   2.312
  2.333   2.355   2.363   2.376   2.398   2.405   2.407   2.421
  2.437   2.465   2.476   2.492   2.502   2.528   2.546   2.563
  2.574   2.599   2.621   2.639   2.647   2.667   2.677   2.709
  2.743   2.763   2.787   2.800   2.811   2.824   2.848   2.864
  2.884   2.890   2.913   2.914   2.926   2.939   2.958   2.966
  2.972   2.984   3.001   3.018   3.033   3.066   3.082   3.099
  3.112   3.138   3.149   3.158   3.174   3.195   3.209   3.210
  3.243   3.261   3.279   3.289   3.296   3.305   3.340   3.364
  3.375   3.386   3.412   3.424   3.431   3.443   3.444   3.471
  3.479   3.492   3.501   3.514   3.538   3.548   3.553   3.579
  3.596   3.606   3.608   3.624   3.625   3.643   3.652   3.679
  3.692   3.704   3.715   3.738   3.748   3.787   3.796   3.828
  3.848   3.912   3.918   3.954   4.014   4.039   4.067   4.112
  4.154   4.168   4.191   4.198   4.230   4.257   4.274   4.335
  4.358   4.497   4.552   4.575   4.582   4.620   4.681   4.707
  4.711   4.733   4.783   4.838   4.845   4.892   4.918   4.930
  4.963   5.002   5.022   5.088   5.096   5.130   5.162   5.204
  5.214   5.225   5.240   5.249   5.252   5.255   5.269   5.284
  5.290   5.327   5.370   5.390   5.414   5.438   5.466   5.497
  5.505   5.524   5.567   5.574   5.602   5.617   5.651   5.668
  5.679   5.740   5.813   5.889   5.920   5.969   6.022   6.024
  6.129   6.157   6.196   6.211   6.240   6.345   6.401   6.480
  6.492   6.499   6.513   6.519   6.524   6.543   6.561   6.576
  6.587   6.609   6.635   6.649   6.658   6.701   6.732   6.757
  6.839   6.856   6.887   6.909   6.937   6.945   7.018   7.024
  7.105   7.137   7.155   7.179   7.231   7.246   7.278   7.291
  7.301   7.424   7.461   7.580   8.190  22.645  22.794  22.855
 22.947  23.611  43.729  44.132  44.173  44.312  44.355  44.401
 44.475
 
 Beta MOs
 -- Occupied --
-19.104 -19.099 -19.088 -19.082 -19.061 -19.057 -19.054 -10.246
-10.242 -10.149 -10.149 -10.139  -1.025  -1.012  -0.983  -0.937
 -0.922  -0.851  -0.761  -0.711  -0.703  -0.641  -0.535  -0.493
 -0.469  -0.454  -0.446  -0.427  -0.419  -0.404  -0.400  -0.388
 -0.372  -0.353  -0.348  -0.344  -0.333  -0.321  -0.318  -0.303
 -0.281  -0.263  -0.247  -0.246  -0.238  -0.232  -0.225  -0.173
 -0.155
 -- Virtual --
 -0.039   0.008   0.022   0.027   0.034   0.040   0.045   0.051
  0.056   0.064   0.069   0.073   0.078   0.085   0.087   0.097
  0.099   0.102   0.112   0.115   0.123   0.127   0.132   0.137
  0.140   0.145   0.150   0.160   0.163   0.168   0.169   0.181
  0.184   0.188   0.193   0.195   0.207   0.211   0.217   0.220
  0.225   0.232   0.233   0.238   0.245   0.248   0.254   0.260
  0.265   0.273   0.277   0.281   0.285   0.287   0.294   0.297
  0.304   0.310   0.315   0.318   0.320   0.329   0.331   0.336
  0.339   0.347   0.351   0.354   0.357   0.370   0.374   0.377
  0.382   0.387   0.391   0.397   0.402   0.406   0.407   0.419
  0.424   0.429   0.430   0.435   0.439   0.444   0.450   0.451
  0.458   0.465   0.469   0.472   0.478   0.481   0.484   0.487
  0.496   0.498   0.505   0.506   0.511   0.514   0.520   0.524
  0.527   0.534   0.536   0.542   0.550   0.554   0.556   0.560
  0.570   0.577   0.587   0.594   0.601   0.602   0.605   0.616
  0.628   0.631   0.634   0.639   0.648   0.653   0.657   0.662
  0.669   0.681   0.689   0.692   0.696   0.697   0.700   0.709
  0.717   0.728   0.734   0.737   0.745   0.746   0.756   0.761
  0.765   0.769   0.774   0.783   0.785   0.788   0.797   0.805
  0.808   0.810   0.822   0.825   0.831   0.851   0.854   0.871
  0.877   0.882   0.889   0.902   0.907   0.913   0.918   0.933
  0.941   0.951   0.958   0.964   0.971   0.978   0.993   1.005
  1.012   1.034   1.037   1.047   1.060   1.067   1.081   1.085
  1.096   1.101   1.108   1.119   1.128   1.135   1.151   1.156
  1.161   1.198   1.206   1.225   1.230   1.243   1.251   1.258
  1.286   1.292   1.301   1.328   1.343   1.344   1.345   1.360
  1.383   1.396   1.412   1.430   1.441   1.472   1.488   1.499
  1.512   1.540   1.579   1.580   1.603   1.616   1.656   1.659
  1.709   1.721   1.744   1.752   1.761   1.771   1.780   1.795
  1.814   1.816   1.836   1.840   1.848   1.858   1.867   1.874
  1.892   1.901   1.907   1.921   1.922   1.942   1.946   1.963
  1.979   1.985   2.003   2.009   2.016   2.040   2.053   2.072
  2.096   2.108   2.128   2.142   2.160   2.170   2.181   2.191
  2.196   2.217   2.241   2.250   2.267   2.284   2.308   2.312
  2.333   2.356   2.363   2.377   2.399   2.406   2.407   2.422
  2.438   2.465   2.476   2.490   2.503   2.526   2.546   2.565
  2.574   2.600   2.621   2.639   2.647   2.667   2.677   2.709
  2.743   2.763   2.787   2.800   2.811   2.823   2.848   2.865
  2.884   2.891   2.904   2.914   2.924   2.939   2.956   2.968
  2.971   2.983   3.001   3.019   3.028   3.063   3.083   3.099
  3.111   3.140   3.149   3.158   3.174   3.195   3.209   3.211
  3.244   3.262   3.279   3.284   3.297   3.305   3.339   3.364
  3.376   3.386   3.413   3.424   3.431   3.442   3.444   3.472
  3.480   3.492   3.501   3.513   3.538   3.548   3.554   3.579
  3.597   3.606   3.608   3.624   3.625   3.643   3.653   3.681
  3.693   3.704   3.715   3.739   3.748   3.788   3.796   3.831
  3.849   3.913   3.924   3.957   4.015   4.039   4.067   4.112
  4.154   4.169   4.185   4.198   4.230   4.255   4.274   4.335
  4.359   4.497   4.552   4.576   4.582   4.620   4.682   4.708
  4.711   4.733   4.783   4.831   4.847   4.885   4.918   4.932
  4.954   4.994   5.022   5.083   5.100   5.133   5.165   5.209
  5.214   5.218   5.233   5.248   5.254   5.255   5.270   5.285
  5.291   5.332   5.373   5.390   5.408   5.442   5.470   5.488
  5.507   5.525   5.562   5.578   5.602   5.617   5.649   5.668
  5.687   5.745   5.816   5.889   5.925   5.978   6.009   6.020
  6.129   6.161   6.196   6.212   6.242   6.345   6.392   6.462
  6.476   6.499   6.507   6.513   6.519   6.537   6.563   6.579
  6.593   6.604   6.634   6.649   6.657   6.700   6.745   6.772
  6.839   6.856   6.891   6.913   6.934   6.937   7.011   7.031
  7.109   7.136   7.148   7.181   7.225   7.246   7.279   7.291
  7.308   7.426   7.458   7.594   8.186  22.645  22.794  22.855
 22.947  23.611  43.723  44.134  44.173  44.312  44.351  44.404
 44.478
 --------------------------------------------------------------
 
          Ground-State Mulliken Net Atomic Charges

     Atom                 Charge (a.u.)    Spin (a.u.)
  --------------------------------------------------------
      1 C                     0.208192      -0.000109
      2 O                    -0.781726      -0.000095
      3 O                    -0.757987      -0.000235
      4 C                    -0.459510       0.001794
      5 H                     0.256475       0.000828
      6 H                     0.242048       0.001805
      7 C                    -0.410299       0.025609
      8 H                     0.213480       0.002251
      9 H                     0.192704       0.002248
     10 C                     1.767127      -0.013002
     11 C                    -1.816950      -0.005222
     12 H                     0.358572      -0.001305
     13 H                     0.356068       0.001962
     14 H                     0.299598      -0.001042
     15 O                    -0.703152       0.001696
     16 O                    -0.602565       0.229922
     17 H                     0.407560      -0.001479
     18 O                    -0.817612       0.131880
     19 H                     0.378693       0.006546
     20 O                    -0.542403      -0.203436
     21 O                    -0.788312      -0.180616
  --------------------------------------------------------
  Sum of atomic charges =    -3.000000
  Sum of spin   charges =     0.000000

 -----------------------------------------------------------------
                    Cartesian Multipole Moments
 -----------------------------------------------------------------
    Charge (ESU x 10^10)
               -14.4096
    Dipole Moment (Debye)
         X      -3.3627      Y     -10.7514      Z     -11.0400
       Tot      15.7728
    Quadrupole Moments (Debye-Ang)
        XX     -94.7552     XY       8.0350     YY    -113.4623
        XZ      29.0250     YZ      -8.7040     ZZ    -290.0791
    Octopole Moments (Debye-Ang^2)
       XXX     -39.4751    XXY     -22.9794    XYY      -8.4071
       YYY     -92.4101    XXZ     -31.8251    XYZ      29.1976
       YYZ      -3.0575    XZZ       9.7857    YZZ    -243.3598
       ZZZ    -166.5772
    Hexadecapole Moments (Debye-Ang^3)
      XXXX    -454.7372   XXXY      53.6434   XXYY    -200.6406
      XYYY      68.6500   YYYY    -806.9973   XXXZ     265.1603
      XXYZ     -14.3943   XYYZ     141.5386   YYYZ     110.7515
      XXZZ    -906.6414   XYZZ     128.4496   YYZZ   -1211.3848
      XZZZ     891.0413   YZZZ    -129.9711   ZZZZ   -7700.8467
 -----------------------------------------------------------------
 Calculating analytic gradient of the SCF energy
 Gradient of SCF Energy
            1           2           3           4           5           6
    1   0.0043472   0.0082007  -0.0224405  -0.0932047   0.0746271  -0.0389861
    2  -0.0295646  -0.0429055   0.0453536   0.1557358  -0.0003467  -0.0651904
    3  -0.0327144   0.0298133   0.0261765   0.0822718   0.0058603  -0.0392048
            7           8           9          10          11          12
    1   0.2474034  -0.0832477   0.0441012  -0.1174791  -0.1729352   0.0304149
    2  -0.2246608   0.0063641   0.0643705   0.0376278   0.0631366  -0.1291252
    3  -0.1166753  -0.0025354   0.0300093  -0.0029366   0.1202880   0.0352425
           13          14          15          16          17          18
    1   0.0261260   0.0495067   0.0275754   0.0037157  -0.0105697  -0.0018167
    2   0.0224813   0.0845670   0.0007847   0.0336889  -0.0087953   0.0080669
    3  -0.1374109   0.0641193   0.0417113  -0.0488686  -0.1000481   0.0910538
           19          20          21
    1   0.0168798   0.0215409  -0.0137592
    2  -0.0067435  -0.0970186   0.0821732
    3  -0.0345124  -0.0097717  -0.0018679
 Max gradient component =       2.474E-01
 RMS gradient           =       7.550E-02
 Computing fast CPCM-ISWIG gradient
 Updating gradient with PCM contributions...
 -- total gradient after adding PCM contribution --
---------------------------------------------------
  Atom         X              Y              Z     
---------------------------------------------------
   1      -0.000636       0.000291       0.000139
   2       0.000157      -0.000117       0.000026
   3       0.000222      -0.000241      -0.000158
   4       0.000164       0.000007      -0.000023
   5       0.000009       0.000003      -0.000061
   6      -0.000004      -0.000015       0.000018
   7      -0.000020      -0.000003       0.000019
   8      -0.000016      -0.000021      -0.000012
   9      -0.000029      -0.000009       0.000002
  10       0.000001      -0.000008      -0.000004
  11       0.000000       0.000014       0.000013
  12       0.000006       0.000017       0.000013
  13       0.000008       0.000019       0.000016
  14      -0.000012       0.000016       0.000022
  15      -0.000012      -0.000006       0.000004
  16       0.000011      -0.000005      -0.000005
  17       0.000001      -0.000003      -0.000003
  18       0.000025       0.000001      -0.000011
  19       0.000029       0.000011       0.000001
  20       0.000042       0.000021       0.000004
  21       0.000054       0.000028       0.000002
---------------------------------------------------
 Number of fixed atoms: 0
 Gradient time:  CPU 1118.21 s  wall 85.09 s
 Adding empirical dispersion correction 
 ----------------------------------------------------------------
 Doing -D3(BJ) with
 s6 =   1.00000
 s8 =   1.98890
 a1 =   0.39810
 a2 =   4.42110
 -D3 energy without 3body term =     -0.0306979175 hartrees
 ----------------------------------------------------------------
             Standard Nuclear Orientation (Angstroms)
    I     Atom           X                Y                Z
 ----------------------------------------------------------------
    1      C       0.4896174721     0.9345027394    -3.3765187097
    2      O       0.2319549758     2.0550288498    -3.8974854120
    3      O       0.9926862780    -0.0498280642    -3.9790057245
    4      C       0.1303474574     0.7883555104    -1.8868453222
    5      H      -0.9574001929     0.8786815139    -1.8233963774
    6      H       0.5309285826     1.6602778494    -1.3656902427
    7      C       0.5994832749    -0.4930171712    -1.2117471238
    8      H       1.6820332063    -0.5924910727    -1.3098657795
    9      H       0.1528838638    -1.3597003005    -1.7046107669
   10      C       0.2721993619    -0.5966472771     0.2845547178
   11      C      -1.2331477220    -0.5619039403     0.5632123081
   12      H      -1.6593248309     0.4014835991     0.2814492020
   13      H      -1.4073602763    -0.7185189725     1.6268358923
   14      H      -1.7440598583    -1.3466325101     0.0019936662
   15      O       0.7928125618    -1.8612597208     0.7314955055
   16      O       0.9487150280     0.4258939837     0.9480585962
   17      H       0.9435919388    -1.6619975320     1.6801916735
   18      O       0.9616242818    -0.0510109086     2.6427506445
   19      H       0.0480574845     0.1595765717     3.2571987107
   20      O      -0.7735065588     0.2905588709     4.2326995319
   21      O      -1.0021363268     1.6996479798     4.3047250102
 ----------------------------------------------------------------
 Nuclear Repulsion Energy =   713.6399965104 hartrees
 There are       49 alpha and       49 beta electrons
 Discretize the solute cavity surface with Lebedev spheres
	Using 110 Lebedev grid points for each H atom
	Using 110 Lebedev grid points for other atoms
	Atomic van der Waals radii will be scaled by 1.20
 Remove points where switching function is < 1.0e-08
 Keep 1254 surface tesserae and discard 1056 interior tesserae
 Molecular Surface Area = 230.174 Angst**2
 Requested basis set is def2-TZVPD
 There are 208 shells and 546 basis functions
 A cutoff of  1.0D-14 yielded  18669 shell pairs
 There are    126803 function pairs (    160407 Cartesian)
 Smallest overlap matrix eigenvalue = 2.10E-06
 Guess MOs from SCF MO coefficient file
 Reading MOs from coefficient file
 Reading MOs from coefficient file
 An unrestricted hybrid HF-DFT SCF calculation will be
 performed using Pulay DIIS extrapolation
 Polarizable Continuum solvation model will be applied
 Exchange:     0.2000 Hartree-Fock + 0.0800 Slater + 0.7200 B88
 Correlation:  0.1900 VWN1RPA + 0.8100 LYP
 Using SG-1 standard quadrature grid
 Dispersion:   Grimme D3
 SCF converges when DIIS error is below 1.0E-08
Using Q-Chem read-in guess as SCF_GUESS READ specified.

 using 16 threads for integral computing
 -------------------------------------------------------
 OpenMP Integral computing Module                
 Release: version 1.0, May 2013, Q-Chem Inc. Pittsburgh 
 -------------------------------------------------------
 -------------------------------------------------------
 OpenMP BLAS3 based DFT computing Module                
 Release: version 1.0, May 2013, Q-Chem Inc. Pittsburgh 
 -------------------------------------------------------
 ---------------------------------------
  Cycle       Energy         DIIS Error
 ---------------------------------------
    1    -722.4559742214      3.65E-04
    2    -722.7363603478      1.86E-03
    3    -723.0408219437      4.27E-04
    4    -723.0514219115      3.11E-04
    5    -723.0547799243      1.67E-04
    6    -723.0564855086      1.34E-04
    7    -723.0572030882      1.09E-04
    8    -723.0577725718      8.53E-05
    9    -723.0581545601      6.51E-05
   10    -723.0585081877      4.01E-05
   11    -723.0586382174      2.91E-05
   12    -723.0586385136      2.90E-05
   13    -723.0586694273      2.60E-05
   14    -723.0587240714      1.97E-05
   15    -723.0587661075      1.29E-05
   16    -723.0587922610      5.46E-06
   17    -723.0587982691      6.58E-07
   18    -723.0587983969      7.49E-07
   19    -723.0587984978      4.62E-07
   20    -723.0587985540      2.00E-07
   21    -723.0587985747      5.27E-08
   22    -723.0587985811      8.87E-08
   23    -723.0587985862      4.12E-08
   24    -723.0587985882      2.44E-08
   25    -723.0587985883      1.16E-08
   26    -723.0587985884      5.62E-09 Convergence criterion met
 ---------------------------------------

************** Final PCM Free Energy Summary **************
 G_electrostatic  =      -0.60303086 hartree =    -378.40757751 kcal/mol
 G_cavitation     =       0.00000000 hartree =       0.00000000 kcal/mol
 G_dispersion     =       0.00000000 hartree =       0.00000000 kcal/mol
 G_repulsion      =       0.00000000 hartree =       0.00000000 kcal/mol
 --------------------------------------------------
 Non-electrostatic Free Energy =       0.00000000 hartree =       0.00000000 kcal/mol
 Total                         =      -0.60303086 hartree =    -378.40757751 kcal/mol
 --------------------------------------------------
 SCF Energy (H0 + V/2)                       =    -723.05879859 
 Solute Internal Energy (H0)                 =    -722.45576773 
 Total Free Energy (H0 + V/2 + non-elec)     =    -723.05879859 hartree
                                             = -453726.24420410 kcal/mol
***********************************************************

 <S^2> = 0.3095
 SCF time:  CPU 8208.31 s  wall 623.70 s
 SCF   energy in the final basis set = -723.05879859
 Total energy in the final basis set = -723.05879859
 
 --------------------------------------------------------------
 
                    Orbital Energies (a.u.)
 --------------------------------------------------------------
 
 Alpha MOs
 -- Occupied --
-19.111 -19.099 -19.087 -19.081 -19.057 -19.055 -19.054 -10.245
-10.242 -10.149 -10.149 -10.139  -1.030  -1.012  -0.971  -0.946
 -0.922  -0.860  -0.763  -0.705  -0.694  -0.642  -0.536  -0.495
 -0.472  -0.455  -0.448  -0.424  -0.419  -0.404  -0.401  -0.389
 -0.372  -0.353  -0.347  -0.338  -0.333  -0.321  -0.320  -0.299
 -0.279  -0.267  -0.249  -0.247  -0.239  -0.233  -0.225  -0.153
 -0.137
 -- Virtual --
 -0.069   0.008   0.021   0.027   0.034   0.040   0.045   0.050
  0.056   0.064   0.069   0.073   0.078   0.085   0.087   0.098
  0.099   0.102   0.113   0.116   0.123   0.127   0.133   0.137
  0.141   0.145   0.151   0.160   0.163   0.169   0.170   0.181
  0.184   0.187   0.193   0.195   0.207   0.211   0.217   0.221
  0.225   0.232   0.232   0.238   0.245   0.248   0.254   0.260
  0.265   0.273   0.277   0.282   0.284   0.287   0.294   0.297
  0.304   0.310   0.314   0.317   0.320   0.329   0.331   0.336
  0.339   0.347   0.351   0.354   0.357   0.370   0.374   0.377
  0.382   0.387   0.391   0.397   0.402   0.406   0.407   0.419
  0.423   0.429   0.431   0.435   0.439   0.444   0.450   0.451
  0.458   0.465   0.470   0.473   0.479   0.481   0.484   0.487
  0.496   0.498   0.505   0.507   0.513   0.514   0.520   0.524
  0.527   0.534   0.536   0.542   0.550   0.555   0.556   0.560
  0.570   0.577   0.587   0.594   0.601   0.602   0.605   0.616
  0.628   0.631   0.634   0.639   0.647   0.653   0.657   0.662
  0.669   0.681   0.689   0.692   0.696   0.697   0.700   0.709
  0.716   0.728   0.734   0.737   0.745   0.746   0.755   0.761
  0.765   0.769   0.774   0.783   0.785   0.788   0.797   0.805
  0.808   0.810   0.822   0.824   0.831   0.850   0.854   0.872
  0.877   0.883   0.889   0.902   0.907   0.912   0.919   0.932
  0.941   0.952   0.958   0.964   0.971   0.978   0.992   1.005
  1.012   1.034   1.038   1.047   1.060   1.067   1.081   1.085
  1.096   1.101   1.107   1.118   1.128   1.135   1.151   1.156
  1.161   1.198   1.205   1.224   1.230   1.243   1.251   1.259
  1.284   1.291   1.298   1.327   1.343   1.344   1.346   1.359
  1.382   1.395   1.411   1.430   1.440   1.471   1.488   1.499
  1.511   1.540   1.578   1.580   1.606   1.617   1.655   1.661
  1.708   1.722   1.745   1.755   1.764   1.772   1.780   1.795
  1.813   1.817   1.835   1.839   1.850   1.861   1.866   1.875
  1.893   1.900   1.907   1.922   1.922   1.942   1.947   1.962
  1.981   1.986   2.000   2.009   2.015   2.040   2.053   2.071
  2.095   2.108   2.126   2.141   2.160   2.170   2.185   2.191
  2.196   2.217   2.240   2.250   2.266   2.284   2.306   2.312
  2.333   2.355   2.363   2.377   2.398   2.405   2.407   2.421
  2.437   2.465   2.476   2.492   2.502   2.528   2.546   2.563
  2.574   2.599   2.621   2.639   2.647   2.667   2.677   2.709
  2.743   2.763   2.787   2.800   2.811   2.824   2.848   2.864
  2.884   2.890   2.913   2.914   2.926   2.939   2.958   2.966
  2.972   2.984   3.001   3.018   3.033   3.066   3.082   3.099
  3.112   3.139   3.149   3.158   3.174   3.195   3.209   3.210
  3.243   3.261   3.279   3.289   3.296   3.305   3.340   3.364
  3.375   3.386   3.412   3.424   3.431   3.443   3.444   3.471
  3.480   3.492   3.501   3.514   3.538   3.548   3.553   3.579
  3.596   3.606   3.608   3.624   3.625   3.643   3.652   3.679
  3.691   3.704   3.715   3.738   3.748   3.787   3.796   3.828
  3.847   3.912   3.918   3.954   4.014   4.039   4.067   4.112
  4.154   4.168   4.191   4.198   4.230   4.257   4.274   4.335
  4.358   4.496   4.552   4.575   4.581   4.619   4.682   4.707
  4.711   4.733   4.782   4.838   4.845   4.892   4.918   4.930
  4.963   5.002   5.022   5.088   5.096   5.130   5.162   5.204
  5.214   5.225   5.240   5.249   5.252   5.255   5.268   5.284
[...]
 O          0.016 -0.039  0.009    0.007  0.033  0.019    0.005 -0.002 -0.002
 O          0.018 -0.022  0.012    0.021  0.005 -0.016    0.011  0.006  0.007
 H         -0.057  0.106 -0.014    0.188 -0.499  0.059    0.018  0.045 -0.014
 O          0.002  0.000 -0.007   -0.008 -0.010 -0.005   -0.034 -0.008 -0.000
 H          0.014  0.016  0.011    0.082  0.113  0.052    0.526  0.720  0.234
 O          0.000 -0.008  0.000   -0.003  0.003 -0.001   -0.007 -0.034 -0.007
 O         -0.001  0.007  0.000    0.002 -0.008 -0.002    0.006  0.002 -0.009
 TransDip  -0.179  0.350  0.015    0.033 -0.199  0.052    0.118  0.168 -0.099

 Mode:                37                     38                     39
 Frequency:      1238.94                1268.36                1312.84
 Force Cnst:      1.5314                 1.3419                 1.1717
 Red. Mass:       1.6933                 1.4157                 1.1539
 IR Active:          YES                    YES                    YES
 IR Intens:      180.095                 11.262                 21.559
 Raman Active:       YES                    YES                    YES
               X      Y      Z        X      Y      Z        X      Y      Z
 C          0.041  0.004  0.015    0.016  0.030 -0.024    0.027  0.008  0.010
 O         -0.009  0.014 -0.012    0.006 -0.045  0.026   -0.004  0.001 -0.002
 O         -0.008  0.001  0.002   -0.004  0.003 -0.000   -0.003 -0.002 -0.002
 C          0.006 -0.021  0.029   -0.010  0.065 -0.095    0.050  0.029  0.015
 H          0.006 -0.156  0.195   -0.001 -0.274  0.536    0.042 -0.340  0.359
 H         -0.024  0.296 -0.484   -0.030 -0.198  0.369   -0.090  0.301 -0.333
 C         -0.086 -0.052  0.026   -0.040  0.061 -0.063   -0.042 -0.021 -0.030
 H         -0.048  0.048  0.274   -0.012 -0.219  0.495   -0.044  0.321 -0.371
 H          0.110  0.057 -0.328    0.020 -0.167  0.281    0.100 -0.336  0.388
 C          0.181  0.067 -0.048    0.074 -0.051  0.011   -0.064 -0.024  0.018
 C         -0.034 -0.020  0.017   -0.007  0.015 -0.014    0.007  0.006 -0.005
 H         -0.036 -0.013  0.007   -0.113 -0.012  0.054    0.032  0.013 -0.004
 H         -0.140  0.064  0.012   -0.020 -0.021 -0.018    0.044 -0.013 -0.002
 H         -0.126  0.055 -0.011   -0.042 -0.018  0.057    0.059 -0.026 -0.003
 O         -0.019  0.001 -0.001   -0.008  0.006  0.002    0.007 -0.006 -0.005
 O         -0.031 -0.035  0.012   -0.007  0.004 -0.003    0.010  0.010 -0.001
 H          0.016  0.073 -0.023    0.010 -0.024  0.008   -0.032  0.067 -0.006
 O         -0.017  0.000 -0.010   -0.002 -0.001  0.001    0.001 -0.000  0.003
 H          0.307  0.415  0.187    0.019  0.031  0.002   -0.015 -0.019 -0.028
 O         -0.003 -0.034 -0.005   -0.001  0.001 -0.000    0.000  0.005  0.001
 O          0.001  0.016 -0.004    0.001 -0.002 -0.000    0.000 -0.004  0.000
 TransDip   0.183  0.243  0.303    0.066  0.064 -0.056   -0.032 -0.063 -0.131

 Mode:                40                     41                     42
 Frequency:      1357.93                1376.63                1387.92
 Force Cnst:      1.9071                 2.0775                 1.4796
 Red. Mass:       1.7553                 1.8606                 1.3037
 IR Active:          YES                    YES                    YES
 IR Intens:      109.692                823.301                 29.190
 Raman Active:       YES                    YES                    YES
               X      Y      Z        X      Y      Z        X      Y      Z
 C          0.015  0.040 -0.092   -0.029 -0.017  0.134   -0.007 -0.006  0.038
 O          0.012 -0.068  0.042   -0.011  0.058 -0.036   -0.004  0.017 -0.011
 O         -0.018  0.030  0.026    0.030 -0.052 -0.044    0.008 -0.014 -0.012
 C          0.008  0.049 -0.111    0.001  0.011 -0.046   -0.001 -0.000 -0.008
 H          0.017 -0.132  0.397    0.007  0.055  0.060    0.001  0.008  0.023
 H         -0.085 -0.168  0.337   -0.060 -0.034  0.081   -0.013 -0.005  0.010
 C         -0.002 -0.080  0.151    0.009 -0.018 -0.020   -0.008  0.010 -0.011
 H         -0.030  0.224 -0.490    0.013 -0.020 -0.001   -0.004 -0.067  0.090
 H          0.050  0.242 -0.465    0.015  0.054 -0.148    0.030 -0.015 -0.002
 C         -0.004  0.039 -0.001    0.012 -0.000  0.167    0.038 -0.005  0.003
 C         -0.013 -0.011  0.006    0.018  0.003 -0.058   -0.147 -0.005  0.029
 H          0.075  0.023 -0.010   -0.048  0.057  0.231    0.475  0.207 -0.144
 H          0.046  0.051  0.023   -0.025  0.024 -0.048    0.522  0.045  0.134
 H          0.057  0.000 -0.064   -0.073 -0.111  0.193    0.502 -0.169 -0.301
 O          0.002 -0.006 -0.014    0.006 -0.048 -0.060   -0.002 -0.003 -0.003
 O         -0.003 -0.010  0.002   -0.003 -0.003  0.002   -0.003 -0.000  0.002
 H         -0.045  0.136 -0.026   -0.313  0.807 -0.104   -0.026  0.054 -0.005
 O         -0.000  0.003 -0.004   -0.004  0.011 -0.011   -0.000  0.002 -0.001
 H          0.011 -0.021  0.029    0.046 -0.053  0.052   -0.000 -0.039 -0.002
 O          0.001 -0.006 -0.001    0.004 -0.014 -0.005    0.001 -0.001 -0.000
 O         -0.001  0.007  0.001   -0.003  0.016  0.002   -0.001  0.002  0.001
 TransDip  -0.087  0.324 -0.009   -0.303  0.368  0.786    0.130  0.015  0.113

 Mode:                43                     44                     45
 Frequency:      1392.19                1449.17                1468.40
 Force Cnst:      3.8967                 1.3873                 1.3790
 Red. Mass:       3.4124                 1.1212                 1.0855
 IR Active:          YES                    YES                    YES
 IR Intens:      180.746                 19.301                  1.902
 Raman Active:       YES                    YES                    YES
               X      Y      Z        X      Y      Z        X      Y      Z
 C         -0.060 -0.043  0.300    0.001 -0.024  0.028    0.003 -0.017  0.008
 O         -0.025  0.130 -0.083   -0.004  0.018 -0.010   -0.002  0.010 -0.005
 O          0.063 -0.108 -0.096    0.001 -0.001 -0.003   -0.001  0.003  0.000
 C          0.032  0.027 -0.143   -0.037  0.072 -0.003   -0.017  0.026  0.012
 H          0.056  0.020  0.349   -0.086 -0.584 -0.236   -0.038 -0.220 -0.117
 H         -0.202 -0.089  0.240    0.596 -0.220 -0.039    0.241 -0.077 -0.028
 C         -0.013 -0.009  0.090    0.015 -0.037  0.010   -0.030  0.048  0.021
 H         -0.034  0.100 -0.191    0.044  0.282  0.096   -0.084 -0.451 -0.233
 H          0.006  0.069 -0.058   -0.271  0.114  0.019    0.476 -0.161 -0.097
 C         -0.012  0.000 -0.135    0.003 -0.000 -0.006   -0.005 -0.004  0.024
 C          0.026 -0.005  0.040   -0.004  0.003  0.001    0.015 -0.024  0.014
 H         -0.114 -0.109 -0.132    0.029  0.012 -0.015   -0.236 -0.142 -0.050
 H         -0.120  0.006  0.009   -0.005 -0.035 -0.005    0.156  0.239  0.071
 H         -0.074  0.153 -0.103    0.007 -0.022  0.024   -0.064  0.260 -0.307
 O         -0.004  0.036  0.045   -0.001  0.001 -0.001    0.001 -0.003 -0.004
 O          0.002 -0.001  0.001    0.000 -0.000  0.001    0.000 -0.001 -0.000
 H          0.231 -0.596  0.078    0.001  0.002 -0.002   -0.023  0.051 -0.005
 O          0.003 -0.007  0.006    0.000 -0.000  0.000   -0.003  0.003 -0.002
 H         -0.032  0.039 -0.020   -0.003  0.008 -0.002    0.024 -0.052  0.020
 O         -0.003  0.006  0.003   -0.000  0.000  0.000    0.002 -0.002 -0.002
 O          0.002 -0.007 -0.001    0.000 -0.000 -0.000   -0.001  0.003  0.001
 TransDip  -0.044 -0.272  0.331    0.057 -0.129  0.003    0.011 -0.041  0.013

 Mode:                46                     47                     48
 Frequency:      1472.57                1490.97                1538.47
 Force Cnst:      1.3822                 1.3805                 1.6197
 Red. Mass:       1.0818                 1.0541                 1.1614
 IR Active:          YES                    YES                    YES
 IR Intens:       37.307                 13.656                442.950
 Raman Active:       YES                    YES                    YES
               X      Y      Z        X      Y      Z        X      Y      Z
 C          0.002 -0.012  0.007    0.001 -0.005 -0.003   -0.007  0.018  0.003
 O         -0.002  0.008 -0.004    0.000  0.001 -0.000    0.001 -0.006  0.002
 O         -0.000  0.001 -0.001   -0.001  0.003  0.002    0.004 -0.007 -0.004
 C         -0.009  0.014  0.005    0.002 -0.001  0.001   -0.000 -0.001 -0.000
 H         -0.019 -0.116 -0.055    0.003  0.012 -0.018   -0.002 -0.005 -0.009
 H          0.124 -0.045 -0.006   -0.005  0.002  0.000    0.010 -0.002 -0.005
 C         -0.023  0.032  0.030    0.004 -0.002  0.002   -0.002 -0.002  0.002
 H         -0.065 -0.321 -0.188    0.008  0.056  0.016   -0.004 -0.017 -0.009
 H          0.349 -0.108 -0.078   -0.057  0.011  0.034    0.025  0.004 -0.030
 C         -0.003  0.019 -0.037   -0.005 -0.017 -0.029    0.009  0.012  0.018
 C         -0.011  0.027 -0.029    0.001 -0.040 -0.034   -0.002 -0.002  0.001
 H          0.308  0.213  0.173   -0.087  0.134  0.649   -0.010 -0.019 -0.047
 H         -0.274 -0.257 -0.105   -0.200  0.607  0.039    0.051 -0.010  0.008
 H          0.103 -0.377  0.433    0.287 -0.126 -0.140   -0.027  0.034 -0.023
 O         -0.001  0.005  0.009   -0.001  0.005  0.006    0.000 -0.007 -0.004
 O         -0.001 -0.003 -0.001   -0.001  0.002 -0.002   -0.012  0.004 -0.028
 H          0.040 -0.100  0.011    0.041 -0.078  0.009   -0.024  0.089 -0.016
 O          0.002 -0.003  0.002    0.003 -0.003  0.004    0.056 -0.034  0.021
 H         -0.018  0.047 -0.008   -0.038  0.044 -0.036   -0.601  0.653 -0.428
 O         -0.002  0.001  0.002   -0.002  0.003  0.003   -0.021  0.018  0.040
 O          0.001 -0.003 -0.001    0.001 -0.004 -0.001    0.011 -0.035 -0.009
 TransDip   0.078 -0.170 -0.058    0.064 -0.055 -0.082    0.284 -0.099 -0.603

 Mode:                49                     50                     51
 Frequency:      1544.11                3034.92                3040.76
 Force Cnst:     12.2126                 5.6886                 5.7188
 Red. Mass:       8.6936                 1.0482                 1.0498
 IR Active:          YES                    YES                    YES
 IR Intens:     1173.670                  8.690                 34.932
 Raman Active:       YES                    YES                    YES
               X      Y      Z        X      Y      Z        X      Y      Z
 C         -0.250  0.656  0.076   -0.000  0.000 -0.001   -0.000  0.001 -0.001
 O          0.055 -0.219  0.085    0.000 -0.000  0.000    0.000 -0.000  0.000
 O          0.116 -0.235 -0.130   -0.000 -0.000  0.000    0.000 -0.000  0.000
 C          0.007 -0.048  0.031   -0.032  0.022  0.014   -0.036  0.030  0.018
 H         -0.022 -0.128 -0.316    0.505 -0.033 -0.025    0.588 -0.038 -0.030
 H          0.275  0.050 -0.323   -0.119 -0.232 -0.136   -0.159 -0.314 -0.184
 C         -0.012  0.010  0.017    0.012 -0.020 -0.011    0.008 -0.006 -0.004
 H         -0.027 -0.030 -0.030   -0.262  0.018  0.019   -0.134  0.010  0.012
 H          0.051 -0.006  0.004    0.117  0.213  0.121    0.035  0.061  0.034
 C          0.002 -0.007 -0.018   -0.001  0.000  0.001    0.001 -0.000  0.000
 C          0.001 -0.001 -0.001    0.035  0.003  0.001   -0.034 -0.009 -0.000
 H         -0.005  0.012  0.050   -0.149  0.358 -0.104    0.120 -0.295  0.086
 H         -0.032  0.033 -0.001   -0.044 -0.050  0.334    0.046  0.047 -0.333
 H          0.023 -0.017  0.000   -0.218 -0.350 -0.250    0.223  0.357  0.256
 O         -0.000  0.003  0.005    0.000 -0.000 -0.000   -0.000  0.000 -0.000
 O          0.002 -0.000  0.005    0.000  0.000 -0.000   -0.000  0.000 -0.000
 H          0.018 -0.054  0.009    0.000  0.001  0.002   -0.001  0.001 -0.003
 O         -0.011  0.007 -0.003   -0.000 -0.000 -0.000   -0.000 -0.000  0.000
 H          0.123 -0.131  0.085   -0.000  0.000 -0.000    0.003 -0.001 -0.002
 O          0.004 -0.003 -0.008    0.000  0.000  0.000   -0.000  0.000  0.000
 O         -0.002  0.006  0.002   -0.000  0.000 -0.000    0.000 -0.000 -0.000
 TransDip  -0.385  1.024  0.084    0.089  0.031  0.007   -0.137  0.019 -0.129

 Mode:                52                     53                     54
 Frequency:      3044.16                3067.52                3088.85
 Force Cnst:      5.7849                 6.0849                 6.2033
 Red. Mass:       1.0595                 1.0976                 1.1035
 IR Active:          YES                    YES                    YES
 IR Intens:      127.092                 10.223                 87.305
 Raman Active:       YES                    YES                    YES
               X      Y      Z        X      Y      Z        X      Y      Z
 C          0.001 -0.001 -0.001   -0.001 -0.001 -0.000   -0.000 -0.000  0.000
 O         -0.000  0.000  0.000    0.000  0.000  0.000    0.000  0.000  0.000
 O         -0.000  0.001  0.000   -0.000  0.000  0.000    0.000  0.000 -0.000
 C          0.023 -0.011 -0.007   -0.053 -0.045 -0.027   -0.041 -0.027 -0.016
 H         -0.336  0.024  0.018    0.375 -0.038 -0.032    0.327 -0.032 -0.021
 H          0.055  0.103  0.060    0.266  0.585  0.351    0.162  0.359  0.212
 C          0.021 -0.050 -0.031    0.048  0.016  0.008   -0.069 -0.031 -0.016
 H         -0.551  0.037  0.042   -0.459  0.042  0.045    0.617 -0.059 -0.057
 H          0.307  0.567  0.324   -0.119 -0.242 -0.142    0.215  0.431  0.246
 C          0.001 -0.001  0.000    0.001  0.000  0.000   -0.002 -0.001 -0.000
 C         -0.010  0.003  0.000   -0.002 -0.007 -0.000   -0.001 -0.001  0.004
 H          0.051 -0.122  0.036   -0.015  0.033 -0.010   -0.001  0.001  0.001
 H          0.013  0.015 -0.089    0.003  0.000 -0.017    0.008  0.007 -0.049
 H          0.044  0.072  0.051    0.028  0.044  0.033    0.007  0.010  0.007
 O         -0.000  0.000  0.000   -0.000 -0.000 -0.000    0.000  0.000  0.000
 O         -0.000  0.000 -0.000   -0.000  0.000 -0.000    0.000  0.000 -0.000
 H         -0.000  0.001  0.001   -0.000  0.000  0.001    0.000  0.000  0.000
 O         -0.000 -0.000  0.001   -0.000  0.000  0.000   -0.000  0.000  0.000
 H          0.004 -0.001 -0.003    0.000 -0.000 -0.000    0.002 -0.001 -0.002
 O         -0.000  0.000  0.000   -0.000  0.000  0.000   -0.000  0.000  0.000
 O          0.000 -0.000 -0.000    0.000 -0.000 -0.000    0.000 -0.000 -0.000
 TransDip   0.162 -0.250 -0.204    0.036 -0.088 -0.039   -0.236 -0.154 -0.099

 Mode:                55                     56                     57
 Frequency:      3103.79                3120.08                3466.68
 Force Cnst:      6.2478                 6.3232                 7.5411
 Red. Mass:       1.1008                 1.1024                 1.0650
 IR Active:          YES                    YES                    YES
 IR Intens:       73.759                 36.133                813.779
 Raman Active:       YES                    YES                    YES
               X      Y      Z        X      Y      Z        X      Y      Z
 C          0.000 -0.000 -0.000   -0.000 -0.000  0.000    0.000 -0.000 -0.000
 O          0.000 -0.000  0.000   -0.000  0.000 -0.000   -0.000 -0.000  0.000
 O          0.000  0.000  0.000    0.000 -0.000 -0.000   -0.000 -0.000  0.000
 C          0.006  0.001  0.001   -0.004 -0.001 -0.001   -0.000  0.000  0.000
 H         -0.073  0.005  0.005    0.046 -0.004 -0.003    0.001 -0.000 -0.000
 H         -0.005 -0.015 -0.010    0.007  0.016  0.010   -0.000 -0.001 -0.001
 C         -0.003 -0.003 -0.002   -0.002 -0.001  0.000   -0.000 -0.000  0.000
 H          0.016 -0.001 -0.002    0.015 -0.001 -0.001    0.001 -0.000 -0.000
 H          0.019  0.038  0.022    0.004  0.009  0.005   -0.000 -0.001 -0.000
 C         -0.000 -0.002 -0.001    0.000  0.001 -0.002   -0.001  0.003 -0.003
 C         -0.001 -0.085 -0.035   -0.013  0.035 -0.085   -0.000 -0.000  0.000
 H         -0.262  0.590 -0.187    0.195 -0.453  0.121    0.006 -0.007  0.002
 H         -0.040 -0.056  0.248   -0.132 -0.117  0.814   -0.001 -0.000  0.001
 H          0.319  0.486  0.355    0.087  0.148  0.087    0.000 -0.000  0.000
 O          0.000  0.000 -0.000    0.000 -0.000  0.001   -0.010 -0.010 -0.060
 O         -0.000  0.000 -0.000    0.000 -0.000 -0.000   -0.000 -0.001  0.001
 H          0.002 -0.000  0.005    0.002 -0.002 -0.005    0.175  0.122  0.975
 O         -0.000 -0.000  0.000   -0.000 -0.000  0.000   -0.000  0.002 -0.001
 H          0.002 -0.000 -0.001    0.001  0.001  0.001   -0.004  0.007  0.001
 O         -0.000  0.000  0.000   -0.000  0.000 -0.000    0.000 -0.001 -0.000
 O          0.000 -0.000 -0.000   -0.000 -0.000 -0.000   -0.000  0.001  0.000
 TransDip   0.030 -0.242 -0.127   -0.028  0.068 -0.178   -0.104  0.412  0.809

 STANDARD THERMODYNAMIC QUANTITIES AT   298.15 K  AND     1.00 ATM

   This Molecule has  1 Imaginary Frequencies
   Zero point vibrational energy:       89.461 kcal/mol

   Atom    1 Element C  Has Mass   12.00000
   Atom    2 Element O  Has Mass   15.99491
   Atom    3 Element O  Has Mass   15.99491
   Atom    4 Element C  Has Mass   12.00000
   Atom    5 Element H  Has Mass    1.00783
   Atom    6 Element H  Has Mass    1.00783
   Atom    7 Element C  Has Mass   12.00000
   Atom    8 Element H  Has Mass    1.00783
   Atom    9 Element H  Has Mass    1.00783
   Atom   10 Element C  Has Mass   12.00000
   Atom   11 Element C  Has Mass   12.00000
   Atom   12 Element H  Has Mass    1.00783
   Atom   13 Element H  Has Mass    1.00783
   Atom   14 Element H  Has Mass    1.00783
   Atom   15 Element O  Has Mass   15.99491
   Atom   16 Element O  Has Mass   15.99491
   Atom   17 Element H  Has Mass    1.00783
   Atom   18 Element O  Has Mass   15.99491
   Atom   19 Element H  Has Mass    1.00783
   Atom   20 Element O  Has Mass   15.99491
   Atom   21 Element O  Has Mass   15.99491
   Molecular Mass:   181.034840 amu
   Principal axes and moments of inertia in amu*Bohr^2:
                             1           2           3
    Eigenvalues --     1045.67080  5499.77184  6027.54396
          X              -0.12924    -0.35117     0.92735
          Y              -0.04842     0.93631     0.34782
          Z               0.99043    -0.00005     0.13802
   Rotational Symmetry Number is   1
   The Molecule is an Asymmetric Top
   Translational Enthalpy:        0.889 kcal/mol
   Rotational Enthalpy:           0.889 kcal/mol
   Vibrational Enthalpy:         96.526 kcal/mol
   gas constant (RT):             0.592 kcal/mol
   Translational Entropy:        41.487  cal/mol.K
   Rotational Entropy:           31.916  cal/mol.K
   Vibrational Entropy:          49.888  cal/mol.K

   Total Enthalpy:               98.896 kcal/mol
   Total Entropy:               123.291  cal/mol.K
Archival summary:
1\1\c4-89\FREQ\ProcedureUnspecified\BasisUnspecified\759(3-,1)\leeping\SunMay2623:02:452019SunMay2623:02:452019\0\\#,FREQ,ProcedureUnspecified,BasisUnspecified,\\-3,1\O\C,1,1.3941\O,2,1.43876,1,108.739\H,3,0.981053,2,100.223,1,37.3535,0\C,2,1.53132,1,111.95,3,120.003,0\H,5,1.08912,2,109.372,1,-62.3777,0\H,5,1.09047,2,110.929,1,57.2312,0\H,5,1.09169,2,110.5,1,177.76,0\C,2,1.53518,1,108.115,3,-115.314,0\H,9,1.09153,2,107.032,1,59.3906,0\H,9,1.09248,2,107.399,1,174.015,0\C,9,1.52242,2,115.045,1,-63.1893,0\H,12,1.09193,9,110.328,2,55.5859,0\H,12,1.09333,9,110.51,2,-60.9978,0\C,12,1.53924,9,115.887,2,178.036,0\O,15,1.25818,12,118.886,9,8.24639,0\O,15,1.26318,12,115.802,9,-172.477,0\O,1,1.76056,2,105.248,3,-46.9015,0\H,18,1.12094,1,118.085,2,-81.8527,0\O,19,1.28208,18,163.442,1,-171.663,0\O,20,1.42933,19,103.979,18,113.812,0\\\@

 Total job time:  91467.80s(wall), 1190177.00s(cpu) 
 Sun May 26 23:02:45 2019

        *************************************************************
        *                                                           *
        *  Thank you very much for using Q-Chem.  Have a nice day.  *
        *                                                           *
        *************************************************************


