
Running Job 1 of 1 qc-freq2a.in
qchem qc-freq2a.in_15183.0 /scratch/leeping/1940707/qc-freq2a.d/ 1
/home/leeping/opt/qchem/5.0.2-openmp/exe/qcprog.exe_s qc-freq2a.in_15183.0 /scratch/leeping/1940707/qc-freq2a.d/
Check license passed

                  Welcome to Q-Chem
     A Quantum Leap Into The Future Of Chemistry


 Q-Chem 5.0, Q-Chem, Inc., Pleasanton, CA (2017)

 Yihan Shao,  Zhengting Gan,  E. Epifanovsky,  A. T. B. Gilbert,  M. Wormit,  
 J. Kussmann,  A. W. Lange,  A. Behn,  Jia Deng,  Xintian Feng,  D. Ghosh,  
 M. Goldey,  P. R. Horn,  L. D. Jacobson,  I. Kaliman,  T. Kus,  A. Landau,  
 Jie Liu,  E. I. Proynov,  R. M. Richard,  R. P. Steele,  E. J. Sundstrom,  
 H. L. Woodcock III,  P. M. Zimmerman,  D. Zuev,  B. Albrecht,  E. Alguire,  
 S. A. Baeppler,  D. Barton,  Z. Benda,  Y. A. Bernard,  E. J. Berquist,  
 K. B. Bravaya,  H. Burton,  D. Casanova,  Chun-Min Chang,  Yunqing Chen,  
 A. Chien,  K. D. Closser,  M. P. Coons,  S. Dasgupta,  A. L. Dempwolff,  
 M. Diedenhofen,  Hainam Do,  R. G. Edgar,  Po-Tung Fang,  S. Fatehi,  
 Qingguo Feng,  J. Fosso-Tande,  Qinghui Ge,  A. Ghysels,  G. Gidofalvi,  
 J. Gomes,  J. Gonthier,  A. Gunina,  M. W. D. Hanson-Heine,  
 P. H. P. Harbach,  A. W. Hauser,  J. E. Herr,  E. G. Hohenstein,  
 Z. C. Holden,  Kerwin Hui,  T.-C. Jagau,  Hyunjun Ji,  B. Kaduk,  
 K. Khistyaev,  Jaehoon Kim,  P. Klunzinger,  K. Koh,  D. Kosenkov,  
 L. Koulias,  T. Kowalczyk,  C. M. Krauter,  A. Kunitsa,  Ka Un Lao,  
 A. Laurent,  K. V. Lawler,  Joonho Lee,  D. Lefrancois,  S. Lehtola,  
 D. S. Levine,  Yi-Pei Li,  You-Sheng Lin,  Fenglai Liu,  E. Livshits,  
 A. Luenser,  P. Manohar,  E. Mansoor,  S. F. Manzer,  Shan-Ping Mao,  
 Yuezhi Mao,  N. Mardirossian,  A. V. Marenich,  T. Markovich,  
 L. A. Martinez-Martinez,  S. A. Maurer,  N. J. Mayhall,  S. C. McKenzie,  
 J.-M. Mewes,  A. F. Morrison,  J. W. Mullinax,  K. Nanda,  
 T. S. Nguyen-Beck,  R. Olivares-Amaya,  J. A. Parkhill,  T. M. Perrine,  
 F. Plasser,  S. Prager,  A. Prociuk,  E. Ramos,  D. R. Rehn,  F. Rob,  
 M. Schneider,  N. Sergueev,  S. M. Sharada,  S. Sharma,  D. W. Small,  
 T. Stauch,  T. Stein,  Yu-Chuan Su,  A. J. W. Thom,  A. Tkatchenko,  
 T. Tsuchimochi,  L. Vogt,  O. Vydrov,  M. A. Watson,  J. Wenzel,  
 M. de Wergifosse,  T. A. Wesolowski,  A. White,  J. Witte,  A. Yamada,  
 Jun Yang,  K. Yao,  S. Yeganeh,  S. R. Yost,  Zhi-Qiang You,  A. Zech,  
 Igor Ying Zhang,  Xing Zhang,  Yan Zhao,  Ying Zhu,  B. R. Brooks,  
 G. K. L. Chan,  C. J. Cramer,  M. S. Gordon,  W. J. Hehre,  A. Klamt,  
 M. W. Schmidt,  C. D. Sherrill,  D. G. Truhlar,  A. Aspuru-Guzik,  R. Baer,  
 A. T. Bell,  N. A. Besley,  Jeng-Da Chai,  R. A. DiStasio Jr.,  A. Dreuw,  
 B. D. Dunietz,  T. R. Furlani,  Chao-Ping Hsu,  Yousung Jung,  Jing Kong,  
 D. S. Lambrecht,  WanZhen Liang,  C. Ochsenfeld,  V. A. Rassolov,  
 L. V. Slipchenko,  J. E. Subotnik,  T. Van Voorhis,  J. M. Herbert,  
 A. I. Krylov,  P. M. W. Gill,  M. Head-Gordon

 Contributors to earlier versions of Q-Chem not listed above: 
 R. D. Adamson,  B. Austin,  J. Baker,  G. J. O. Beran,  K. Brandhorst,  
 S. T. Brown,  E. F. C. Byrd,  A. K. Chakraborty,  C.-L. Cheng,  
 Siu Hung Chien,  D. M. Chipman,  D. L. Crittenden,  H. Dachsel,  
 R. J. Doerksen,  A. D. Dutoi,  L. Fusti-Molnar,  W. A. Goddard III,  
 A. Golubeva-Zadorozhnaya,  S. R. Gwaltney,  G. Hawkins,  A. Heyden,  
 S. Hirata,  G. Kedziora,  F. J. Keil,  C. Kelley,  Jihan Kim,  R. A. King,  
 R. Z. Khaliullin,  P. P. Korambath,  W. Kurlancheek,  A. M. Lee,  M. S. Lee,  
 S. V. Levchenko,  Ching Yeh Lin,  D. Liotard,  R. C. Lochan,  I. Lotan,  
 P. E. Maslen,  N. Nair,  D. P. O'Neill,  D. Neuhauser,  E. Neuscamman,  
 C. M. Oana,  R. Olson,  B. Peters,  R. Peverati,  P. A. Pieniazek,  
 Y. M. Rhee,  J. Ritchie,  M. A. Rohrdanz,  E. Rosta,  N. J. Russ,  
 H. F. Schaefer III,  N. E. Schultz,  N. Shenvi,  A. C. Simmonett,  A. Sodt,  
 D. Stuck,  K. S. Thanthiriwatte,  V. Vanovschi,  Tao Wang,  A. Warshel,  
 C. F. Williams,  Q. Wu,  X. Xu,  W. Zhang

 Please cite Q-Chem as follows:
 Y. Shao et al., Mol. Phys. 113, 184-215 (2015)
 DOI: 10.1080/00268976.2014.952696

 Q-Chem 5.0.2 for Intel X86 EM64T Linux

 Parts of Q-Chem use Armadillo 5.200.1 (Boston Tea Smuggler).
 http://arma.sourceforge.net/

 Q-Chem begins on Mon Apr  6 20:56:08 2020  

Host: 
0

     Scratch files written to /scratch/leeping/1940707/qc-freq2a.d//
 Dec517 15110_ 26548  26544 5633   
Processing $rem in /home/leeping/opt/qchem/5.0.2-openmp/config/preferences.
 MEM_STATIC 2000
 MEM_TOTAL  8000
 SYMMETRY   OFF
 SYM_IGNORE TRUE 
Symmetry turned off for PCM/SM12/SMD calculation

Checking the input file for inconsistencies... 	...done.

--------------------------------------------------------------
User input:
--------------------------------------------------------------
$molecule
-2 1
C       -0.4410911054    0.8373798842    0.3638802976
C        0.8387259526    0.4879819790    1.1527251392
O        0.7627302302   -0.3991102526    2.0383455964
O        1.8662897030    1.1565040314    0.8658724557
C       -1.4403408039   -0.2525494131    0.2368724036
H       -0.1578418226    1.2304603930   -0.6180790553
H       -0.8801790630    1.6983249789    0.9012285718
H       -2.1781170184   -0.2308308648   -0.5584649801
H       -1.5082292145   -1.0245933949    0.9939974437
O        1.3496353728   -1.2268217651   -2.2572743649
O        1.7521190859   -2.2111432645   -3.0457499270
$end

$rem
jobtype               freq
method                wb97x-v
basis                 def2-tzvpd
symmetry              off
sym_ignore            true
unrestricted          true
incdft                false
incfock               0
!scf_algorithm         diis_gdm
scf_convergence       8
thresh                14
!purecart             112
max_scf_cycles        1000
geom_opt_max_cycles   500
geom_opt_dmax         100
geom_opt_tol_gradient 10
solvent_method        pcm
ideriv                1
rpath_tol_displacement 1000
rpath_max_cycles      100
rpath_direction       1
!scf_guess            read
scf_guess             read
$end

$pcm
theory              cosmo
method              iswig
Radii               bondi
vdwScale            1.20
hpoints             110
heavypoints         110
$end

$solvent
dielectric 78.400000
$end

--------------------------------------------------------------
 ----------------------------------------------------------------
             Standard Nuclear Orientation (Angstroms)
    I     Atom           X                Y                Z
 ----------------------------------------------------------------
    1      C      -0.4410911054     0.8373798842     0.3638802976
    2      C       0.8387259526     0.4879819790     1.1527251392
    3      O       0.7627302302    -0.3991102526     2.0383455964
    4      O       1.8662897030     1.1565040314     0.8658724557
    5      C      -1.4403408039    -0.2525494131     0.2368724036
    6      H      -0.1578418226     1.2304603930    -0.6180790553
    7      H      -0.8801790630     1.6983249789     0.9012285718
    8      H      -2.1781170184    -0.2308308648    -0.5584649801
    9      H      -1.5082292145    -1.0245933949     0.9939974437
   10      O       1.3496353728    -1.2268217651    -2.2572743649
   11      O       1.7521190859    -2.2111432645    -3.0457499270
 ----------------------------------------------------------------
 Nuclear Repulsion Energy =   256.6266479238 hartrees
 There are       28 alpha and       28 beta electrons
 Requested basis set is def2-TZVPD
 There are 115 shells and 307 basis functions

 Total QAlloc Memory Limit   8000 MB
 Mega-Array Size      1956 MB
 MEM_STATIC part      2000 MB
 Discretize the solute cavity surface with Lebedev spheres
	Using 110 Lebedev grid points for each H atom
	Using 110 Lebedev grid points for other atoms
	Atomic van der Waals radii will be scaled by 1.20
 Remove points where switching function is < 1.0e-08
 Keep 775 surface tesserae and discard 435 interior tesserae
 Molecular Surface Area = 169.108 Angst**2

                       Distance Matrix (Angstroms)
             C (  1)   C (  2)   O (  3)   O (  4)   C (  5)   H (  6)
   C (  2)  1.543466
   O (  3)  2.404564  1.255799
   O (  4)  2.382822  1.259005  2.238855
   C (  5)  1.484108  2.565408  2.849615  3.648956
   H (  6)  1.094982  2.163370  3.249545  2.510914  2.138940
   H (  7)  1.105788  2.117266  2.896795  2.799627  2.135664  1.746128
   H (  8)  2.238092  3.542062  3.926872  4.506735  1.085056  2.494081
   H (  9)  2.236689  2.796655  2.576655  4.020072  1.083466  3.083440
   O ( 10)  3.786566  3.850932  4.413832  3.962476  3.867033  3.316276
   O ( 11)  5.072400  5.074126  5.487293  5.162836  4.980311  4.624519
             H (  7)   H (  8)   H (  9)   O ( 10)
   H (  8)  2.745358
   H (  9)  2.795950  1.867873
   O ( 10)  4.848164  4.040172  4.333481
   O ( 11)  6.147485  5.055193  5.325160  1.323849
 
 A cutoff of  1.0D-14 yielded   6055 shell pairs
 There are     43233 function pairs (     55538 Cartesian)
 
 -------------------------------------------------------
 OpenMP Integral Computing Module                       
 Release: version 1.0, May 2013, Q-Chem Inc. Pittsburgh 
 -------------------------------------------------------
 Integral Job Info:
 Integral job number is                      11
 Integral operator is                         1
 short-range coefficients              16700000
 long-range coefficients              100000000
 Omega coefficients                         300
 if combine SR and LR in K                    1
 Integral screening is                        0
 Integral computing path is                   2
 max size of driver memory is            800000
 size of driver memory is                776718
 size of scratch memory is              4473992
 max col of scratch BK array              10000
 max len of scratch array in speh3          662
 max len of scratch index in speh4           32
 max int batch size is                      520
 min int batch size is                       52
 fixed nKL is                                52
 max L of basis functions is                  3
 order of int derivative is                   0
 number of shells is                        115
 number of basis is                         349
 number of cartesian basis is               349
 number of contracted shell pairs          6055
 number of primitive shell pairs          12644
 maxK2 (contraction) of shell pair           36
 max number of K2 of shell pair               1
 max number of CS2 of shell pair            940
 max number of PS2 of shell pair           1458
 mem total for path MDJ                  644548
 -------------------------------------------------------
 Smallest overlap matrix eigenvalue = 9.83E-06
 Guess MOs from SCF MO coefficient file
 Reading MOs from coefficient file
 Reading MOs from coefficient file
 Long-range K will be added via erf
 Coulomb attenuation parameter = 0.3 bohr**(-1)
 An unrestricted hybrid HF-DFT SCF calculation will be
 performed using Pulay DIIS extrapolation
 Polarizable Continuum solvation model will be applied
 Exchange:     0.1670 Hartree-Fock + 1.0000 wB97X-V + LR-HF
 Correlation:  1.0000 wB97X-V
 Using SG-2 standard quadrature grid
 Nonlocal Correlation:  VV10 with C = 0.0100 and b = 6.00
 Grid used for NLC:  SG-1 standard quadrature
 SCF converges when DIIS error is below 1.0E-08
Using Q-Chem read-in guess as SCF_GUESS READ specified.

 using 16 threads for integral computing
 -------------------------------------------------------
 OpenMP Integral computing Module                
 Release: version 1.0, May 2013, Q-Chem Inc. Pittsburgh 
 -------------------------------------------------------
 using 16 threads for integral computing
 -------------------------------------------------------
 OpenMP Integral computing Module                
 Release: version 1.0, May 2013, Q-Chem Inc. Pittsburgh 
 -------------------------------------------------------
 -------------------------------------------------------
 OpenMP BLAS3 based DFT computing Module                
 Release: version 1.0, May 2013, Q-Chem Inc. Pittsburgh 
 -------------------------------------------------------
 -------------------------------------------------------
 OpenMP BLAS3 based DFT computing Module                
 Release: version 1.0, May 2013, Q-Chem Inc. Pittsburgh 
 -------------------------------------------------------
 -------------------------------------------------------
 OpenMP BLAS3 based DFT computing Module                
 Release: version 1.0, May 2013, Q-Chem Inc. Pittsburgh 
 -------------------------------------------------------
 ---------------------------------------
  Cycle       Energy         DIIS Error
 ---------------------------------------
    1    -417.4217851917      6.15E-04
    2    -417.7482606586      6.78E-04
    3    -417.7561926671      3.08E-04
    4    -417.7575178731      2.27E-04
    5    -417.7582595505      1.75E-04
    6    -417.7587313067      1.37E-04
    7    -417.7590486432      1.04E-04
    8    -417.7592259343      8.10E-05
    9    -417.7593422202      6.11E-05
   10    -417.7593908361      5.05E-05
   11    -417.7594333930      3.91E-05
   12    -417.7594608962      2.94E-05
   13    -417.7594831314      1.82E-05
   14    -417.7594896567      1.31E-05
   15    -417.7594918678      1.09E-05
   16    -417.7594930756      9.41E-06
   17    -417.7594967170      2.46E-08
   18    -417.7594967171      7.34E-09 Convergence criterion met
 ---------------------------------------

************** Final PCM Free Energy Summary **************
 G_electrostatic  =      -0.33771146 hartree =    -211.91713835 kcal/mol
 G_cavitation     =       0.00000000 hartree =       0.00000000 kcal/mol
 G_dispersion     =       0.00000000 hartree =       0.00000000 kcal/mol
 G_repulsion      =       0.00000000 hartree =       0.00000000 kcal/mol
 --------------------------------------------------
 Non-electrostatic Free Energy =       0.00000000 hartree =       0.00000000 kcal/mol
 Total                         =      -0.33771146 hartree =    -211.91713835 kcal/mol
 --------------------------------------------------
 SCF Energy (H0 + V/2)                       =    -417.75949672 
 Solute Internal Energy (H0)                 =    -417.42178526 
 Total Free Energy (H0 + V/2 + non-elec)     =    -417.75949672 hartree
                                             = -262148.04079016 kcal/mol
***********************************************************

 <S^2> = 1.0078
 SCF time:  CPU 1362.25 s  wall 95.99 s
 SCF   energy in the final basis set = -417.75949672
 Total energy in the final basis set = -417.75949672
 
 --------------------------------------------------------------
 
                    Orbital Energies (a.u.)
 --------------------------------------------------------------
 
 Alpha MOs
 -- Occupied --
-19.181 -19.180 -19.141 -19.140 -10.343 -10.261 -10.255  -1.162
 -1.145  -1.051  -0.886  -0.791  -0.738  -0.607  -0.556  -0.546
 -0.524  -0.496  -0.479  -0.466  -0.458  -0.455  -0.413  -0.350
 -0.343  -0.333  -0.288  -0.248
 -- Virtual --
  0.061   0.066   0.083   0.089   0.094   0.104   0.120   0.130
  0.133   0.138   0.144   0.160   0.162   0.168   0.178   0.190
  0.196   0.213   0.218   0.229   0.239   0.244   0.254   0.268
  0.279   0.290   0.294   0.298   0.303   0.320   0.329   0.339
  0.349   0.361   0.363   0.378   0.384   0.392   0.397   0.407
  0.413   0.415   0.423   0.428   0.433   0.442   0.453   0.456
  0.465   0.470   0.482   0.493   0.499   0.510   0.514   0.530
  0.546   0.551   0.564   0.569   0.576   0.585   0.588   0.594
  0.599   0.610   0.621   0.623   0.634   0.649   0.669   0.681
  0.685   0.694   0.701   0.720   0.726   0.735   0.747   0.753
  0.758   0.768   0.774   0.782   0.790   0.801   0.810   0.815
  0.834   0.838   0.850   0.866   0.877   0.910   0.920   0.947
  0.957   0.984   1.016   1.032   1.046   1.068   1.082   1.087
  1.107   1.128   1.151   1.158   1.188   1.222   1.237   1.292
  1.307   1.319   1.332   1.354   1.407   1.424   1.447   1.487
  1.497   1.513   1.598   1.657   1.729   1.751   1.766   1.767
  1.830   1.879   1.894   1.908   1.927   1.942   1.945   1.970
  1.981   1.998   2.017   2.041   2.045   2.048   2.074   2.123
  2.139   2.144   2.154   2.199   2.236   2.278   2.293   2.320
  2.327   2.341   2.373   2.417   2.448   2.485   2.496   2.513
  2.548   2.618   2.639   2.660   2.769   2.788   2.805   2.816
  2.828   2.840   2.876   2.918   2.922   2.964   3.037   3.073
  3.111   3.155   3.168   3.213   3.233   3.242   3.247   3.255
  3.264   3.281   3.301   3.310   3.338   3.364   3.406   3.448
  3.464   3.479   3.499   3.537   3.559   3.572   3.608   3.621
  3.647   3.680   3.688   3.709   3.745   3.783   3.814   3.879
  4.047   4.078   4.108   4.225   4.263   4.328   4.436   4.457
  4.573   4.612   4.718   4.827   4.848   4.890   4.924   4.930
  4.937   4.939   4.981   5.060   5.188   5.247   5.247   5.317
  5.350   5.355   5.369   5.384   5.384   5.504   5.711   5.715
  5.751   5.752   5.776   6.004   6.254   6.299   6.326   6.360
  6.364   6.512   6.517   6.623   6.626   6.661   6.666   6.689
  6.723   6.732   6.754   6.759   6.771   6.933   6.963   7.047
  7.219   7.251   7.253   7.351   7.386   7.408   7.483   8.631
 22.519  22.754  23.716  43.594  44.272  44.368  44.401
 
 Beta MOs
 -- Occupied --
-19.193 -19.192 -19.141 -19.140 -10.343 -10.255 -10.250  -1.191
 -1.145  -1.051  -0.871  -0.836  -0.712  -0.603  -0.552  -0.537
 -0.521  -0.506  -0.497  -0.491  -0.471  -0.459  -0.448  -0.349
 -0.338  -0.331  -0.304  -0.265
 -- Virtual --
  0.035   0.066   0.083   0.089   0.095   0.104   0.121   0.130
  0.133   0.138   0.146   0.160   0.163   0.166   0.178   0.190
  0.196   0.213   0.214   0.232   0.240   0.252   0.255   0.268
  0.280   0.287   0.292   0.298   0.305   0.324   0.331   0.342
  0.351   0.362   0.363   0.378   0.383   0.391   0.398   0.403
  0.411   0.415   0.424   0.429   0.434   0.446   0.455   0.455
  0.468   0.470   0.482   0.495   0.501   0.512   0.515   0.531
  0.546   0.552   0.565   0.570   0.578   0.585   0.587   0.589
  0.597   0.611   0.621   0.624   0.634   0.650   0.669   0.681
  0.685   0.694   0.701   0.713   0.724   0.734   0.746   0.751
  0.759   0.767   0.774   0.783   0.789   0.803   0.811   0.815
  0.835   0.838   0.851   0.871   0.876   0.911   0.919   0.946
  0.955   0.985   1.016   1.043   1.048   1.068   1.076   1.093
  1.104   1.129   1.156   1.159   1.188   1.228   1.242   1.294
  1.313   1.322   1.337   1.355   1.409   1.427   1.453   1.485
  1.500   1.511   1.598   1.657   1.713   1.740   1.750   1.757
  1.854   1.880   1.895   1.919   1.934   1.944   1.946   1.972
  1.987   2.002   2.006   2.022   2.043   2.053   2.076   2.127
  2.134   2.143   2.157   2.204   2.238   2.277   2.287   2.311
  2.316   2.344   2.379   2.421   2.451   2.485   2.502   2.516
  2.550   2.619   2.638   2.664   2.769   2.782   2.793   2.801
  2.820   2.836   2.878   2.924   2.934   2.981   3.040   3.073
  3.115   3.166   3.179   3.199   3.213   3.233   3.242   3.255
  3.263   3.297   3.309   3.327   3.349   3.372   3.407   3.454
  3.472   3.488   3.499   3.544   3.560   3.580   3.608   3.627
  3.655   3.687   3.697   3.714   3.747   3.791   3.826   3.887
  4.058   4.081   4.111   4.238   4.270   4.331   4.438   4.449
  4.579   4.620   4.722   4.830   4.850   4.890   4.905   4.917
  4.918   4.925   4.988   5.066   5.173   5.216   5.216   5.317
  5.350   5.351   5.352   5.356   5.370   5.504   5.711   5.716
  5.728   5.728   5.776   6.005   6.254   6.299   6.321   6.327
  6.350   6.463   6.465   6.612   6.613   6.625   6.628   6.670
  6.696   6.720   6.740   6.753   6.766   6.933   6.963   7.047
  7.216   7.220   7.245   7.351   7.386   7.408   7.464   8.617
 22.533  22.754  23.716  43.579  44.271  44.354  44.401
 --------------------------------------------------------------
 
          Ground-State Mulliken Net Atomic Charges

     Atom                 Charge (a.u.)    Spin (a.u.)
  --------------------------------------------------------
      1 C                     0.159802      -0.075763
      2 C                     0.222351       0.017658
      3 O                    -0.697684       0.001428
      4 O                    -0.710625       0.008602
      5 C                    -0.876805       0.937027
      6 H                     0.179456       0.012541
      7 H                     0.202259       0.086134
      8 H                     0.261367       0.001202
      9 H                     0.258848       0.007008
     10 O                    -0.438405      -0.486347
     11 O                    -0.560564      -0.509489
  --------------------------------------------------------
  Sum of atomic charges =    -2.000000
  Sum of spin   charges =    -0.000000

 -----------------------------------------------------------------
                    Cartesian Multipole Moments
 -----------------------------------------------------------------
    Charge (ESU x 10^10)
                -9.6064
    Dipole Moment (Debye)
         X     -15.0493      Y       7.1584      Z       5.0330
       Tot      17.4085
    Quadrupole Moments (Debye-Ang)
        XX     -71.9373     XY       7.5300     YY     -66.2776
        XZ      10.5451     YZ     -22.0090     ZZ     -95.4561
    Octopole Moments (Debye-Ang^2)
       XXX    -129.9519    XXY      20.0134    XYY     -67.4292
       YYY      62.1327    XXZ      20.2079    XYZ     -41.7084
       YYZ      49.0090    XZZ    -100.2557    YZZ      83.6055
       ZZZ      89.8325
    Hexadecapole Moments (Debye-Ang^3)
      XXXX    -634.5597   XXXY      78.0711   XXYY    -230.3204
      XYYY     114.1152   YYYY    -505.9780   XXXZ     125.0986
      XXYZ    -144.0572   XYYZ     102.6337   YYYZ    -304.6863
      XXZZ    -347.0022   XYZZ     133.9517   YYZZ    -355.4471
      XZZZ     231.4004   YZZZ    -390.0128   ZZZZ   -1255.1205
 -----------------------------------------------------------------
 Calculating analytic gradient of the SCF energy
 Gradient of SCF Energy
            1           2           3           4           5           6
    1  -0.0215635   0.0492531   0.0004090  -0.0582192  -0.0292063  -0.0213949
    2   0.0866583  -0.0208136   0.0439217  -0.0362905  -0.0726493  -0.0222287
    3  -0.0283984   0.0391491  -0.0525544   0.0026719  -0.0072155   0.0670606
            7           8           9          10          11
    1   0.0202812   0.0545589   0.0059831  -0.0103687   0.0102674
    2  -0.0407511   0.0007740   0.0563051   0.0346451  -0.0295711
    3  -0.0368507   0.0561203  -0.0510786   0.0322047  -0.0211092
 Max gradient component =       8.666E-02
 RMS gradient           =       4.021E-02
 Computing fast CPCM-ISWIG gradient
 Updating gradient with PCM contributions...
 -- total gradient after adding PCM contribution --
---------------------------------------------------
  Atom         X              Y              Z     
---------------------------------------------------
   1      -0.000011      -0.000010       0.000007
   2      -0.000009      -0.000009       0.000003
   3       0.000014       0.000002      -0.000007
   4      -0.000007       0.000026       0.000001
   5      -0.000003      -0.000019       0.000005
   6      -0.000018       0.000004       0.000008
   7      -0.000018      -0.000016       0.000014
   8       0.000004      -0.000026       0.000004
   9       0.000020      -0.000026      -0.000002
  10       0.000005       0.000030      -0.000013
  11       0.000023       0.000045      -0.000019
---------------------------------------------------
 Number of fixed atoms: 0
 Gradient time:  CPU 221.14 s  wall 16.48 s
 ######################################################
 ######################################################
 # Starting finite difference calculation for IDERIV  #
 Finite diff step size:  1.88973e-03 a.u.
 ----------------------------------------------------------------
             Standard Nuclear Orientation (Angstroms)
    I     Atom           X                Y                Z
 ----------------------------------------------------------------
    1      C      -0.4400911054     0.8373798842     0.3638802976
    2      C       0.8387259526     0.4879819790     1.1527251392
    3      O       0.7627302302    -0.3991102526     2.0383455964
    4      O       1.8662897030     1.1565040314     0.8658724557
    5      C      -1.4403408039    -0.2525494131     0.2368724036
    6      H      -0.1578418226     1.2304603930    -0.6180790553
    7      H      -0.8801790630     1.6983249789     0.9012285718
    8      H      -2.1781170184    -0.2308308648    -0.5584649801
    9      H      -1.5082292145    -1.0245933949     0.9939974437
   10      O       1.3496353728    -1.2268217651    -2.2572743649
   11      O       1.7521190859    -2.2111432645    -3.0457499270
 ----------------------------------------------------------------
 Nuclear Repulsion Energy =   256.6341139982 hartrees
 There are       28 alpha and       28 beta electrons
 Discretize the solute cavity surface with Lebedev spheres
	Using 110 Lebedev grid points for each H atom
	Using 110 Lebedev grid points for other atoms
	Atomic van der Waals radii will be scaled by 1.20
 Remove points where switching function is < 1.0e-08
 Keep 775 surface tesserae and discard 435 interior tesserae
 Molecular Surface Area = 169.104 Angst**2

                       Distance Matrix (Angstroms)
             C (  1)   C (  2)   O (  3)   O (  4)   C (  5)   H (  6)
   C (  2)  1.542637
   O (  3)  2.404063  1.255799
   O (  4)  2.381854  1.259005  2.238855
   C (  5)  1.484782  2.565408  2.849615  3.648956
   H (  6)  1.094724  2.163370  3.249545  2.510914  2.138940
   H (  7)  1.106186  2.117266  2.896795  2.799627  2.135664  1.746128
   H (  8)  2.238868  3.542062  3.926872  4.506735  1.085056  2.494081
   H (  9)  2.237166  2.796655  2.576655  4.020072  1.083466  3.083440
   O ( 10)  3.786093  3.850932  4.413832  3.962476  3.867033  3.316276
   O ( 11)  5.071968  5.074126  5.487293  5.162836  4.980311  4.624519
             H (  7)   H (  8)   H (  9)   O ( 10)
   H (  8)  2.745358
   H (  9)  2.795950  1.867873
   O ( 10)  4.848164  4.040172  4.333481
   O ( 11)  6.147485  5.055193  5.325160  1.323849
 
 Requested basis set is def2-TZVPD
 There are 115 shells and 307 basis functions
 A cutoff of  1.0D-14 yielded   6055 shell pairs
 There are     43233 function pairs (     55538 Cartesian)
 Smallest overlap matrix eigenvalue = 9.83E-06
 Guess MOs from SCF MO coefficient file
 Reading MOs from coefficient file
 Reading MOs from coefficient file
 Long-range K will be added via erf
 Coulomb attenuation parameter = 0.3 bohr**(-1)
 An unrestricted hybrid HF-DFT SCF calculation will be
 performed using Pulay DIIS extrapolation
 Polarizable Continuum solvation model will be applied
 Exchange:     0.1670 Hartree-Fock + 1.0000 wB97X-V + LR-HF
 Correlation:  1.0000 wB97X-V
 Using SG-2 standard quadrature grid
 Nonlocal Correlation:  VV10 with C = 0.0100 and b = 6.00
 Grid used for NLC:  SG-1 standard quadrature
 SCF converges when DIIS error is below 1.0E-08
Using Q-Chem read-in guess as SCF_GUESS READ specified.

 using 16 threads for integral computing
 -------------------------------------------------------
 OpenMP Integral computing Module                
 Release: version 1.0, May 2013, Q-Chem Inc. Pittsburgh 
 -------------------------------------------------------
 using 16 threads for integral computing
 -------------------------------------------------------
 OpenMP Integral computing Module                
 Release: version 1.0, May 2013, Q-Chem Inc. Pittsburgh 
 -------------------------------------------------------
 -------------------------------------------------------
 OpenMP BLAS3 based DFT computing Module                
 Release: version 1.0, May 2013, Q-Chem Inc. Pittsburgh 
 -------------------------------------------------------
 -------------------------------------------------------
 OpenMP BLAS3 based DFT computing Module                
 Release: version 1.0, May 2013, Q-Chem Inc. Pittsburgh 
 -------------------------------------------------------
 -------------------------------------------------------
 OpenMP BLAS3 based DFT computing Module                
 Release: version 1.0, May 2013, Q-Chem Inc. Pittsburgh 
 -------------------------------------------------------
 ---------------------------------------
  Cycle       Energy         DIIS Error
 ---------------------------------------
    1    -417.4215919717      6.15E-04
    2    -417.7482621162      6.78E-04
    3    -417.7561936881      3.08E-04
    4    -417.7575192422      2.27E-04
    5    -417.7582642109      1.75E-04
    6    -417.7587447453      1.36E-04
    7    -417.7590819378      1.00E-04
    8    -417.7592768907      7.27E-05
    9    -417.7594078630      4.59E-05
   10    -417.7594599764      2.93E-05
   11    -417.7594891608      1.26E-05
   12    -417.7594950921      4.33E-06
   13    -417.7594958974      3.79E-07
   14    -417.7594959052      1.45E-07
   15    -417.7594959061      5.86E-08
   16    -417.7594959062      2.64E-08
   17    -417.7594959062      1.58E-09 Convergence criterion met
 ---------------------------------------

************** Final PCM Free Energy Summary **************
 G_electrostatic  =      -0.33771857 hartree =    -211.92160076 kcal/mol
 G_cavitation     =       0.00000000 hartree =       0.00000000 kcal/mol
 G_dispersion     =       0.00000000 hartree =       0.00000000 kcal/mol
 G_repulsion      =       0.00000000 hartree =       0.00000000 kcal/mol
 --------------------------------------------------
 Non-electrostatic Free Energy =       0.00000000 hartree =       0.00000000 kcal/mol
 Total                         =      -0.33771857 hartree =    -211.92160076 kcal/mol
 --------------------------------------------------
 SCF Energy (H0 + V/2)                       =    -417.75949591 
 Solute Internal Energy (H0)                 =    -417.42177734 
 Total Free Energy (H0 + V/2 + non-elec)     =    -417.75949591 hartree
                                             = -262148.04028133 kcal/mol
***********************************************************

 <S^2> = 1.0078
 SCF time:  CPU 1168.86 s  wall 83.10 s
 SCF   energy in the final basis set = -417.75949591
 Total energy in the final basis set = -417.75949591
 
 --------------------------------------------------------------
 
                    Orbital Energies (a.u.)
 --------------------------------------------------------------
 
 Alpha MOs
 -- Occupied --
-19.181 -19.180 -19.141 -19.140 -10.343 -10.261 -10.255  -1.162
 -1.145  -1.051  -0.886  -0.791  -0.738  -0.607  -0.556  -0.546
 -0.524  -0.496  -0.479  -0.466  -0.458  -0.455  -0.413  -0.350
 -0.343  -0.333  -0.288  -0.248
 -- Virtual --
  0.061   0.066   0.083   0.089   0.094   0.104   0.120   0.130
  0.133   0.138   0.144   0.160   0.162   0.168   0.178   0.190
  0.196   0.213   0.218   0.229   0.239   0.244   0.254   0.268
  0.279   0.290   0.294   0.298   0.303   0.320   0.329   0.339
  0.349   0.361   0.363   0.378   0.384   0.392   0.397   0.407
  0.413   0.415   0.423   0.428   0.433   0.442   0.453   0.456
  0.465   0.470   0.482   0.493   0.499   0.510   0.514   0.530
  0.546   0.551   0.564   0.569   0.576   0.585   0.588   0.594
  0.599   0.610   0.621   0.623   0.634   0.649   0.669   0.681
  0.685   0.694   0.701   0.720   0.726   0.735   0.747   0.753
  0.758   0.768   0.774   0.782   0.790   0.801   0.810   0.815
  0.834   0.838   0.850   0.866   0.877   0.910   0.920   0.947
  0.957   0.984   1.016   1.032   1.046   1.068   1.082   1.087
  1.107   1.128   1.151   1.158   1.188   1.222   1.237   1.292
  1.307   1.319   1.332   1.354   1.407   1.424   1.447   1.487
  1.497   1.513   1.598   1.657   1.729   1.751   1.766   1.767
  1.830   1.879   1.894   1.908   1.927   1.942   1.945   1.970
  1.981   1.998   2.017   2.041   2.045   2.048   2.074   2.123
  2.139   2.144   2.154   2.199   2.236   2.278   2.293   2.320
  2.327   2.341   2.373   2.417   2.448   2.485   2.496   2.513
  2.548   2.618   2.639   2.660   2.769   2.788   2.805   2.815
  2.828   2.840   2.876   2.918   2.922   2.964   3.037   3.073
  3.111   3.156   3.168   3.213   3.233   3.242   3.247   3.255
  3.264   3.281   3.301   3.310   3.338   3.364   3.407   3.448
  3.464   3.479   3.499   3.537   3.559   3.572   3.608   3.621
  3.647   3.680   3.688   3.709   3.745   3.783   3.815   3.880
  4.047   4.079   4.108   4.225   4.263   4.328   4.436   4.457
  4.573   4.612   4.719   4.827   4.848   4.890   4.924   4.930
  4.937   4.939   4.981   5.061   5.188   5.247   5.247   5.317
  5.350   5.355   5.370   5.384   5.384   5.504   5.711   5.716
  5.751   5.752   5.776   6.005   6.254   6.299   6.327   6.360
  6.364   6.512   6.517   6.623   6.626   6.661   6.666   6.689
  6.723   6.732   6.754   6.759   6.771   6.933   6.963   7.047
  7.220   7.251   7.253   7.351   7.386   7.408   7.483   8.631
 22.519  22.754  23.716  43.594  44.272  44.368  44.401
 
 Beta MOs
 -- Occupied --
-19.193 -19.192 -19.141 -19.140 -10.342 -10.255 -10.250  -1.191
 -1.145  -1.051  -0.871  -0.836  -0.712  -0.603  -0.552  -0.537
 -0.521  -0.506  -0.497  -0.491  -0.471  -0.459  -0.448  -0.349
 -0.338  -0.331  -0.304  -0.265
 -- Virtual --
  0.035   0.066   0.083   0.089   0.095   0.104   0.121   0.130
  0.133   0.138   0.147   0.160   0.163   0.166   0.178   0.190
  0.196   0.213   0.214   0.232   0.240   0.252   0.255   0.268
  0.280   0.287   0.292   0.298   0.305   0.324   0.331   0.342
  0.351   0.362   0.363   0.378   0.383   0.391   0.398   0.403
  0.411   0.415   0.424   0.429   0.434   0.446   0.455   0.455
  0.468   0.470   0.482   0.495   0.501   0.512   0.515   0.531
  0.546   0.552   0.565   0.570   0.578   0.585   0.587   0.589
  0.597   0.611   0.621   0.624   0.634   0.650   0.669   0.681
  0.685   0.694   0.701   0.713   0.724   0.734   0.746   0.751
  0.759   0.766   0.774   0.783   0.789   0.803   0.811   0.815
  0.835   0.838   0.851   0.871   0.876   0.911   0.919   0.946
  0.955   0.985   1.016   1.043   1.048   1.068   1.076   1.093
  1.104   1.129   1.156   1.159   1.188   1.228   1.242   1.294
  1.313   1.322   1.337   1.355   1.409   1.427   1.453   1.485
  1.500   1.511   1.598   1.657   1.714   1.740   1.750   1.757
  1.854   1.880   1.895   1.919   1.934   1.944   1.946   1.972
  1.987   2.002   2.006   2.022   2.043   2.053   2.076   2.127
  2.134   2.143   2.157   2.204   2.238   2.278   2.287   2.311
  2.316   2.344   2.379   2.421   2.451   2.485   2.502   2.516
  2.551   2.619   2.638   2.664   2.769   2.782   2.793   2.801
  2.820   2.837   2.878   2.924   2.933   2.981   3.040   3.073
  3.115   3.166   3.179   3.199   3.213   3.233   3.242   3.256
  3.262   3.297   3.309   3.327   3.349   3.372   3.407   3.454
  3.472   3.488   3.498   3.544   3.560   3.579   3.608   3.627
  3.655   3.686   3.697   3.714   3.747   3.790   3.826   3.887
  4.057   4.081   4.111   4.237   4.270   4.331   4.439   4.449
  4.579   4.620   4.723   4.830   4.850   4.890   4.904   4.917
  4.918   4.925   4.989   5.067   5.173   5.216   5.216   5.317
  5.350   5.351   5.352   5.356   5.370   5.504   5.711   5.716
  5.728   5.728   5.777   6.005   6.254   6.299   6.321   6.327
  6.350   6.463   6.465   6.612   6.613   6.625   6.628   6.670
  6.696   6.720   6.740   6.753   6.766   6.933   6.963   7.047
  7.216   7.220   7.245   7.351   7.387   7.408   7.464   8.617
 22.532  22.754  23.717  43.579  44.271  44.354  44.401
 --------------------------------------------------------------
 
          Ground-State Mulliken Net Atomic Charges

     Atom                 Charge (a.u.)    Spin (a.u.)
  --------------------------------------------------------
      1 C                     0.160252      -0.075748
      2 C                     0.221987       0.017607
      3 O                    -0.697743       0.001408
      4 O                    -0.710647       0.008572
      5 C                    -0.876863       0.937209
      6 H                     0.179694       0.012486
      7 H                     0.201990       0.086098
      8 H                     0.261438       0.001203
      9 H                     0.258857       0.006999
     10 O                    -0.438382      -0.486347
     11 O                    -0.560584      -0.509488
  --------------------------------------------------------
  Sum of atomic charges =    -2.000000
  Sum of spin   charges =    -0.000000

 -----------------------------------------------------------------
                    Cartesian Multipole Moments
 -----------------------------------------------------------------
    Charge (ESU x 10^10)
                -9.6064
    Dipole Moment (Debye)
         X     -15.0507      Y       7.1587      Z       5.0316
       Tot      17.4094
    Quadrupole Moments (Debye-Ang)
        XX     -71.9393     XY       7.5278     YY     -66.2781
        XZ      10.5449     YZ     -22.0101     ZZ     -95.4576
    Octopole Moments (Debye-Ang^2)
       XXX    -129.9733    XXY      20.0101    XYY     -67.4372
       YYY      62.1341    XXZ      20.2024    XYZ     -41.7097
       YYZ      49.0059    XZZ    -100.2646    YZZ      83.6048
       ZZZ      89.8285
    Hexadecapole Moments (Debye-Ang^3)
      XXXX    -634.5486   XXXY      78.0472   XXYY    -230.3179
      XYYY     114.0962   YYYY    -505.9887   XXXZ     125.0861
      XXYZ    -144.0601   XYYZ     102.6311   YYYZ    -304.6941
      XXZZ    -347.0076   XYZZ     133.9454   YYZZ    -355.4471
      XZZZ     231.3999   YZZZ    -390.0151   ZZZZ   -1255.1365
 -----------------------------------------------------------------
 Calculating analytic gradient of the SCF energy
 Gradient of SCF Energy
            1           2           3           4           5           6
    1  -0.0208664   0.0489663   0.0004171  -0.0582500  -0.0295342  -0.0213851
    2   0.0867083  -0.0208675   0.0439339  -0.0362907  -0.0727697  -0.0222955
    3  -0.0285872   0.0390613  -0.0525648   0.0026568  -0.0072473   0.0672335
            7           8           9          10          11
    1   0.0202139   0.0545626   0.0059764  -0.0103676   0.0102671
    2  -0.0405671   0.0007654   0.0563108   0.0346410  -0.0295690
    3  -0.0366971   0.0561297  -0.0510795   0.0322024  -0.0211077
 Max gradient component =       8.671E-02
 RMS gradient           =       4.021E-02
 Computing fast CPCM-ISWIG gradient
 Updating gradient with PCM contributions...
 -- total gradient after adding PCM contribution --
---------------------------------------------------
  Atom         X              Y              Z     
---------------------------------------------------
   1       0.000869       0.000067      -0.000046
   2      -0.000248       0.000019      -0.000045
   3       0.000020       0.000008      -0.000028
   4      -0.000102       0.000012      -0.000034
   5      -0.000267      -0.000200      -0.000045
   6      -0.000143      -0.000043       0.000117
   7      -0.000169       0.000144       0.000109
   8      -0.000010      -0.000057       0.000006
   9       0.000023      -0.000026      -0.000001
  10       0.000004       0.000030      -0.000013
  11       0.000023       0.000045      -0.000019
---------------------------------------------------
 Number of fixed atoms: 0
 Gradient time:  CPU 218.84 s  wall 16.22 s
 ----------------------------------------------------------------
             Standard Nuclear Orientation (Angstroms)
    I     Atom           X                Y                Z
 ----------------------------------------------------------------
    1      C      -0.4420911054     0.8373798842     0.3638802976
    2      C       0.8387259526     0.4879819790     1.1527251392
    3      O       0.7627302302    -0.3991102526     2.0383455964
    4      O       1.8662897030     1.1565040314     0.8658724557
    5      C      -1.4403408039    -0.2525494131     0.2368724036
    6      H      -0.1578418226     1.2304603930    -0.6180790553
    7      H      -0.8801790630     1.6983249789     0.9012285718
    8      H      -2.1781170184    -0.2308308648    -0.5584649801
    9      H      -1.5082292145    -1.0245933949     0.9939974437
   10      O       1.3496353728    -1.2268217651    -2.2572743649
   11      O       1.7521190859    -2.2111432645    -3.0457499270
 ----------------------------------------------------------------
 Nuclear Repulsion Energy =   256.6191891324 hartrees
 There are       28 alpha and       28 beta electrons
 Discretize the solute cavity surface with Lebedev spheres
	Using 110 Lebedev grid points for each H atom
	Using 110 Lebedev grid points for other atoms
	Atomic van der Waals radii will be scaled by 1.20
 Remove points where switching function is < 1.0e-08
 Keep 775 surface tesserae and discard 435 interior tesserae
 Molecular Surface Area = 169.112 Angst**2

                       Distance Matrix (Angstroms)
             C (  1)   C (  2)   O (  3)   O (  4)   C (  5)   H (  6)
   C (  2)  1.544295
   O (  3)  2.405065  1.255799
   O (  4)  2.383791  1.259005  2.238855
   C (  5)  1.483435  2.565408  2.849615  3.648956
   H (  6)  1.095242  2.163370  3.249545  2.510914  2.138940
   H (  7)  1.105392  2.117266  2.896795  2.799627  2.135664  1.746128
   H (  8)  2.237316  3.542062  3.926872  4.506735  1.085056  2.494081
   H (  9)  2.236212  2.796655  2.576655  4.020072  1.083466  3.083440
   O ( 10)  3.787039  3.850932  4.413832  3.962476  3.867033  3.316276
   O ( 11)  5.072833  5.074126  5.487293  5.162836  4.980311  4.624519
             H (  7)   H (  8)   H (  9)   O ( 10)
   H (  8)  2.745358
   H (  9)  2.795950  1.867873
   O ( 10)  4.848164  4.040172  4.333481
   O ( 11)  6.147485  5.055193  5.325160  1.323849
 
 Requested basis set is def2-TZVPD
 There are 115 shells and 307 basis functions
 A cutoff of  1.0D-14 yielded   6055 shell pairs
 There are     43233 function pairs (     55538 Cartesian)
 Smallest overlap matrix eigenvalue = 9.84E-06
 Guess MOs from SCF MO coefficient file
 Reading MOs from coefficient file
 Reading MOs from coefficient file
 Long-range K will be added via erf
 Coulomb attenuation parameter = 0.3 bohr**(-1)
 An unrestricted hybrid HF-DFT SCF calculation will be
 performed using Pulay DIIS extrapolation
 Polarizable Continuum solvation model will be applied
 Exchange:     0.1670 Hartree-Fock + 1.0000 wB97X-V + LR-HF
 Correlation:  1.0000 wB97X-V
 Using SG-2 standard quadrature grid
 Nonlocal Correlation:  VV10 with C = 0.0100 and b = 6.00
 Grid used for NLC:  SG-1 standard quadrature
 SCF converges when DIIS error is below 1.0E-08
Using Q-Chem read-in guess as SCF_GUESS READ specified.

 using 16 threads for integral computing
 -------------------------------------------------------
 OpenMP Integral computing Module                
 Release: version 1.0, May 2013, Q-Chem Inc. Pittsburgh 
 -------------------------------------------------------
 using 16 threads for integral computing
 -------------------------------------------------------
 OpenMP Integral computing Module                
 Release: version 1.0, May 2013, Q-Chem Inc. Pittsburgh 
 -------------------------------------------------------
 -------------------------------------------------------
 OpenMP BLAS3 based DFT computing Module                
 Release: version 1.0, May 2013, Q-Chem Inc. Pittsburgh 
 -------------------------------------------------------
 -------------------------------------------------------
 OpenMP BLAS3 based DFT computing Module                
 Release: version 1.0, May 2013, Q-Chem Inc. Pittsburgh 
 -------------------------------------------------------
 -------------------------------------------------------
 OpenMP BLAS3 based DFT computing Module                
 Release: version 1.0, May 2013, Q-Chem Inc. Pittsburgh 
 -------------------------------------------------------
 ---------------------------------------
  Cycle       Energy         DIIS Error
 ---------------------------------------
    1    -417.4221678789      6.17E-04
    2    -417.7482533660      6.79E-04
    3    -417.7561956799      3.07E-04
    4    -417.7575241213      2.27E-04
    5    -417.7582754686      1.74E-04
    6    -417.7587792817      1.33E-04
    7    -417.7591654079      8.93E-05
    8    -417.7593673567      5.53E-05
    9    -417.7594688253      2.51E-05
   10    -417.7594900270      1.14E-05
   11    -417.7594952800      3.40E-06
   12    -417.7594957914      1.08E-06
   13    -417.7594958630      1.97E-07
   14    -417.7594958664      7.04E-08
   15    -417.7594958668      1.92E-08
   16    -417.7594958668      6.62E-09 Convergence criterion met
 ---------------------------------------

************** Final PCM Free Energy Summary **************
 G_electrostatic  =      -0.33770415 hartree =    -211.91255120 kcal/mol
 G_cavitation     =       0.00000000 hartree =       0.00000000 kcal/mol
 G_dispersion     =       0.00000000 hartree =       0.00000000 kcal/mol
 G_repulsion      =       0.00000000 hartree =       0.00000000 kcal/mol
 --------------------------------------------------
 Non-electrostatic Free Energy =       0.00000000 hartree =       0.00000000 kcal/mol
 Total                         =      -0.33770415 hartree =    -211.91255120 kcal/mol
 --------------------------------------------------
 SCF Energy (H0 + V/2)                       =    -417.75949587 
 Solute Internal Energy (H0)                 =    -417.42179172 
 Total Free Energy (H0 + V/2 + non-elec)     =    -417.75949587 hartree
                                             = -262148.04025659 kcal/mol
***********************************************************

 <S^2> = 1.0078
 SCF time:  CPU 1091.92 s  wall 77.73 s
 SCF   energy in the final basis set = -417.75949587
 Total energy in the final basis set = -417.75949587
 
 --------------------------------------------------------------
 
                    Orbital Energies (a.u.)
 --------------------------------------------------------------
 
 Alpha MOs
 -- Occupied --
-19.181 -19.180 -19.141 -19.140 -10.343 -10.261 -10.255  -1.162
 -1.145  -1.051  -0.886  -0.791  -0.738  -0.607  -0.556  -0.546
 -0.524  -0.496  -0.479  -0.466  -0.458  -0.455  -0.413  -0.350
 -0.343  -0.333  -0.288  -0.248
 -- Virtual --
  0.061   0.066   0.083   0.089   0.094   0.104   0.120   0.130
  0.133   0.138   0.144   0.160   0.162   0.168   0.178   0.190
  0.196   0.213   0.218   0.229   0.239   0.244   0.254   0.268
  0.279   0.290   0.294   0.297   0.303   0.320   0.329   0.339
  0.349   0.361   0.363   0.378   0.384   0.392   0.397   0.407
  0.413   0.415   0.423   0.428   0.433   0.443   0.453   0.455
  0.465   0.470   0.482   0.493   0.499   0.510   0.514   0.530
  0.546   0.551   0.564   0.569   0.576   0.585   0.588   0.594
  0.599   0.610   0.621   0.623   0.634   0.649   0.669   0.681
  0.685   0.694   0.701   0.720   0.726   0.735   0.747   0.753
  0.758   0.769   0.774   0.782   0.790   0.801   0.810   0.815
  0.834   0.838   0.850   0.866   0.878   0.910   0.920   0.947
  0.957   0.984   1.016   1.032   1.046   1.067   1.082   1.087
  1.107   1.128   1.151   1.158   1.188   1.222   1.237   1.292
  1.307   1.319   1.332   1.354   1.407   1.424   1.447   1.486
  1.497   1.513   1.598   1.657   1.729   1.751   1.766   1.767
  1.830   1.879   1.894   1.908   1.927   1.942   1.945   1.970
  1.980   1.998   2.017   2.041   2.045   2.048   2.074   2.123
  2.139   2.144   2.154   2.199   2.236   2.278   2.293   2.320
  2.327   2.341   2.373   2.417   2.449   2.485   2.496   2.513
  2.548   2.618   2.639   2.660   2.769   2.789   2.805   2.816
  2.828   2.840   2.876   2.918   2.922   2.964   3.037   3.073
  3.111   3.155   3.168   3.213   3.233   3.242   3.247   3.255
  3.264   3.281   3.301   3.310   3.338   3.364   3.406   3.448
  3.463   3.478   3.499   3.537   3.559   3.573   3.607   3.621
  3.648   3.680   3.688   3.709   3.745   3.784   3.814   3.879
  4.047   4.078   4.108   4.225   4.263   4.328   4.436   4.457
  4.573   4.612   4.718   4.827   4.848   4.891   4.924   4.930
  4.937   4.939   4.981   5.060   5.188   5.247   5.247   5.317
  5.350   5.355   5.369   5.384   5.384   5.504   5.711   5.715
  5.751   5.752   5.776   6.004   6.254   6.298   6.326   6.360
  6.364   6.512   6.517   6.623   6.626   6.661   6.666   6.689
  6.723   6.732   6.754   6.759   6.771   6.932   6.963   7.047
  7.219   7.251   7.253   7.351   7.386   7.407   7.483   8.631
 22.520  22.754  23.715  43.594  44.272  44.368  44.401
 
 Beta MOs
 -- Occupied --
-19.193 -19.192 -19.141 -19.140 -10.343 -10.255 -10.250  -1.191
 -1.145  -1.051  -0.871  -0.836  -0.712  -0.603  -0.552  -0.537
 -0.521  -0.506  -0.497  -0.491  -0.471  -0.459  -0.448  -0.349
 -0.338  -0.332  -0.304  -0.265
 -- Virtual --
  0.035   0.066   0.083   0.089   0.095   0.104   0.121   0.130
  0.133   0.138   0.146   0.160   0.163   0.166   0.178   0.190
  0.196   0.213   0.214   0.232   0.240   0.252   0.255   0.268
  0.280   0.287   0.292   0.298   0.305   0.324   0.331   0.342
  0.351   0.362   0.363   0.378   0.383   0.391   0.398   0.403
  0.411   0.415   0.424   0.429   0.434   0.446   0.455   0.455
  0.468   0.470   0.482   0.495   0.501   0.512   0.515   0.531
  0.546   0.552   0.565   0.570   0.578   0.585   0.587   0.589
  0.597   0.611   0.621   0.624   0.634   0.650   0.669   0.681
  0.685   0.694   0.702   0.713   0.724   0.734   0.746   0.751
  0.759   0.767   0.774   0.783   0.789   0.803   0.811   0.815
  0.835   0.838   0.851   0.871   0.876   0.911   0.919   0.946
  0.955   0.985   1.016   1.043   1.048   1.068   1.076   1.093
  1.104   1.129   1.156   1.159   1.188   1.228   1.242   1.294
  1.313   1.322   1.337   1.355   1.409   1.427   1.453   1.485
  1.500   1.511   1.598   1.657   1.713   1.740   1.750   1.757
  1.854   1.880   1.895   1.919   1.934   1.944   1.946   1.972
  1.987   2.002   2.006   2.022   2.043   2.053   2.076   2.127
  2.134   2.143   2.157   2.204   2.238   2.277   2.287   2.311
  2.316   2.344   2.379   2.421   2.451   2.485   2.502   2.516
  2.550   2.619   2.637   2.664   2.769   2.782   2.794   2.801
  2.821   2.836   2.878   2.924   2.934   2.981   3.040   3.073
  3.115   3.166   3.179   3.199   3.213   3.233   3.242   3.255
  3.263   3.297   3.309   3.327   3.349   3.372   3.407   3.454
  3.472   3.487   3.499   3.544   3.560   3.580   3.608   3.627
  3.655   3.687   3.697   3.714   3.747   3.791   3.825   3.887
  4.058   4.081   4.111   4.238   4.270   4.331   4.438   4.449
  4.579   4.620   4.722   4.830   4.850   4.891   4.905   4.917
  4.918   4.925   4.988   5.066   5.173   5.216   5.216   5.317
  5.350   5.351   5.352   5.356   5.370   5.504   5.711   5.715
  5.728   5.728   5.776   6.004   6.254   6.299   6.321   6.327
  6.350   6.463   6.465   6.612   6.613   6.625   6.628   6.670
  6.696   6.720   6.740   6.753   6.766   6.932   6.963   7.047
  7.216   7.220   7.245   7.351   7.386   7.408   7.464   8.617
 22.533  22.754  23.715  43.579  44.271  44.354  44.400
 --------------------------------------------------------------
 
          Ground-State Mulliken Net Atomic Charges

     Atom                 Charge (a.u.)    Spin (a.u.)
  --------------------------------------------------------
      1 C                     0.159348      -0.075776
      2 C                     0.222716       0.017710
      3 O                    -0.697625       0.001447
      4 O                    -0.710604       0.008632
      5 C                    -0.876748       0.936841
      6 H                     0.179222       0.012598
      7 H                     0.202529       0.086170
      8 H                     0.261293       0.001200
      9 H                     0.258840       0.007017
     10 O                    -0.438426      -0.486351
     11 O                    -0.560546      -0.509488
  --------------------------------------------------------
  Sum of atomic charges =    -2.000000
  Sum of spin   charges =    -0.000000

 -----------------------------------------------------------------
                    Cartesian Multipole Moments
 -----------------------------------------------------------------
    Charge (ESU x 10^10)
                -9.6064
    Dipole Moment (Debye)
         X     -15.0480      Y       7.1581      Z       5.0344
       Tot      17.4076
    Quadrupole Moments (Debye-Ang)
        XX     -71.9343     XY       7.5319     YY     -66.2778
        XZ      10.5461     YZ     -22.0073     ZZ     -95.4550
    Octopole Moments (Debye-Ang^2)
       XXX    -129.9262    XXY      20.0144    XYY     -67.4212
       YYY      62.1343    XXZ      20.2133    XYZ     -41.7069
       YYZ      49.0117    XZZ    -100.2514    YZZ      83.6039
       ZZZ      89.8398
    Hexadecapole Moments (Debye-Ang^3)
      XXXX    -634.5546   XXXY      78.0849   XXYY    -230.3181
      XYYY     114.1364   YYYY    -505.9808   XXXZ     125.1059
      XXYZ    -144.0504   XYYZ     102.6361   YYYZ    -304.6803
      XXZZ    -347.0035   XYZZ     133.9600   YYZZ    -355.4414
      XZZZ     231.4236   YZZZ    -390.0027   ZZZZ   -1255.1225
 -----------------------------------------------------------------
 Calculating analytic gradient of the SCF energy
 Gradient of SCF Energy
            1           2           3           4           5           6
    1  -0.0222617   0.0495385   0.0004012  -0.0581883  -0.0288767  -0.0214041
    2   0.0866069  -0.0207600   0.0439093  -0.0362902  -0.0725288  -0.0221605
    3  -0.0282076   0.0392352  -0.0525438   0.0026872  -0.0071842   0.0668881
            7           8           9          10          11
    1   0.0203481   0.0545554   0.0059896  -0.0103700   0.0102681
    2  -0.0409350   0.0007827   0.0562997   0.0346476  -0.0295718
    3  -0.0370043   0.0561107  -0.0510776   0.0322081  -0.0211119
 Max gradient component =       8.661E-02
 RMS gradient           =       4.021E-02
 Computing fast CPCM-ISWIG gradient
 Updating gradient with PCM contributions...
 -- total gradient after adding PCM contribution --
---------------------------------------------------
  Atom         X              Y              Z     
---------------------------------------------------
   1      -0.000889      -0.000089       0.000061
   2       0.000228      -0.000038       0.000049
   3       0.000007      -0.000004       0.000015
   4       0.000088       0.000040       0.000035
   5       0.000262       0.000163       0.000055
   6       0.000108       0.000051      -0.000100
   7       0.000133      -0.000175      -0.000082
   8       0.000018       0.000004       0.000002
   9       0.000016      -0.000026      -0.000003
  10       0.000005       0.000030      -0.000014
  11       0.000023       0.000045      -0.000019
---------------------------------------------------
 Number of fixed atoms: 0
 Gradient time:  CPU 219.51 s  wall 16.24 s
 ----------------------------------------------------------------
             Standard Nuclear Orientation (Angstroms)
    I     Atom           X                Y                Z
 ----------------------------------------------------------------
    1      C      -0.4410911054     0.8383798842     0.3638802976
    2      C       0.8387259526     0.4879819790     1.1527251392
    3      O       0.7627302302    -0.3991102526     2.0383455964
    4      O       1.8662897030     1.1565040314     0.8658724557
    5      C      -1.4403408039    -0.2525494131     0.2368724036
    6      H      -0.1578418226     1.2304603930    -0.6180790553
    7      H      -0.8801790630     1.6983249789     0.9012285718
    8      H      -2.1781170184    -0.2308308648    -0.5584649801
    9      H      -1.5082292145    -1.0245933949     0.9939974437
   10      O       1.3496353728    -1.2268217651    -2.2572743649
   11      O       1.7521190859    -2.2111432645    -3.0457499270
 ----------------------------------------------------------------
 Nuclear Repulsion Energy =   256.6174070940 hartrees
 There are       28 alpha and       28 beta electrons
 Discretize the solute cavity surface with Lebedev spheres
	Using 110 Lebedev grid points for each H atom
	Using 110 Lebedev grid points for other atoms
	Atomic van der Waals radii will be scaled by 1.20
 Remove points where switching function is < 1.0e-08
 Keep 775 surface tesserae and discard 435 interior tesserae
 Molecular Surface Area = 169.114 Angst**2

                       Distance Matrix (Angstroms)
             C (  1)   C (  2)   O (  3)   O (  4)   C (  5)   H (  6)
   C (  2)  1.543693
   O (  3)  2.405078  1.255799
   O (  4)  2.382689  1.259005  2.238855
   C (  5)  1.484843  2.565408  2.849615  3.648956
   H (  6)  1.094624  2.163370  3.249545  2.510914  2.138940
   H (  7)  1.105010  2.117266  2.896795  2.799627  2.135664  1.746128
   H (  8)  2.238569  3.542062  3.926872  4.506735  1.085056  2.494081
   H (  9)  2.237521  2.796655  2.576655  4.020072  1.083466  3.083440
   O ( 10)  3.787111  3.850932  4.413832  3.962476  3.867033  3.316276
   O ( 11)  5.073001  5.074126  5.487293  5.162836  4.980311  4.624519
             H (  7)   H (  8)   H (  9)   O ( 10)
   H (  8)  2.745358
   H (  9)  2.795950  1.867873
   O ( 10)  4.848164  4.040172  4.333481
   O ( 11)  6.147485  5.055193  5.325160  1.323849
 
 Requested basis set is def2-TZVPD
 There are 115 shells and 307 basis functions
 A cutoff of  1.0D-14 yielded   6055 shell pairs
 There are     43233 function pairs (     55538 Cartesian)
 Smallest overlap matrix eigenvalue = 9.84E-06
 Guess MOs from SCF MO coefficient file
 Reading MOs from coefficient file
 Reading MOs from coefficient file
 Long-range K will be added via erf
 Coulomb attenuation parameter = 0.3 bohr**(-1)
 An unrestricted hybrid HF-DFT SCF calculation will be
 performed using Pulay DIIS extrapolation
 Polarizable Continuum solvation model will be applied
 Exchange:     0.1670 Hartree-Fock + 1.0000 wB97X-V + LR-HF
 Correlation:  1.0000 wB97X-V
 Using SG-2 standard quadrature grid
 Nonlocal Correlation:  VV10 with C = 0.0100 and b = 6.00
 Grid used for NLC:  SG-1 standard quadrature
 SCF converges when DIIS error is below 1.0E-08
Using Q-Chem read-in guess as SCF_GUESS READ specified.

 using 16 threads for integral computing
 -------------------------------------------------------
 OpenMP Integral computing Module                
 Release: version 1.0, May 2013, Q-Chem Inc. Pittsburgh 
 -------------------------------------------------------
 using 16 threads for integral computing
 -------------------------------------------------------
 OpenMP Integral computing Module                
 Release: version 1.0, May 2013, Q-Chem Inc. Pittsburgh 
 -------------------------------------------------------
 -------------------------------------------------------
 OpenMP BLAS3 based DFT computing Module                
 Release: version 1.0, May 2013, Q-Chem Inc. Pittsburgh 
 -------------------------------------------------------
 -------------------------------------------------------
 OpenMP BLAS3 based DFT computing Module                
 Release: version 1.0, May 2013, Q-Chem Inc. Pittsburgh 
 -------------------------------------------------------
 -------------------------------------------------------
 OpenMP BLAS3 based DFT computing Module                
 Release: version 1.0, May 2013, Q-Chem Inc. Pittsburgh 
 -------------------------------------------------------
 ---------------------------------------
  Cycle       Energy         DIIS Error
 ---------------------------------------
    1    -417.4217636109      6.16E-04
    2    -417.7482661102      6.78E-04
    3    -417.7561957311      3.07E-04
    4    -417.7575211073      2.27E-04
    5    -417.7582682108      1.74E-04
    6    -417.7587591912      1.34E-04
    7    -417.7591188623      9.56E-05
    8    -417.7593210310      6.47E-05
    9    -417.7594438450      3.51E-05
   10    -417.7594808399      1.87E-05
   11    -417.7594940466      6.36E-06
   12    -417.7594956763      1.89E-06
   13    -417.7594958513      2.00E-07
   14    -417.7594958548      1.08E-07
   15    -417.7594958554      2.54E-08
   16    -417.7594958554      6.25E-09 Convergence criterion met
 ---------------------------------------

************** Final PCM Free Energy Summary **************
 G_electrostatic  =      -0.33771075 hartree =    -211.91669373 kcal/mol
 G_cavitation     =       0.00000000 hartree =       0.00000000 kcal/mol
 G_dispersion     =       0.00000000 hartree =       0.00000000 kcal/mol
 G_repulsion      =       0.00000000 hartree =       0.00000000 kcal/mol
 --------------------------------------------------
 Non-electrostatic Free Energy =       0.00000000 hartree =       0.00000000 kcal/mol
 Total                         =      -0.33771075 hartree =    -211.91669373 kcal/mol
 --------------------------------------------------
 SCF Energy (H0 + V/2)                       =    -417.75949586 
 Solute Internal Energy (H0)                 =    -417.42178511 
 Total Free Energy (H0 + V/2 + non-elec)     =    -417.75949586 hartree
                                             = -262148.04024948 kcal/mol
***********************************************************

 <S^2> = 1.0078
 SCF time:  CPU 1099.20 s  wall 78.14 s
 SCF   energy in the final basis set = -417.75949586
 Total energy in the final basis set = -417.75949586
 
 --------------------------------------------------------------
 
                    Orbital Energies (a.u.)
 --------------------------------------------------------------
 
 Alpha MOs
 -- Occupied --
-19.181 -19.180 -19.141 -19.140 -10.343 -10.261 -10.255  -1.162
 -1.145  -1.051  -0.886  -0.791  -0.738  -0.607  -0.556  -0.546
 -0.524  -0.496  -0.479  -0.466  -0.458  -0.455  -0.413  -0.350
 -0.343  -0.333  -0.288  -0.248
 -- Virtual --
  0.061   0.066   0.083   0.089   0.094   0.104   0.120   0.130
  0.133   0.138   0.144   0.160   0.162   0.168   0.178   0.190
  0.196   0.213   0.218   0.229   0.239   0.244   0.254   0.268
  0.279   0.290   0.294   0.297   0.303   0.320   0.329   0.339
  0.349   0.361   0.363   0.378   0.384   0.392   0.397   0.407
  0.413   0.415   0.423   0.428   0.433   0.442   0.453   0.456
  0.465   0.470   0.482   0.493   0.499   0.510   0.514   0.530
  0.546   0.551   0.564   0.569   0.576   0.585   0.588   0.594
  0.599   0.610   0.621   0.623   0.634   0.649   0.669   0.681
  0.685   0.694   0.701   0.720   0.726   0.735   0.747   0.753
  0.758   0.769   0.774   0.782   0.790   0.801   0.810   0.815
  0.834   0.838   0.850   0.866   0.877   0.910   0.920   0.947
  0.957   0.984   1.016   1.032   1.046   1.068   1.082   1.087
  1.107   1.128   1.151   1.158   1.188   1.222   1.237   1.292
  1.307   1.319   1.332   1.354   1.407   1.424   1.447   1.486
  1.497   1.513   1.598   1.657   1.729   1.751   1.766   1.767
  1.830   1.879   1.894   1.908   1.927   1.942   1.945   1.970
  1.980   1.998   2.017   2.041   2.045   2.048   2.074   2.123
  2.139   2.144   2.154   2.199   2.236   2.278   2.293   2.320
  2.327   2.341   2.373   2.417   2.449   2.485   2.496   2.513
  2.548   2.618   2.638   2.660   2.769   2.788   2.805   2.815
  2.829   2.840   2.876   2.918   2.922   2.964   3.037   3.073
  3.111   3.155   3.168   3.213   3.233   3.242   3.247   3.255
  3.264   3.281   3.301   3.310   3.338   3.364   3.406   3.449
  3.464   3.479   3.499   3.537   3.559   3.572   3.608   3.621
  3.647   3.680   3.688   3.709   3.745   3.783   3.814   3.879
  4.047   4.078   4.108   4.224   4.263   4.328   4.436   4.457
  4.572   4.611   4.718   4.828   4.848   4.890   4.924   4.930
  4.937   4.939   4.981   5.060   5.188   5.247   5.247   5.317
  5.350   5.355   5.369   5.384   5.384   5.504   5.711   5.715
  5.751   5.752   5.776   6.004   6.254   6.299   6.326   6.360
  6.364   6.512   6.517   6.623   6.626   6.661   6.666   6.689
  6.723   6.732   6.754   6.759   6.771   6.932   6.963   7.047
  7.219   7.251   7.253   7.351   7.386   7.408   7.483   8.631
 22.519  22.754  23.716  43.594  44.272  44.368  44.401
 
 Beta MOs
 -- Occupied --
-19.193 -19.192 -19.141 -19.140 -10.343 -10.255 -10.250  -1.191
 -1.145  -1.051  -0.871  -0.836  -0.712  -0.603  -0.552  -0.537
 -0.521  -0.506  -0.497  -0.491  -0.471  -0.459  -0.448  -0.349
 -0.338  -0.331  -0.304  -0.265
 -- Virtual --
  0.035   0.066   0.083   0.089   0.095   0.104   0.121   0.130
  0.133   0.138   0.146   0.160   0.163   0.166   0.178   0.190
  0.196   0.213   0.214   0.232   0.240   0.252   0.255   0.268
  0.280   0.287   0.292   0.298   0.305   0.324   0.331   0.342
  0.351   0.362   0.363   0.378   0.383   0.391   0.398   0.403
  0.411   0.415   0.424   0.429   0.434   0.446   0.455   0.455
  0.468   0.470   0.482   0.495   0.501   0.512   0.515   0.531
  0.546   0.552   0.565   0.570   0.578   0.585   0.587   0.589
  0.597   0.611   0.621   0.624   0.634   0.650   0.669   0.681
  0.685   0.694   0.702   0.713   0.724   0.734   0.746   0.751
  0.759   0.767   0.774   0.783   0.789   0.803   0.811   0.815
  0.835   0.838   0.851   0.871   0.876   0.911   0.919   0.946
  0.955   0.985   1.016   1.043   1.048   1.068   1.076   1.093
  1.104   1.129   1.156   1.159   1.188   1.228   1.242   1.294
  1.313   1.322   1.336   1.355   1.409   1.427   1.453   1.485
  1.500   1.511   1.598   1.657   1.713   1.740   1.750   1.757
  1.854   1.880   1.895   1.919   1.934   1.944   1.946   1.972
  1.987   2.002   2.006   2.022   2.043   2.053   2.076   2.127
  2.134   2.143   2.157   2.204   2.238   2.277   2.287   2.311
  2.316   2.344   2.379   2.421   2.451   2.485   2.502   2.516
  2.550   2.619   2.637   2.664   2.769   2.782   2.793   2.801
  2.820   2.836   2.878   2.923   2.933   2.980   3.040   3.073
  3.116   3.166   3.179   3.199   3.213   3.233   3.242   3.255
  3.263   3.297   3.309   3.327   3.348   3.372   3.407   3.454
  3.472   3.487   3.499   3.544   3.559   3.579   3.608   3.627
  3.655   3.686   3.697   3.714   3.747   3.790   3.825   3.887
  4.057   4.081   4.111   4.237   4.270   4.331   4.438   4.449
  4.579   4.619   4.722   4.830   4.850   4.890   4.904   4.917
  4.918   4.925   4.989   5.067   5.173   5.216   5.216   5.317
  5.350   5.351   5.352   5.356   5.370   5.504   5.711   5.715
  5.728   5.728   5.776   6.005   6.254   6.299   6.321   6.327
  6.350   6.463   6.465   6.612   6.613   6.625   6.628   6.670
  6.696   6.720   6.740   6.753   6.766   6.933   6.963   7.047
  7.216   7.220   7.245   7.351   7.386   7.408   7.464   8.617
 22.532  22.754  23.716  43.579  44.271  44.354  44.401
 --------------------------------------------------------------
 
          Ground-State Mulliken Net Atomic Charges

     Atom                 Charge (a.u.)    Spin (a.u.)
  --------------------------------------------------------
      1 C                     0.159038      -0.075679
      2 C                     0.222384       0.017651
      3 O                    -0.697678       0.001444
      4 O                    -0.710592       0.008576
      5 C                    -0.876146       0.937304
      6 H                     0.179319       0.012495
      7 H                     0.202465       0.085816
      8 H                     0.261322       0.001210
      9 H                     0.258870       0.007014
     10 O                    -0.438414      -0.486346
     11 O                    -0.560569      -0.509485
  --------------------------------------------------------
  Sum of atomic charges =    -2.000000
  Sum of spin   charges =     0.000000

 -----------------------------------------------------------------
                    Cartesian Multipole Moments
 -----------------------------------------------------------------
    Charge (ESU x 10^10)
                -9.6064
    Dipole Moment (Debye)
         X     -15.0491      Y       7.1586      Z       5.0337
       Tot      17.4086
    Quadrupole Moments (Debye-Ang)
        XX     -71.9381     XY       7.5291     YY     -66.2771
        XZ      10.5450     YZ     -22.0082     ZZ     -95.4533
    Octopole Moments (Debye-Ang^2)
       XXX    -129.9483    XXY      20.0071    XYY     -67.4306
       YYY      62.1234    XXZ      20.2095    XYZ     -41.7090
       YYZ      49.0111    XZZ    -100.2588    YZZ      83.6000
       ZZZ      89.8425
    Hexadecapole Moments (Debye-Ang^3)
      XXXX    -634.5720   XXXY      78.0603   XXYY    -230.3214
      XYYY     114.1206   YYYY    -506.0278   XXXZ     125.0857
      XXYZ    -144.0546   XYYZ     102.6303   YYYZ    -304.6876
      XXZZ    -347.0058   XYZZ     133.9526   YYZZ    -355.4420
      XZZZ     231.4251   YZZZ    -390.0072   ZZZZ   -1255.1106
 -----------------------------------------------------------------
 Calculating analytic gradient of the SCF energy
 Gradient of SCF Energy
            1           2           3           4           5           6
    1  -0.0213966   0.0492935   0.0004215  -0.0582436  -0.0295307  -0.0214482
    2   0.0874510  -0.0209141   0.0439277  -0.0362647  -0.0729033  -0.0223164
    3  -0.0284638   0.0392138  -0.0525408   0.0026565  -0.0071933   0.0672641
            7           8           9          10          11
    1   0.0204615   0.0545614   0.0059851  -0.0103739   0.0102699
    2  -0.0411540   0.0007906   0.0563095   0.0346410  -0.0295674
    3  -0.0370701   0.0561297  -0.0510946   0.0322133  -0.0211147
 Max gradient component =       8.745E-02
 RMS gradient           =       4.032E-02
 Computing fast CPCM-ISWIG gradient
 Updating gradient with PCM contributions...
 -- total gradient after adding PCM contribution --
---------------------------------------------------
  Atom         X              Y              Z     
---------------------------------------------------
   1       0.000067       0.000922      -0.000066
   2       0.000033      -0.000169       0.000017
   3       0.000045      -0.000008       0.000052
   4      -0.000061       0.000052       0.000000
   5      -0.000178      -0.000322       0.000015
   6      -0.000071      -0.000131       0.000166
   7       0.000126      -0.000360      -0.000153
   8       0.000011      -0.000015       0.000010
   9      -0.000001      -0.000043      -0.000008
  10       0.000004       0.000029      -0.000014
  11       0.000023       0.000045      -0.000019
---------------------------------------------------
 Number of fixed atoms: 0
 Gradient time:  CPU 221.19 s  wall 16.41 s
 ----------------------------------------------------------------
             Standard Nuclear Orientation (Angstroms)
    I     Atom           X                Y                Z
 ----------------------------------------------------------------
    1      C      -0.4410911054     0.8363798842     0.3638802976
    2      C       0.8387259526     0.4879819790     1.1527251392
    3      O       0.7627302302    -0.3991102526     2.0383455964
    4      O       1.8662897030     1.1565040314     0.8658724557
    5      C      -1.4403408039    -0.2525494131     0.2368724036
    6      H      -0.1578418226     1.2304603930    -0.6180790553
    7      H      -0.8801790630     1.6983249789     0.9012285718
    8      H      -2.1781170184    -0.2308308648    -0.5584649801
    9      H      -1.5082292145    -1.0245933949     0.9939974437
   10      O       1.3496353728    -1.2268217651    -2.2572743649
   11      O       1.7521190859    -2.2111432645    -3.0457499270
 ----------------------------------------------------------------
 Nuclear Repulsion Energy =   256.6358864375 hartrees
 There are       28 alpha and       28 beta electrons
 Discretize the solute cavity surface with Lebedev spheres
	Using 110 Lebedev grid points for each H atom
	Using 110 Lebedev grid points for other atoms
	Atomic van der Waals radii will be scaled by 1.20
 Remove points where switching function is < 1.0e-08
 Keep 775 surface tesserae and discard 435 interior tesserae
 Molecular Surface Area = 169.102 Angst**2

                       Distance Matrix (Angstroms)
             C (  1)   C (  2)   O (  3)   O (  4)   C (  5)   H (  6)
   C (  2)  1.543240
   O (  3)  2.404050  1.255799
   O (  4)  2.382957  1.259005  2.238855
   C (  5)  1.483374  2.565408  2.849615  3.648956
   H (  6)  1.095342  2.163370  3.249545  2.510914  2.138940
   H (  7)  1.106567  2.117266  2.896795  2.799627  2.135664  1.746128
   H (  8)  2.237614  3.542062  3.926872  4.506735  1.085056  2.494081
   H (  9)  2.235856  2.796655  2.576655  4.020072  1.083466  3.083440
   O ( 10)  3.786021  3.850932  4.413832  3.962476  3.867033  3.316276
   O ( 11)  5.071799  5.074126  5.487293  5.162836  4.980311  4.624519
             H (  7)   H (  8)   H (  9)   O ( 10)
   H (  8)  2.745358
   H (  9)  2.795950  1.867873
   O ( 10)  4.848164  4.040172  4.333481
   O ( 11)  6.147485  5.055193  5.325160  1.323849
 
 Requested basis set is def2-TZVPD
 There are 115 shells and 307 basis functions
 A cutoff of  1.0D-14 yielded   6055 shell pairs
 There are     43233 function pairs (     55538 Cartesian)
 Smallest overlap matrix eigenvalue = 9.83E-06
 Guess MOs from SCF MO coefficient file
 Reading MOs from coefficient file
 Reading MOs from coefficient file
 Long-range K will be added via erf
 Coulomb attenuation parameter = 0.3 bohr**(-1)
 An unrestricted hybrid HF-DFT SCF calculation will be
 performed using Pulay DIIS extrapolation
 Polarizable Continuum solvation model will be applied
 Exchange:     0.1670 Hartree-Fock + 1.0000 wB97X-V + LR-HF
 Correlation:  1.0000 wB97X-V
 Using SG-2 standard quadrature grid
 Nonlocal Correlation:  VV10 with C = 0.0100 and b = 6.00
 Grid used for NLC:  SG-1 standard quadrature
 SCF converges when DIIS error is below 1.0E-08
Using Q-Chem read-in guess as SCF_GUESS READ specified.

 using 16 threads for integral computing
 -------------------------------------------------------
 OpenMP Integral computing Module                
 Release: version 1.0, May 2013, Q-Chem Inc. Pittsburgh 
 -------------------------------------------------------
 using 16 threads for integral computing
 -------------------------------------------------------
 OpenMP Integral computing Module                
 Release: version 1.0, May 2013, Q-Chem Inc. Pittsburgh 
 -------------------------------------------------------
 -------------------------------------------------------
 OpenMP BLAS3 based DFT computing Module                
 Release: version 1.0, May 2013, Q-Chem Inc. Pittsburgh 
 -------------------------------------------------------
 -------------------------------------------------------
 OpenMP BLAS3 based DFT computing Module                
 Release: version 1.0, May 2013, Q-Chem Inc. Pittsburgh 
 -------------------------------------------------------
 -------------------------------------------------------
 OpenMP BLAS3 based DFT computing Module                
 Release: version 1.0, May 2013, Q-Chem Inc. Pittsburgh 
 -------------------------------------------------------
 ---------------------------------------
  Cycle       Energy         DIIS Error
 ---------------------------------------
    1    -417.4214645994      6.17E-04
    2    -417.7482567113      6.78E-04
    3    -417.7561970405      3.07E-04
    4    -417.7575260159      2.27E-04
    5    -417.7582805234      1.73E-04
    6    -417.7587830957      1.32E-04
    7    -417.7591651685      8.94E-05
    8    -417.7593690760      5.49E-05
    9    -417.7594694272      2.47E-05
   10    -417.7594901863      1.12E-05
   11    -417.7594952648      3.28E-06
   12    -417.7594957505      9.84E-07
   13    -417.7594958127      1.98E-07
   14    -417.7594958162      5.30E-08
   15    -417.7594958165      2.30E-08
   16    -417.7594958165      7.06E-09 Convergence criterion met
 ---------------------------------------

************** Final PCM Free Energy Summary **************
 G_electrostatic  =      -0.33771172 hartree =    -211.91730389 kcal/mol
 G_cavitation     =       0.00000000 hartree =       0.00000000 kcal/mol
 G_dispersion     =       0.00000000 hartree =       0.00000000 kcal/mol
 G_repulsion      =       0.00000000 hartree =       0.00000000 kcal/mol
 --------------------------------------------------
 Non-electrostatic Free Energy =       0.00000000 hartree =       0.00000000 kcal/mol
 Total                         =      -0.33771172 hartree =    -211.91730389 kcal/mol
 --------------------------------------------------
 SCF Energy (H0 + V/2)                       =    -417.75949582 
 Solute Internal Energy (H0)                 =    -417.42178409 
 Total Free Energy (H0 + V/2 + non-elec)     =    -417.75949582 hartree
                                             = -262148.04022504 kcal/mol
***********************************************************

 <S^2> = 1.0079
 SCF time:  CPU 1100.07 s  wall 78.27 s
 SCF   energy in the final basis set = -417.75949582
 Total energy in the final basis set = -417.75949582
 
 --------------------------------------------------------------
 
                    Orbital Energies (a.u.)
 --------------------------------------------------------------
 
 Alpha MOs
 -- Occupied --
-19.181 -19.180 -19.141 -19.140 -10.343 -10.261 -10.255  -1.162
 -1.145  -1.051  -0.886  -0.791  -0.738  -0.607  -0.556  -0.546
 -0.524  -0.496  -0.479  -0.466  -0.458  -0.455  -0.413  -0.350
 -0.343  -0.333  -0.288  -0.248
 -- Virtual --
  0.061   0.066   0.083   0.089   0.094   0.104   0.120   0.130
  0.133   0.138   0.144   0.160   0.162   0.168   0.178   0.190
  0.196   0.213   0.218   0.229   0.239   0.244   0.254   0.268
  0.279   0.290   0.294   0.298   0.303   0.320   0.329   0.339
  0.349   0.361   0.363   0.378   0.384   0.392   0.397   0.407
  0.413   0.415   0.423   0.428   0.433   0.443   0.453   0.456
  0.465   0.470   0.482   0.493   0.499   0.510   0.514   0.530
  0.546   0.551   0.564   0.569   0.576   0.585   0.588   0.594
  0.599   0.610   0.621   0.623   0.634   0.649   0.669   0.681
  0.685   0.694   0.701   0.720   0.726   0.735   0.747   0.753
  0.758   0.768   0.774   0.782   0.790   0.801   0.810   0.815
  0.834   0.838   0.850   0.866   0.878   0.910   0.920   0.947
  0.957   0.984   1.016   1.032   1.046   1.068   1.082   1.087
  1.107   1.128   1.151   1.158   1.188   1.222   1.237   1.292
  1.307   1.319   1.333   1.354   1.407   1.424   1.447   1.487
  1.498   1.513   1.598   1.657   1.729   1.751   1.766   1.767
  1.830   1.879   1.894   1.908   1.927   1.942   1.945   1.970
  1.981   1.998   2.017   2.041   2.045   2.048   2.074   2.123
  2.139   2.144   2.154   2.199   2.236   2.278   2.294   2.320
  2.327   2.341   2.373   2.417   2.448   2.485   2.496   2.513
  2.548   2.618   2.639   2.660   2.769   2.788   2.805   2.816
  2.828   2.840   2.876   2.918   2.923   2.964   3.037   3.073
  3.111   3.155   3.168   3.213   3.233   3.242   3.247   3.255
  3.264   3.281   3.301   3.310   3.339   3.364   3.407   3.448
  3.464   3.479   3.499   3.537   3.559   3.573   3.608   3.621
  3.647   3.680   3.689   3.709   3.745   3.784   3.815   3.880
  4.047   4.078   4.108   4.226   4.263   4.328   4.436   4.457
  4.573   4.612   4.718   4.827   4.849   4.891   4.924   4.930
  4.937   4.939   4.981   5.060   5.188   5.247   5.247   5.317
  5.350   5.355   5.369   5.384   5.384   5.504   5.711   5.715
  5.751   5.752   5.776   6.004   6.254   6.299   6.326   6.360
  6.364   6.512   6.517   6.623   6.626   6.661   6.666   6.689
  6.723   6.732   6.754   6.759   6.771   6.933   6.963   7.047
  7.219   7.251   7.253   7.351   7.386   7.408   7.483   8.631
 22.520  22.754  23.716  43.594  44.272  44.368  44.401
 
 Beta MOs
 -- Occupied --
-19.193 -19.192 -19.141 -19.140 -10.343 -10.255 -10.250  -1.191
 -1.145  -1.051  -0.871  -0.836  -0.712  -0.603  -0.552  -0.537
 -0.521  -0.506  -0.497  -0.491  -0.471  -0.459  -0.448  -0.349
 -0.338  -0.332  -0.304  -0.265
 -- Virtual --
  0.035   0.066   0.083   0.089   0.095   0.104   0.121   0.130
  0.133   0.138   0.147   0.160   0.163   0.166   0.178   0.190
  0.196   0.213   0.214   0.232   0.240   0.252   0.255   0.268
  0.280   0.287   0.292   0.298   0.305   0.324   0.331   0.342
[...]
    11    8.823684609149207e-02  -2.173104456715954e-01  -1.756269359807116e-01


    11 Order 1, Length 33
    Atom      X          Y          Z
     1   -4.066590614044925e-05   1.421839833421486e-04   7.178715306874753e-05
     2   -7.595355421234367e-05  -2.565597174967682e-05  -4.682106393757651e-05
     3    1.901466638647575e-05  -4.120226636479147e-06   2.602697316808917e-05
     4    3.880864281590163e-05   4.253652345608363e-06  -2.243615108924745e-05
     5    1.511111851905829e-05  -1.195152012303069e-05  -2.905068745065169e-05
     6   -1.673367658693245e-05  -2.349294632737369e-05   2.879200683810117e-05
     7   -3.192589498185198e-06  -5.983299241698212e-06   2.863125930373323e-05
     8   -2.518951227163824e-06   1.348330936626645e-07  -2.975940937336959e-06
     9   -1.825905336350335e-06  -8.665184977400158e-06  -6.096795065268913e-06
    10   -4.648572970158039e-02   1.090938981461605e-01   8.823684609149207e-02
    11    4.651907652071016e-02  -1.091900476336244e-01  -8.831363710701144e-02

Order 1, Length 33
    Atom      X          Y          Z
     1    5.952370118592563e-05  -4.453099400315699e-05  -7.732500594792974e-05
     2    7.093728020349560e-06  -1.055284118144808e-05   4.742639634530264e-05
     3   -9.466238726374952e-06   2.214466690329317e-05  -6.879789320907743e-05
     4    6.866760404446290e-07  -4.504237487309590e-05  -6.831998958682460e-05
     5    7.768266473452148e-08   1.307799718438208e-05   1.764721886394719e-05
     6    7.648178370453748e-06   2.698007841308026e-05   1.606396269301482e-05
     7    1.092358421964341e-06   5.122280889741860e-06   7.363631480665937e-06
     8    1.889101976521538e-05  -1.077353173920833e-05  -5.920229503235775e-06
     9    6.434671165381109e-06   3.875035488326284e-06   4.902425596841969e-07
    10    1.091738784656378e-01  -2.701440617754309e-01  -2.173104456715954e-01
    11   -1.091900476336244e-01   2.702234041446988e-01   2.174810089002810e-01

Order 1, Length 33
    Atom      X          Y          Z
     1    5.159759681521484e-05  -1.091372853984517e-04  -1.512557052865868e-04
     2    4.458512308854029e-06  -8.859968429204907e-05   4.400958700434629e-05
     3   -8.809309244793081e-06   2.508414499176087e-05  -7.218048721127063e-05
     4    4.535043119171394e-06  -1.054638669666341e-04  -1.572474194419187e-04
     5    5.209013234478958e-05  -2.027349285831451e-05  -1.304454940677059e-05
     6   -3.759457213413067e-05   1.295094746757052e-05   2.140836842751704e-05
     7    6.828233632435243e-06  -1.593858178291148e-05   7.146614351024328e-06
     8    1.200719576801142e-05  -3.180085758693665e-06  -3.946032733479964e-06
     9   -2.407054954624898e-06   1.712402054682561e-06   4.087736561792199e-06
    10    8.831816979693966e-02  -2.171984924480413e-01  -1.756269359807116e-01
    11   -8.831363710701144e-02   2.174810089002810e-01   1.759297982462554e-01




 # Finishing finite difference calculation for IDERIV #
 ######################################################
 ######################################################
 Requested basis set is def2-TZVPD
 There are 115 shells and 307 basis functions
 **********************************************************************
 **                                                                  **
 **                       VIBRATIONAL ANALYSIS                       **
 **                       --------------------                       **
 **                                                                  **
 **        VIBRATIONAL FREQUENCIES (CM**-1) AND NORMAL MODES         **
 **     FORCE CONSTANTS (mDYN/ANGSTROM) AND REDUCED MASSES (AMU)     **
 **                  INFRARED INTENSITIES (KM/MOL)                   **
 **                                                                  **
 **********************************************************************
 

 Mode:                 1                      2                      3
 Frequency:        32.88                  42.60                  47.11
 Force Cnst:      0.0052                 0.0110                 0.0049
 Red. Mass:       8.1707                10.2899                 3.7236
 IR Active:          YES                    YES                    YES
 IR Intens:        4.166                  0.136                  2.011
 Raman Active:       YES                    YES                    YES
               X      Y      Z        X      Y      Z        X      Y      Z
 C         -0.119  0.096  0.109   -0.007  0.031  0.074    0.054 -0.106 -0.140
 C          0.010 -0.084 -0.176    0.022 -0.007  0.011    0.007 -0.063 -0.046
 O          0.123 -0.211 -0.294    0.089 -0.159 -0.136   -0.059  0.064  0.075
 O         -0.011 -0.089 -0.259   -0.028  0.116  0.120    0.049 -0.155 -0.113
 C         -0.140  0.124  0.032    0.097 -0.039 -0.149   -0.120  0.016  0.185
 H         -0.281  0.314  0.150   -0.041  0.255  0.155    0.116 -0.444 -0.258
 H         -0.029 -0.028  0.380   -0.091 -0.121  0.249    0.192  0.130 -0.407
 H         -0.226  0.263  0.115    0.112  0.039 -0.161   -0.183 -0.048  0.241
 H         -0.067 -0.003 -0.091    0.161 -0.194 -0.302   -0.176  0.198  0.366
 O          0.059  0.044  0.321   -0.128  0.325 -0.361   -0.024  0.174 -0.086
 O          0.054  0.120  0.225   -0.026 -0.269  0.428    0.081  0.043  0.129
 TransDip  -0.045  0.038  0.029    0.012 -0.001  0.001   -0.004 -0.038 -0.024

 Mode:                 4                      5                      6
 Frequency:        51.82                  61.08                  85.18
 Force Cnst:      0.0066                 0.0132                 0.0565
 Red. Mass:       4.1442                 6.0145                13.2093
 IR Active:          YES                    YES                    YES
 IR Intens:       12.467                 10.523                  1.286
 Raman Active:       YES                    YES                    YES
               X      Y      Z        X      Y      Z        X      Y      Z
 C         -0.127  0.112  0.228   -0.042  0.082  0.085   -0.064 -0.025  0.015
 C         -0.035  0.010  0.040   -0.022  0.018  0.022   -0.048  0.001 -0.002
 O         -0.042  0.115  0.147    0.045 -0.120 -0.111   -0.004 -0.022 -0.021
 O          0.023 -0.185 -0.194   -0.064  0.119  0.103   -0.077  0.047  0.000
 C          0.012  0.011 -0.016   -0.201  0.209  0.269   -0.118  0.008  0.152
 H         -0.260  0.444  0.326   -0.056 -0.057  0.022   -0.081 -0.128 -0.032
 H         -0.198 -0.125  0.552    0.112  0.209  0.005   -0.008  0.049 -0.059
 H          0.120 -0.000 -0.115   -0.366  0.322  0.425   -0.212  0.023  0.239
 H         -0.021 -0.055 -0.085   -0.146  0.207  0.271   -0.071  0.039  0.187
 O          0.056  0.010 -0.145    0.006 -0.152 -0.199    0.702  0.206 -0.039
 O          0.098 -0.057 -0.041    0.240 -0.121 -0.120   -0.426 -0.218 -0.085
 TransDip  -0.041  0.050  0.093   -0.048  0.058  0.071   -0.030 -0.004  0.021

 Mode:                 7                      8                      9
 Frequency:       131.41                 271.05                 432.07
 Force Cnst:      0.0106                 0.1495                 0.1500
 Red. Mass:       1.0374                 3.4535                 1.3638
 IR Active:          YES                    YES                    YES
 IR Intens:        0.220                  5.090                 73.362
 Raman Active:       YES                    YES                    YES
               X      Y      Z        X      Y      Z        X      Y      Z
 C          0.008  0.000 -0.010    0.029 -0.142  0.013    0.010  0.042 -0.002
 C         -0.007  0.006 -0.002    0.036 -0.071  0.056   -0.035 -0.015  0.044
 O         -0.027  0.020  0.011    0.204  0.021  0.166    0.041 -0.038  0.031
 O          0.009 -0.016 -0.002   -0.071  0.054 -0.043   -0.067 -0.011 -0.043
 C          0.014 -0.008  0.000   -0.196  0.088 -0.194   -0.035  0.092  0.056
 H          0.012 -0.010 -0.019    0.134 -0.126  0.049    0.153 -0.190 -0.056
 H         -0.009  0.019 -0.056    0.078 -0.094 -0.018    0.115  0.223 -0.217
 H         -0.412  0.335  0.404   -0.255  0.546 -0.130    0.407 -0.355 -0.361
 H          0.507 -0.403 -0.359   -0.502 -0.042 -0.348    0.423 -0.311 -0.318
 O         -0.000 -0.000  0.001    0.001  0.001 -0.000    0.001  0.000 -0.000
 O          0.002  0.001  0.001   -0.001  0.001 -0.000    0.000 -0.000 -0.001
 TransDip  -0.001 -0.010 -0.011   -0.061 -0.013 -0.037    0.196 -0.128 -0.143

 Mode:                10                     11                     12
 Frequency:       491.12                 588.50                 658.72
 Force Cnst:      0.4586                 0.6577                 0.6812
 Red. Mass:       3.2268                 3.2233                 2.6647
 IR Active:          YES                    YES                    YES
 IR Intens:       34.151                 42.923                  9.688
 Raman Active:       YES                    YES                    YES
               X      Y      Z        X      Y      Z        X      Y      Z
 C          0.081  0.089 -0.008   -0.180  0.113 -0.023    0.083 -0.101  0.187
 C         -0.109 -0.028  0.099   -0.077  0.181  0.141    0.029  0.133  0.106
 O          0.026 -0.102  0.055    0.159 -0.018 -0.046   -0.144 -0.036 -0.089
 O         -0.203 -0.010 -0.126    0.107 -0.134  0.052    0.050  0.059 -0.113
 C          0.256  0.017 -0.044   -0.041 -0.092 -0.075    0.014 -0.046  0.024
 H          0.359 -0.057  0.016    0.090 -0.306 -0.123    0.212 -0.456  0.075
 H         -0.028  0.161 -0.217   -0.450  0.313 -0.586   -0.007  0.123 -0.259
 H         -0.192  0.276  0.376   -0.182 -0.031  0.052    0.210  0.401 -0.153
 H         -0.033  0.461  0.386   -0.139  0.035  0.050   -0.427 -0.251 -0.229
 O         -0.001 -0.000  0.001    0.000 -0.000  0.000   -0.000 -0.000 -0.000
 O         -0.001  0.001  0.001    0.000 -0.000 -0.000    0.000 -0.000 -0.000
 TransDip  -0.035  0.144  0.115   -0.184  0.100  0.007    0.035 -0.011  0.093

 Mode:                13                     14                     15
 Frequency:       853.47                 922.41                1019.52
 Force Cnst:      1.4555                 1.6160                 0.9866
 Red. Mass:       3.3913                 3.2236                 1.6111
 IR Active:          YES                    YES                    YES
 IR Intens:       46.653                  7.850                 12.375
 Raman Active:       YES                    YES                    YES
               X      Y      Z        X      Y      Z        X      Y      Z
 C         -0.011  0.023 -0.103    0.164 -0.178 -0.099    0.056 -0.011  0.141
 C          0.154  0.045  0.209   -0.157  0.207  0.128   -0.029 -0.007 -0.041
 O         -0.098 -0.158  0.079    0.057  0.033 -0.100    0.002  0.067 -0.058
 O          0.097  0.122 -0.134   -0.045 -0.108  0.006   -0.011 -0.017  0.020
 C         -0.133 -0.004 -0.069   -0.038  0.081  0.056   -0.082 -0.033 -0.098
 H          0.089  0.325  0.049    0.121  0.472  0.167    0.562 -0.099  0.255
 H         -0.197 -0.175  0.074   -0.189 -0.601  0.336    0.298  0.168  0.032
 H         -0.345 -0.535  0.114    0.075 -0.027 -0.040   -0.308 -0.448  0.101
 H          0.359  0.198  0.192    0.158  0.029  0.014    0.255  0.193  0.178
 O         -0.000 -0.000  0.000    0.000  0.000  0.000   -0.000 -0.000  0.000
 O         -0.000  0.000  0.000    0.000 -0.000 -0.000    0.000 -0.000 -0.000
 TransDip   0.166 -0.019  0.141   -0.066  0.061  0.009   -0.061 -0.087  0.037

 Mode:                16                     17                     18
 Frequency:      1110.59                1178.39                1272.67
 Force Cnst:      1.6542                 1.0183                15.2624
 Red. Mass:       2.2763                 1.2446                15.9933
 IR Active:          YES                    YES                    YES
 IR Intens:        1.822                  4.929                  0.026
 Raman Active:       YES                    YES                    YES
               X      Y      Z        X      Y      Z        X      Y      Z
 C          0.138  0.195 -0.083   -0.057 -0.060 -0.008   -0.000  0.000 -0.001
 C         -0.022  0.032  0.030   -0.016  0.069  0.069   -0.001  0.001 -0.001
 O          0.012 -0.016  0.009    0.005 -0.013 -0.009   -0.000 -0.001  0.001
 O         -0.035 -0.017 -0.007    0.002 -0.015 -0.008    0.001  0.001 -0.001
 C         -0.087 -0.190  0.048    0.035  0.017 -0.051    0.001 -0.001 -0.001
 H          0.109  0.314 -0.041   -0.469 -0.172 -0.174    0.002 -0.006 -0.002
 H          0.494  0.162  0.246    0.752  0.207  0.248    0.004 -0.002  0.006
 H         -0.069 -0.013  0.010   -0.049 -0.022  0.029   -0.001  0.000  0.001
 H         -0.502 -0.391 -0.180    0.107  0.109  0.048   -0.001  0.000 -0.000
 O         -0.000 -0.000 -0.000    0.000 -0.000 -0.000   -0.214  0.525  0.424
 O         -0.000  0.000  0.000   -0.000  0.000  0.000    0.214 -0.525 -0.423
 TransDip   0.003  0.040 -0.016    0.047  0.034  0.042   -0.004  0.002  0.001

 Mode:                19                     20                     21
 Frequency:      1320.94                1416.14                1429.37
 Force Cnst:      1.7269                 1.9582                 1.8460
 Red. Mass:       1.6798                 1.6573                 1.5336
 IR Active:          YES                    YES                    YES
 IR Intens:       45.311                201.398                 82.383
 Raman Active:       YES                    YES                    YES
               X      Y      Z        X      Y      Z        X      Y      Z
 C         -0.172 -0.043 -0.083    0.070 -0.042  0.049   -0.067 -0.083 -0.015
 C         -0.074 -0.001 -0.020   -0.122  0.037 -0.093    0.118 -0.032  0.066
 O         -0.000 -0.027  0.026    0.006 -0.062  0.068   -0.007  0.050 -0.052
 O          0.079  0.041 -0.014    0.062  0.033 -0.010   -0.058 -0.032  0.010
 C          0.035 -0.009  0.050   -0.056 -0.059 -0.012    0.047  0.030  0.022
 H          0.751  0.124  0.259   -0.296  0.505  0.146    0.007  0.639  0.274
 H          0.325  0.012  0.246    0.081  0.308 -0.470    0.151  0.340 -0.460
 H          0.183  0.302 -0.067    0.131  0.266 -0.166   -0.050 -0.154  0.108
 H          0.009 -0.029  0.015    0.281  0.140  0.216   -0.233 -0.103 -0.139
 O          0.000 -0.000 -0.000    0.000  0.000  0.000   -0.000  0.000  0.000
 O         -0.000  0.000  0.000    0.000 -0.000 -0.000    0.000 -0.000 -0.000
 TransDip  -0.183 -0.112  0.024   -0.318  0.190 -0.264    0.257  0.019  0.134

 Mode:                22                     23                     24
 Frequency:      1441.03                1596.77                2960.61
 Force Cnst:      2.0974                15.5411                 5.5389
 Red. Mass:       1.7143                10.3454                 1.0725
 IR Active:          YES                    YES                    YES
 IR Intens:      148.871               1252.374                 26.510
 Raman Active:       YES                    YES                    YES
               X      Y      Z        X      Y      Z        X      Y      Z
 C         -0.015  0.036 -0.019   -0.062 -0.046  0.019    0.031 -0.063 -0.030
 C          0.145 -0.021  0.072    0.361  0.544 -0.421   -0.000 -0.001 -0.001
 O         -0.005  0.052 -0.055   -0.032 -0.221  0.215    0.000  0.000  0.000
 O         -0.083 -0.042  0.013   -0.221 -0.156  0.075    0.000  0.000  0.000
 C         -0.082 -0.095 -0.002    0.011  0.027 -0.001   -0.001 -0.001 -0.001
 H          0.070 -0.016 -0.022    0.395 -0.089  0.116    0.040  0.021 -0.112
 H          0.010  0.007  0.045    0.045 -0.036  0.087   -0.399  0.764  0.486
 H          0.273  0.611 -0.306   -0.053 -0.112  0.054    0.000 -0.003  0.001
 H          0.486  0.194  0.344   -0.058 -0.012 -0.066   -0.001 -0.004  0.001
 O         -0.000  0.000  0.000    0.000 -0.000 -0.000    0.000 -0.000 -0.000
 O          0.000 -0.000 -0.000   -0.000  0.000  0.000   -0.000  0.000 -0.000
 TransDip   0.361 -0.007  0.150    0.558  0.777 -0.608    0.006 -0.156 -0.054

 Mode:                25                     26                     27
 Frequency:      3086.24                3160.52                3267.98
 Force Cnst:      6.0934                 6.1885                 7.0377
 Red. Mass:       1.0858                 1.0515                 1.1185
 IR Active:          YES                    YES                    YES
 IR Intens:       29.706                 27.284                 11.211
 Raman Active:       YES                    YES                    YES
               X      Y      Z        X      Y      Z        X      Y      Z
 C          0.024  0.023 -0.077    0.003  0.003 -0.002   -0.001 -0.001  0.003
 C          0.002  0.000 -0.000    0.001 -0.001  0.001   -0.000 -0.001  0.000
 O         -0.000 -0.000  0.000    0.000  0.000 -0.000    0.000  0.000 -0.000
 O         -0.001 -0.000  0.000   -0.000 -0.000 -0.000    0.000  0.000 -0.000
 C          0.002 -0.001  0.003   -0.048 -0.040 -0.009    0.032 -0.046  0.083
 H         -0.262 -0.351  0.888   -0.008 -0.012  0.025    0.010  0.013 -0.029
 H         -0.038  0.088  0.032   -0.001  0.004  0.002    0.000 -0.000  0.001
 H         -0.031  0.005 -0.032    0.509 -0.019  0.560   -0.438  0.010 -0.471
 H          0.003  0.001 -0.005    0.032  0.461 -0.457    0.052  0.544 -0.527
 O          0.000 -0.000 -0.000    0.000  0.000  0.000    0.000  0.000  0.000
 O          0.000  0.000  0.000   -0.000 -0.000  0.000   -0.000 -0.000  0.000
 TransDip   0.041  0.078 -0.151   -0.139 -0.075 -0.055    0.028 -0.048  0.092

 STANDARD THERMODYNAMIC QUANTITIES AT   298.15 K  AND     1.00 ATM

   This Molecule has  0 Imaginary Frequencies
   Zero point vibrational energy:       41.358 kcal/mol

   Atom    1 Element C  Has Mass   12.00000
   Atom    2 Element C  Has Mass   12.00000
   Atom    3 Element O  Has Mass   15.99491
   Atom    4 Element O  Has Mass   15.99491
   Atom    5 Element C  Has Mass   12.00000
   Atom    6 Element H  Has Mass    1.00783
   Atom    7 Element H  Has Mass    1.00783
   Atom    8 Element H  Has Mass    1.00783
   Atom    9 Element H  Has Mass    1.00783
   Atom   10 Element O  Has Mass   15.99491
   Atom   11 Element O  Has Mass   15.99491
   Molecular Mass:   104.010960 amu
   Principal axes and moments of inertia in amu*Bohr^2:
                             1           2           3
    Eigenvalues --      572.08626  1716.57097  1968.67778
          X              -0.23974     0.96925    -0.05546
          Y               0.47787     0.16753     0.86231
          Z               0.84509     0.18023    -0.50334
   Rotational Symmetry Number is   1
   The Molecule is an Asymmetric Top
   Translational Enthalpy:        0.889 kcal/mol
   Rotational Enthalpy:           0.889 kcal/mol
   Vibrational Enthalpy:         45.842 kcal/mol
   gas constant (RT):             0.592 kcal/mol
   Translational Entropy:        39.835  cal/mol.K
   Rotational Entropy:           29.048  cal/mol.K
   Vibrational Entropy:          36.127  cal/mol.K

   Total Enthalpy:               48.212 kcal/mol
   Total Entropy:               105.011  cal/mol.K
Archival summary:
1\1\c4-65\FREQ\ProcedureUnspecified\BasisUnspecified\434(2-,1)\leeping\MonApr622:46:592020MonApr622:46:592020\0\\#,FREQ,ProcedureUnspecified,BasisUnspecified,\\-2,1\C\O,1,1.2558\O,1,1.259,2,125.814\C,1,1.54347,2,118.045,3,-177.919,0\H,4,1.09498,1,108.972,2,-153.79,0\H,4,1.10579,1,104.901,2,94.1929,0\C,4,1.48411,1,115.835,2,-27.5869,0\H,7,1.08347,4,120.378,1,27.7994,0\H,7,1.08506,4,120.387,1,-158.526,0\O,5,3.31628,4,107.149,1,64.5794,0\O,10,1.32385,5,169.588,4,108.867,0\\\@

 Total job time:  6651.05s(wall), 93066.66s(cpu) 
 Mon Apr  6 22:46:59 2020

        *************************************************************
        *                                                           *
        *  Thank you very much for using Q-Chem.  Have a nice day.  *
        *                                                           *
        *************************************************************


