
Running Job 1 of 1 qc-3-tshess.in
qchem qc-3-tshess.in_26035.0 ./qc-3-tshess.d/ 1
/home/leeping/opt/qchem/5.0.2-openmp/exe/qcprog.exe_s qc-3-tshess.in_26035.0 ./qc-3-tshess.d/
Check license passed

                  Welcome to Q-Chem
     A Quantum Leap Into The Future Of Chemistry


 Q-Chem 5.0, Q-Chem, Inc., Pleasanton, CA (2017)

 Yihan Shao,  Zhengting Gan,  E. Epifanovsky,  A. T. B. Gilbert,  M. Wormit,  
 J. Kussmann,  A. W. Lange,  A. Behn,  Jia Deng,  Xintian Feng,  D. Ghosh,  
 M. Goldey,  P. R. Horn,  L. D. Jacobson,  I. Kaliman,  T. Kus,  A. Landau,  
 Jie Liu,  E. I. Proynov,  R. M. Richard,  R. P. Steele,  E. J. Sundstrom,  
 H. L. Woodcock III,  P. M. Zimmerman,  D. Zuev,  B. Albrecht,  E. Alguire,  
 S. A. Baeppler,  D. Barton,  Z. Benda,  Y. A. Bernard,  E. J. Berquist,  
 K. B. Bravaya,  H. Burton,  D. Casanova,  Chun-Min Chang,  Yunqing Chen,  
 A. Chien,  K. D. Closser,  M. P. Coons,  S. Dasgupta,  A. L. Dempwolff,  
 M. Diedenhofen,  Hainam Do,  R. G. Edgar,  Po-Tung Fang,  S. Fatehi,  
 Qingguo Feng,  J. Fosso-Tande,  Qinghui Ge,  A. Ghysels,  G. Gidofalvi,  
 J. Gomes,  J. Gonthier,  A. Gunina,  M. W. D. Hanson-Heine,  
 P. H. P. Harbach,  A. W. Hauser,  J. E. Herr,  E. G. Hohenstein,  
 Z. C. Holden,  Kerwin Hui,  T.-C. Jagau,  Hyunjun Ji,  B. Kaduk,  
 K. Khistyaev,  Jaehoon Kim,  P. Klunzinger,  K. Koh,  D. Kosenkov,  
 L. Koulias,  T. Kowalczyk,  C. M. Krauter,  A. Kunitsa,  Ka Un Lao,  
 A. Laurent,  K. V. Lawler,  Joonho Lee,  D. Lefrancois,  S. Lehtola,  
 D. S. Levine,  Yi-Pei Li,  You-Sheng Lin,  Fenglai Liu,  E. Livshits,  
 A. Luenser,  P. Manohar,  E. Mansoor,  S. F. Manzer,  Shan-Ping Mao,  
 Yuezhi Mao,  N. Mardirossian,  A. V. Marenich,  T. Markovich,  
 L. A. Martinez-Martinez,  S. A. Maurer,  N. J. Mayhall,  S. C. McKenzie,  
 J.-M. Mewes,  A. F. Morrison,  J. W. Mullinax,  K. Nanda,  
 T. S. Nguyen-Beck,  R. Olivares-Amaya,  J. A. Parkhill,  T. M. Perrine,  
 F. Plasser,  S. Prager,  A. Prociuk,  E. Ramos,  D. R. Rehn,  F. Rob,  
 M. Schneider,  N. Sergueev,  S. M. Sharada,  S. Sharma,  D. W. Small,  
 T. Stauch,  T. Stein,  Yu-Chuan Su,  A. J. W. Thom,  A. Tkatchenko,  
 T. Tsuchimochi,  L. Vogt,  O. Vydrov,  M. A. Watson,  J. Wenzel,  
 M. de Wergifosse,  T. A. Wesolowski,  A. White,  J. Witte,  A. Yamada,  
 Jun Yang,  K. Yao,  S. Yeganeh,  S. R. Yost,  Zhi-Qiang You,  A. Zech,  
 Igor Ying Zhang,  Xing Zhang,  Yan Zhao,  Ying Zhu,  B. R. Brooks,  
 G. K. L. Chan,  C. J. Cramer,  M. S. Gordon,  W. J. Hehre,  A. Klamt,  
 M. W. Schmidt,  C. D. Sherrill,  D. G. Truhlar,  A. Aspuru-Guzik,  R. Baer,  
 A. T. Bell,  N. A. Besley,  Jeng-Da Chai,  R. A. DiStasio Jr.,  A. Dreuw,  
 B. D. Dunietz,  T. R. Furlani,  Chao-Ping Hsu,  Yousung Jung,  Jing Kong,  
 D. S. Lambrecht,  WanZhen Liang,  C. Ochsenfeld,  V. A. Rassolov,  
 L. V. Slipchenko,  J. E. Subotnik,  T. Van Voorhis,  J. M. Herbert,  
 A. I. Krylov,  P. M. W. Gill,  M. Head-Gordon

 Contributors to earlier versions of Q-Chem not listed above: 
 R. D. Adamson,  B. Austin,  J. Baker,  G. J. O. Beran,  K. Brandhorst,  
 S. T. Brown,  E. F. C. Byrd,  A. K. Chakraborty,  C.-L. Cheng,  
 Siu Hung Chien,  D. M. Chipman,  D. L. Crittenden,  H. Dachsel,  
 R. J. Doerksen,  A. D. Dutoi,  L. Fusti-Molnar,  W. A. Goddard III,  
 A. Golubeva-Zadorozhnaya,  S. R. Gwaltney,  G. Hawkins,  A. Heyden,  
 S. Hirata,  G. Kedziora,  F. J. Keil,  C. Kelley,  Jihan Kim,  R. A. King,  
 R. Z. Khaliullin,  P. P. Korambath,  W. Kurlancheek,  A. M. Lee,  M. S. Lee,  
 S. V. Levchenko,  Ching Yeh Lin,  D. Liotard,  R. C. Lochan,  I. Lotan,  
 P. E. Maslen,  N. Nair,  D. P. O'Neill,  D. Neuhauser,  E. Neuscamman,  
 C. M. Oana,  R. Olson,  B. Peters,  R. Peverati,  P. A. Pieniazek,  
 Y. M. Rhee,  J. Ritchie,  M. A. Rohrdanz,  E. Rosta,  N. J. Russ,  
 H. F. Schaefer III,  N. E. Schultz,  N. Shenvi,  A. C. Simmonett,  A. Sodt,  
 D. Stuck,  K. S. Thanthiriwatte,  V. Vanovschi,  Tao Wang,  A. Warshel,  
 C. F. Williams,  Q. Wu,  X. Xu,  W. Zhang

 Please cite Q-Chem as follows:
 Y. Shao et al., Mol. Phys. 113, 184-215 (2015)
 DOI: 10.1080/00268976.2014.952696

 Q-Chem 5.0.2 for Intel X86 EM64T Linux

 Parts of Q-Chem use Armadillo 5.200.1 (Boston Tea Smuggler).
 http://arma.sourceforge.net/

 Q-Chem begins on Thu May 30 13:09:54 2019  

Host: 
0

     Scratch files written to ./qc-3-tshess.d//
 Dec517 15110_ 26548  26544 5633   
Processing $rem in /home/leeping/opt/qchem/5.0.2-openmp/config/preferences.
 MEM_STATIC 2000
 MEM_TOTAL  8000
 SYMMETRY   OFF
 SYM_IGNORE TRUE 
Symmetry turned off for PCM/SM12/SMD calculation

Checking the input file for inconsistencies... 	...done.

--------------------------------------------------------------
User input:
--------------------------------------------------------------
$molecule
-2 1
C       -0.4007256044    0.8054896901    0.1306443147
C        0.6804837895    0.8300147908    1.2258859976
O        0.6299844739   -0.0504814555    2.1220845879
O        1.5242735978    1.7652564690    1.1683403321
C       -0.8547292971   -0.5489632868   -0.2823993520
H       -0.0391321555    1.3691361696   -0.7367547695
H       -1.2423132277    1.3963491180    0.5348128136
H       -1.5335668294   -0.6467537143   -1.1230108122
H       -0.8036668943   -1.3674958415    0.4251830544
O        1.0108542214   -1.1532187753   -1.4930506926
O        1.0285379257   -2.3993331642   -1.9717354741
$end

$rem
jobtype               freq
method                wb97x-v
basis                 def2-tzvpd
symmetry              off
sym_ignore            true
unrestricted          true
incdft                false
incfock               0
scf_algorithm         diis_gdm
scf_convergence       8
thresh                14
!purecart             112
max_scf_cycles        1000
geom_opt_max_cycles   500
geom_opt_dmax         100
geom_opt_tol_gradient 10
solvent_method        pcm
ideriv                1
rpath_tol_displacement 1000
rpath_max_cycles      100
rpath_direction       1
!scf_guess            read
scf_guess             read
$end

$pcm
theory              cosmo
method              iswig
Radii               bondi
vdwScale            1.20
hpoints             110
heavypoints         110
$end

$solvent
dielectric 78.400000
$end

--------------------------------------------------------------
 ----------------------------------------------------------------
             Standard Nuclear Orientation (Angstroms)
    I     Atom           X                Y                Z
 ----------------------------------------------------------------
    1      C      -0.4007256044     0.8054896901     0.1306443147
    2      C       0.6804837895     0.8300147908     1.2258859976
    3      O       0.6299844739    -0.0504814555     2.1220845879
    4      O       1.5242735978     1.7652564690     1.1683403321
    5      C      -0.8547292971    -0.5489632868    -0.2823993520
    6      H      -0.0391321555     1.3691361696    -0.7367547695
    7      H      -1.2423132277     1.3963491180     0.5348128136
    8      H      -1.5335668294    -0.6467537143    -1.1230108122
    9      H      -0.8036668943    -1.3674958415     0.4251830544
   10      O       1.0108542214    -1.1532187753    -1.4930506926
   11      O       1.0285379257    -2.3993331642    -1.9717354741
 ----------------------------------------------------------------
 Nuclear Repulsion Energy =   273.5239607614 hartrees
 There are       28 alpha and       28 beta electrons
 Requested basis set is def2-TZVPD
 There are 115 shells and 307 basis functions

 Total QAlloc Memory Limit   8000 MB
 Mega-Array Size      1956 MB
 MEM_STATIC part      2000 MB
 Discretize the solute cavity surface with Lebedev spheres
	Using 110 Lebedev grid points for each H atom
	Using 110 Lebedev grid points for other atoms
	Atomic van der Waals radii will be scaled by 1.20
 Remove points where switching function is < 1.0e-08
 Keep 734 surface tesserae and discard 476 interior tesserae
 Molecular Surface Area = 150.352 Angst**2

                       Distance Matrix (Angstroms)
             C (  1)   C (  2)   O (  3)   O (  4)   C (  5)   H (  6)
   C (  2)  1.539211
   O (  3)  2.400184  1.257377
   O (  4)  2.388218  1.260940  2.237473
   C (  5)  1.487033  2.556049  2.869565  3.622142
   H (  6)  1.095823  2.158809  3.261287  2.496104  2.133247
   H (  7)  1.104870  2.120251  2.849254  2.862071  2.145297  1.750791
   H (  8)  2.228002  3.549673  3.945521  4.518680  1.084901  2.538965
   H (  9)  2.229570  2.769997  2.582510  3.973126  1.083179  3.069816
   O ( 10)  2.909550  3.381564  3.798723  3.982976  2.304605  2.834913
   O ( 11)  4.090683  4.557918  4.736593  5.239240  3.134393  4.106879
             H (  7)   H (  8)   H (  9)   O ( 10)
   H (  8)  2.647164
   H (  9)  2.800584  1.857183
   O ( 10)  3.960971  2.620594  2.649155
   O ( 11)  5.083970  3.218113  3.188555  1.335010
 
 A cutoff of  1.0D-14 yielded   6246 shell pairs
 There are     44802 function pairs (     57674 Cartesian)
 
 -------------------------------------------------------
 OpenMP Integral Computing Module                       
 Release: version 1.0, May 2013, Q-Chem Inc. Pittsburgh 
 -------------------------------------------------------
 Integral Job Info:
 Integral job number is                      11
 Integral operator is                         1
 short-range coefficients              16700000
 long-range coefficients              100000000
 Omega coefficients                         300
 if combine SR and LR in K                    1
 Integral screening is                        0
 Integral computing path is                   2
 max size of driver memory is            800000
 size of driver memory is                776718
 size of scratch memory is              4473992
 max col of scratch BK array              10000
 max len of scratch array in speh3          662
 max len of scratch index in speh4           32
 max int batch size is                      520
 min int batch size is                       52
 fixed nKL is                                52
 max L of basis functions is                  3
 order of int derivative is                   0
 number of shells is                        115
 number of basis is                         349
 number of cartesian basis is               349
 number of contracted shell pairs          6246
 number of primitive shell pairs          13178
 maxK2 (contraction) of shell pair           36
 max number of K2 of shell pair               1
 max number of CS2 of shell pair            944
 max number of PS2 of shell pair           1518
 mem total for path MDJ                  648692
 -------------------------------------------------------
 Smallest overlap matrix eigenvalue = 8.32E-06
 Guess MOs from SCF MO coefficient file
 Reading MOs from coefficient file
 Reading MOs from coefficient file
 Long-range K will be added via erf
 Coulomb attenuation parameter = 0.3 bohr**(-1)
 An unrestricted hybrid HF-DFT SCF calculation will be
 performed using Pulay DIIS + Geometric Direct Minimization
 Polarizable Continuum solvation model will be applied
 Exchange:     0.1670 Hartree-Fock + 1.0000 wB97X-V + LR-HF
 Correlation:  1.0000 wB97X-V
 Using SG-2 standard quadrature grid
 Nonlocal Correlation:  VV10 with C = 0.0100 and b = 6.00
 Grid used for NLC:  SG-1 standard quadrature
 SCF converges when RMS gradient is below 1.0E-08
Using Q-Chem read-in guess as SCF_GUESS READ specified.

 using 8 threads for integral computing
 -------------------------------------------------------
 OpenMP Integral computing Module                
 Release: version 1.0, May 2013, Q-Chem Inc. Pittsburgh 
 -------------------------------------------------------
 using 8 threads for integral computing
 -------------------------------------------------------
 OpenMP Integral computing Module                
 Release: version 1.0, May 2013, Q-Chem Inc. Pittsburgh 
 -------------------------------------------------------
 -------------------------------------------------------
 OpenMP BLAS3 based DFT computing Module                
 Release: version 1.0, May 2013, Q-Chem Inc. Pittsburgh 
 -------------------------------------------------------
 -------------------------------------------------------
 OpenMP BLAS3 based DFT computing Module                
 Release: version 1.0, May 2013, Q-Chem Inc. Pittsburgh 
 -------------------------------------------------------
 -------------------------------------------------------
 OpenMP BLAS3 based DFT computing Module                
 Release: version 1.0, May 2013, Q-Chem Inc. Pittsburgh 
 -------------------------------------------------------
 ---------------------------------------
  Cycle       Energy        RMS Gradient
 ---------------------------------------
    1    -417.4175295902      5.44E-04 Done DIIS. Switching to GDM
    2    -417.7433202465      2.00E-02 Normal BFGS step
    3    -417.7506233873      8.63E-03 Normal BFGS step
    4    -417.7525381863      5.81E-03 Normal BFGS step
    5    -417.7527260199      3.99E-03 Normal BFGS step
    6    -417.7528301314      1.01E-03 Normal BFGS step
    7    -417.7528446736      1.14E-03 Normal BFGS step
    8    -417.7528512028      5.49E-04 Normal BFGS step
    9    -417.7528524078      2.37E-04 Normal BFGS step
   10    -417.7528530151      1.11E-04 Normal BFGS step
   11    -417.7528531888      7.04E-05 Normal BFGS step
   12    -417.7528532365      4.31E-05 Normal BFGS step
   13    -417.7528532527      1.46E-05 Normal BFGS step
   14    -417.7528532559      8.26E-06 Normal BFGS step
   15    -417.7528532564      7.67E-06 Normal BFGS step
   16    -417.7528532567      7.21E-06 Normal BFGS step
   17    -417.7528532570      6.50E-06 Normal BFGS step
   18    -417.7528532575      4.87E-06 Normal BFGS step
   19    -417.7528532579      4.75E-06 Normal BFGS step
   20    -417.7528532582      2.91E-06 Normal BFGS step
   21    -417.7528532583      9.19E-07 Normal BFGS step
   22    -417.7528532583      4.28E-07 Normal BFGS step
   23    -417.7528532583      1.64E-07 Normal BFGS step
   GDM::WARNING energy changes are now smaller than effective accuracy.
   GDM::        calculation will continue, but THRESH should be increased
   GDM::        or SCF_CONVERGENCE decreased.
   GDM::        effective_thresh =   1.435845997654894E-009
   24    -417.7528532583      6.64E-08 Normal BFGS step
   25    -417.7528532583      2.74E-08 Normal BFGS step
   GDM::WARNING energy changes are now smaller than effective accuracy.
   GDM::        calculation will continue, but THRESH should be increased
   GDM::        or SCF_CONVERGENCE decreased.
   GDM::        effective_thresh =   1.435845997654894E-009
   26    -417.7528532583      3.44E-08 Normal BFGS step
   27    -417.7528532583      1.03E-08 Normal BFGS step
   28    -417.7528532583      3.81E-09 Convergence criterion met
 ---------------------------------------

************** Final PCM Free Energy Summary **************
 G_electrostatic  =      -0.33532367 hartree =    -210.41877762 kcal/mol
 G_cavitation     =       0.00000000 hartree =       0.00000000 kcal/mol
 G_dispersion     =       0.00000000 hartree =       0.00000000 kcal/mol
 G_repulsion      =       0.00000000 hartree =       0.00000000 kcal/mol
 --------------------------------------------------
 Non-electrostatic Free Energy =       0.00000000 hartree =       0.00000000 kcal/mol
 Total                         =      -0.33532367 hartree =    -210.41877762 kcal/mol
 --------------------------------------------------
 SCF Energy (H0 + V/2)                       =    -417.75285326 
 Solute Internal Energy (H0)                 =    -417.41752959 
 Total Free Energy (H0 + V/2 + non-elec)     =    -417.75285326 hartree
                                             = -262143.87195687 kcal/mol
***********************************************************

 <S^2> = 0.7754
 SCF time:  CPU 1920.30 s  wall 259.75 s
 SCF   energy in the final basis set = -417.75285326
 Total energy in the final basis set = -417.75285326
 
 --------------------------------------------------------------
 
                    Orbital Energies (a.u.)
 --------------------------------------------------------------
 
 Alpha MOs
 -- Occupied --
-19.188 -19.163 -19.138 -19.138 -10.339 -10.251 -10.248  -1.150
 -1.141  -1.047  -0.879  -0.792  -0.728  -0.602  -0.549  -0.543
 -0.518  -0.489  -0.474  -0.458  -0.452  -0.445  -0.415  -0.346
 -0.336  -0.329  -0.254  -0.244
 -- Virtual --
  0.062   0.069   0.079   0.094   0.095   0.108   0.124   0.129
  0.132   0.137   0.156   0.162   0.168   0.173   0.178   0.190
  0.201   0.213   0.220   0.235   0.242   0.263   0.266   0.278
  0.282   0.290   0.296   0.310   0.317   0.330   0.335   0.346
  0.360   0.369   0.370   0.384   0.385   0.400   0.409   0.412
  0.423   0.430   0.436   0.451   0.455   0.461   0.466   0.472
  0.491   0.495   0.499   0.515   0.518   0.528   0.541   0.551
  0.561   0.572   0.575   0.583   0.591   0.597   0.601   0.609
  0.624   0.629   0.634   0.657   0.661   0.674   0.679   0.701
  0.708   0.708   0.717   0.730   0.737   0.749   0.769   0.770
  0.786   0.799   0.801   0.807   0.818   0.826   0.832   0.844
  0.852   0.873   0.890   0.914   0.924   0.944   0.972   0.982
  1.007   1.019   1.043   1.056   1.081   1.090   1.111   1.127
  1.143   1.162   1.199   1.234   1.252   1.270   1.290   1.315
  1.331   1.355   1.365   1.379   1.416   1.431   1.468   1.488
  1.528   1.538   1.631   1.669   1.757   1.779   1.830   1.840
  1.882   1.887   1.915   1.926   1.931   1.941   1.954   1.986
  1.988   2.023   2.034   2.044   2.081   2.104   2.116   2.140
  2.165   2.198   2.211   2.241   2.281   2.301   2.318   2.339
  2.372   2.398   2.446   2.460   2.484   2.492   2.506   2.553
  2.604   2.629   2.661   2.695   2.779   2.790   2.836   2.860
  2.873   2.925   2.933   2.944   2.999   3.030   3.062   3.092
  3.127   3.169   3.227   3.233   3.246   3.265   3.282   3.302
  3.321   3.334   3.346   3.362   3.379   3.399   3.441   3.454
  3.496   3.534   3.538   3.556   3.578   3.604   3.618   3.657
  3.681   3.699   3.709   3.769   3.789   3.812   3.826   3.913
  4.082   4.087   4.121   4.257   4.277   4.358   4.427   4.461
  4.580   4.612   4.748   4.847   4.852   4.909   4.938   4.970
  4.973   5.000   5.036   5.094   5.206   5.284   5.298   5.321
  5.354   5.359   5.371   5.404   5.422   5.504   5.711   5.720
  5.743   5.758   5.779   6.000   6.250   6.301   6.328   6.347
  6.378   6.563   6.576   6.620   6.627   6.679   6.688   6.695
  6.736   6.759   6.766   6.789   6.816   6.937   6.969   7.050
  7.221   7.248   7.278   7.361   7.381   7.411   7.505   8.618
 22.573  22.793  23.723  43.721  44.277  44.391  44.438
 
 Beta MOs
 -- Occupied --
-19.199 -19.172 -19.138 -19.137 -10.339 -10.248 -10.241  -1.175
 -1.141  -1.047  -0.867  -0.827  -0.706  -0.599  -0.546  -0.536
 -0.517  -0.492  -0.486  -0.480  -0.459  -0.450  -0.444  -0.346
 -0.335  -0.328  -0.293  -0.259
 -- Virtual --
  0.066   0.072   0.079   0.093   0.097   0.107   0.125   0.129
  0.132   0.137   0.158   0.162   0.165   0.173   0.179   0.190
  0.203   0.213   0.219   0.237   0.243   0.264   0.269   0.279
  0.280   0.290   0.296   0.311   0.317   0.333   0.336   0.347
  0.362   0.370   0.372   0.382   0.386   0.399   0.409   0.413
  0.424   0.431   0.436   0.452   0.457   0.465   0.469   0.473
  0.491   0.495   0.499   0.516   0.519   0.528   0.540   0.550
  0.561   0.572   0.574   0.583   0.592   0.598   0.601   0.607
  0.625   0.627   0.634   0.657   0.660   0.674   0.679   0.701
  0.708   0.711   0.718   0.730   0.738   0.750   0.769   0.772
  0.788   0.800   0.804   0.809   0.820   0.827   0.834   0.847
  0.854   0.875   0.891   0.915   0.923   0.943   0.971   0.982
  1.006   1.017   1.046   1.056   1.083   1.091   1.120   1.128
  1.145   1.161   1.200   1.235   1.255   1.266   1.293   1.318
  1.335   1.358   1.369   1.380   1.420   1.432   1.469   1.488
  1.529   1.541   1.632   1.671   1.750   1.776   1.815   1.825
  1.882   1.887   1.927   1.929   1.935   1.944   1.957   1.983
  1.992   2.015   2.035   2.044   2.084   2.102   2.121   2.140
  2.166   2.201   2.211   2.239   2.281   2.303   2.321   2.335
  2.369   2.400   2.448   2.462   2.483   2.493   2.512   2.555
  2.607   2.636   2.655   2.696   2.784   2.794   2.840   2.861
  2.874   2.926   2.929   2.948   2.985   3.038   3.063   3.096
  3.130   3.179   3.223   3.234   3.251   3.258   3.284   3.300
  3.324   3.338   3.356   3.363   3.386   3.398   3.443   3.454
  3.501   3.542   3.545   3.564   3.581   3.609   3.621   3.661
  3.683   3.703   3.709   3.775   3.799   3.818   3.834   3.920
  4.085   4.095   4.125   4.267   4.285   4.360   4.436   4.448
  4.587   4.618   4.753   4.848   4.853   4.900   4.933   4.956
  4.967   4.991   5.030   5.099   5.193   5.258   5.274   5.322
  5.354   5.359   5.370   5.376   5.393   5.504   5.711   5.720
  5.723   5.738   5.779   6.000   6.250   6.301   6.326   6.340
  6.344   6.522   6.535   6.619   6.625   6.641   6.650   6.694
  6.726   6.751   6.754   6.769   6.787   6.936   6.969   7.050
  7.221   7.242   7.248   7.361   7.381   7.411   7.489   8.606
 22.586  22.792  23.723  43.709  44.277  44.385  44.432
 --------------------------------------------------------------
 
          Ground-State Mulliken Net Atomic Charges

     Atom                 Charge (a.u.)    Spin (a.u.)
  --------------------------------------------------------
      1 C                     0.232430      -0.112416
      2 C                     0.168725       0.011656
      3 O                    -0.701842       0.000119
      4 O                    -0.719810       0.004145
      5 C                    -0.752044       0.868195
      6 H                     0.133973       0.020697
      7 H                     0.179812       0.070850
      8 H                     0.219574      -0.000234
      9 H                     0.245215       0.003215
     10 O                    -0.332110      -0.480813
     11 O                    -0.673923      -0.385415
  --------------------------------------------------------
  Sum of atomic charges =    -2.000000
  Sum of spin   charges =     0.000000

 -----------------------------------------------------------------
                    Cartesian Multipole Moments
 -----------------------------------------------------------------
    Charge (ESU x 10^10)
                -9.6064
    Dipole Moment (Debye)
         X     -11.4813      Y       5.0756      Z      -0.5157
       Tot      12.5637
    Quadrupole Moments (Debye-Ang)
        XX     -61.1821     XY       0.4161     YY     -76.1206
        XZ      -1.0435     YZ     -22.0244     ZZ     -80.7099
    Octopole Moments (Debye-Ang^2)
       XXX     -84.8077    XXY       2.4313    XYY     -62.0183
       YYY      46.6349    XXZ      -9.3839    XYZ     -28.8500
       YYZ      24.3876    XZZ     -56.5363    YZZ      36.1485
       ZZZ     -17.9955
    Hexadecapole Moments (Debye-Ang^3)
      XXXX    -347.8861   XXXY      -9.2320   XXYY    -196.5344
      XYYY      25.3091   YYYY    -708.6390   XXXZ     -21.7992
      XXYZ     -98.5853   XYYZ      14.0424   YYYZ    -305.2849
      XXZZ    -188.1623   XYZZ      22.0231   YYZZ    -282.0729
      XZZZ     -14.4050   YZZZ    -266.8500   ZZZZ    -756.7200
 -----------------------------------------------------------------
 Calculating analytic gradient of the SCF energy
 Gradient of SCF Energy
            1           2           3           4           5           6
    1  -0.0389717   0.0398178  -0.0010114  -0.0463659  -0.0341062  -0.0271743
    2   0.0912275  -0.0123918   0.0423804  -0.0483871  -0.0817961  -0.0383589
    3  -0.0343832   0.0461605  -0.0569377  -0.0059675   0.0049595   0.0577655
            7           8           9          10          11
    1   0.0462845   0.0583682  -0.0132893   0.0171146  -0.0006663
    2  -0.0288827   0.0081052   0.0684123   0.0398859  -0.0401947
    3  -0.0289480   0.0740198  -0.0569734   0.0095479  -0.0092434
 Max gradient component =       9.123E-02
 RMS gradient           =       4.349E-02
 Computing fast CPCM-ISWIG gradient
 Updating gradient with PCM contributions...
 -- total gradient after adding PCM contribution --
---------------------------------------------------
  Atom         X              Y              Z     
---------------------------------------------------
   1      -0.000012      -0.000011       0.000020
   2      -0.000006      -0.000011       0.000009
   3       0.000022      -0.000030      -0.000007
   4      -0.000022       0.000007       0.000020
   5      -0.000003      -0.000009      -0.000004
   6      -0.000032       0.000013       0.000027
   7      -0.000022      -0.000033       0.000038
   8       0.000002      -0.000007       0.000003
   9       0.000034      -0.000025      -0.000022
  10       0.000012       0.000046      -0.000032
  11       0.000027       0.000060      -0.000052
---------------------------------------------------
 Number of fixed atoms: 0
 Gradient time:  CPU 229.53 s  wall 31.06 s
 ######################################################
 ######################################################
 # Starting finite difference calculation for IDERIV  #
 Finite diff step size:  1.88973e-03 a.u.
 ----------------------------------------------------------------
             Standard Nuclear Orientation (Angstroms)
    I     Atom           X                Y                Z
 ----------------------------------------------------------------
    1      C      -0.3997256044     0.8054896901     0.1306443147
    2      C       0.6804837895     0.8300147908     1.2258859976
    3      O       0.6299844739    -0.0504814555     2.1220845879
    4      O       1.5242735978     1.7652564690     1.1683403321
    5      C      -0.8547292971    -0.5489632868    -0.2823993520
    6      H      -0.0391321555     1.3691361696    -0.7367547695
    7      H      -1.2423132277     1.3963491180     0.5348128136
    8      H      -1.5335668294    -0.6467537143    -1.1230108122
    9      H      -0.8036668943    -1.3674958415     0.4251830544
   10      O       1.0108542214    -1.1532187753    -1.4930506926
   11      O       1.0285379257    -2.3993331642    -1.9717354741
 ----------------------------------------------------------------
 Nuclear Repulsion Energy =   273.5328978427 hartrees
 There are       28 alpha and       28 beta electrons
 Discretize the solute cavity surface with Lebedev spheres
	Using 110 Lebedev grid points for each H atom
	Using 110 Lebedev grid points for other atoms
	Atomic van der Waals radii will be scaled by 1.20
 Remove points where switching function is < 1.0e-08
 Keep 734 surface tesserae and discard 476 interior tesserae
 Molecular Surface Area = 150.346 Angst**2

                       Distance Matrix (Angstroms)
             C (  1)   C (  2)   O (  3)   O (  4)   C (  5)   H (  6)
   C (  2)  1.538508
   O (  3)  2.399755  1.257377
   O (  4)  2.387412  1.260940  2.237473
   C (  5)  1.487339  2.556049  2.869565  3.622142
   H (  6)  1.095494  2.158809  3.261287  2.496104  2.133247
   H (  7)  1.105631  2.120251  2.849254  2.862071  2.145297  1.750791
   H (  8)  2.228510  3.549673  3.945521  4.518680  1.084901  2.538965
   H (  9)  2.229751  2.769997  2.582510  3.973126  1.083179  3.069816
   O ( 10)  2.909065  3.381564  3.798723  3.982976  2.304605  2.834913
   O ( 11)  4.090333  4.557918  4.736593  5.239240  3.134393  4.106879
             H (  7)   H (  8)   H (  9)   O ( 10)
   H (  8)  2.647164
   H (  9)  2.800584  1.857183
   O ( 10)  3.960971  2.620594  2.649155
   O ( 11)  5.083970  3.218113  3.188555  1.335010
 
 Requested basis set is def2-TZVPD
 There are 115 shells and 307 basis functions
 A cutoff of  1.0D-14 yielded   6246 shell pairs
 There are     44802 function pairs (     57674 Cartesian)
 Smallest overlap matrix eigenvalue = 8.31E-06
 Guess MOs from SCF MO coefficient file
 Reading MOs from coefficient file
 Reading MOs from coefficient file
 Long-range K will be added via erf
 Coulomb attenuation parameter = 0.3 bohr**(-1)
 An unrestricted hybrid HF-DFT SCF calculation will be
 performed using Pulay DIIS + Geometric Direct Minimization
 Polarizable Continuum solvation model will be applied
 Exchange:     0.1670 Hartree-Fock + 1.0000 wB97X-V + LR-HF
 Correlation:  1.0000 wB97X-V
 Using SG-2 standard quadrature grid
 Nonlocal Correlation:  VV10 with C = 0.0100 and b = 6.00
 Grid used for NLC:  SG-1 standard quadrature
 SCF converges when RMS gradient is below 1.0E-08
Using Q-Chem read-in guess as SCF_GUESS READ specified.

 using 8 threads for integral computing
 -------------------------------------------------------
 OpenMP Integral computing Module                
 Release: version 1.0, May 2013, Q-Chem Inc. Pittsburgh 
 -------------------------------------------------------
 using 8 threads for integral computing
 -------------------------------------------------------
 OpenMP Integral computing Module                
 Release: version 1.0, May 2013, Q-Chem Inc. Pittsburgh 
 -------------------------------------------------------
 -------------------------------------------------------
 OpenMP BLAS3 based DFT computing Module                
 Release: version 1.0, May 2013, Q-Chem Inc. Pittsburgh 
 -------------------------------------------------------
 -------------------------------------------------------
 OpenMP BLAS3 based DFT computing Module                
 Release: version 1.0, May 2013, Q-Chem Inc. Pittsburgh 
 -------------------------------------------------------
 -------------------------------------------------------
 OpenMP BLAS3 based DFT computing Module                
 Release: version 1.0, May 2013, Q-Chem Inc. Pittsburgh 
 -------------------------------------------------------
 ---------------------------------------
  Cycle       Energy        RMS Gradient
 ---------------------------------------
    1    -417.4172739286      5.44E-04 Done DIIS. Switching to GDM
    2    -417.7433134986      2.00E-02 Normal BFGS step
    3    -417.7506231525      8.64E-03 Normal BFGS step
    4    -417.7525369917      5.83E-03 Normal BFGS step
    5    -417.7527249794      3.99E-03 Normal BFGS step
    6    -417.7528292773      1.01E-03 Normal BFGS step
    7    -417.7528438667      1.14E-03 Normal BFGS step
    8    -417.7528503827      5.48E-04 Normal BFGS step
    9    -417.7528515883      2.37E-04 Normal BFGS step
   10    -417.7528521959      1.11E-04 Normal BFGS step
   11    -417.7528523697      7.05E-05 Normal BFGS step
   12    -417.7528524175      4.31E-05 Normal BFGS step
   13    -417.7528524337      1.46E-05 Normal BFGS step
   14    -417.7528524368      7.96E-06 Normal BFGS step
   15    -417.7528524374      7.36E-06 Normal BFGS step
   16    -417.7528524377      6.94E-06 Normal BFGS step
   17    -417.7528524379      6.28E-06 Normal BFGS step
   18    -417.7528524383      4.77E-06 Normal BFGS step
   19    -417.7528524388      4.60E-06 Normal BFGS step
   20    -417.7528524390      2.88E-06 Normal BFGS step
   21    -417.7528524391      9.15E-07 Normal BFGS step
   22    -417.7528524391      4.27E-07 Normal BFGS step
   23    -417.7528524391      1.63E-07 Normal BFGS step
   GDM::WARNING energy changes are now smaller than effective accuracy.
   GDM::        calculation will continue, but THRESH should be increased
   GDM::        or SCF_CONVERGENCE decreased.
   GDM::        effective_thresh =   8.051948968690326E-010
   24    -417.7528524391      6.54E-08 Normal BFGS step
   25    -417.7528524391      2.72E-08 Normal BFGS step
   26    -417.7528524391      3.42E-08 Normal BFGS step
   GDM::WARNING energy changes are now smaller than effective accuracy.
   GDM::        calculation will continue, but THRESH should be increased
   GDM::        or SCF_CONVERGENCE decreased.
   GDM::        effective_thresh =   8.051948968690326E-010
   27    -417.7528524391      1.03E-08 Normal BFGS step
   28    -417.7528524391      4.12E-09 Convergence criterion met
 ---------------------------------------

************** Final PCM Free Energy Summary **************
 G_electrostatic  =      -0.33532794 hartree =    -210.42145688 kcal/mol
 G_cavitation     =       0.00000000 hartree =       0.00000000 kcal/mol
 G_dispersion     =       0.00000000 hartree =       0.00000000 kcal/mol
 G_repulsion      =       0.00000000 hartree =       0.00000000 kcal/mol
 --------------------------------------------------
 Non-electrostatic Free Energy =       0.00000000 hartree =       0.00000000 kcal/mol
 Total                         =      -0.33532794 hartree =    -210.42145688 kcal/mol
 --------------------------------------------------
 SCF Energy (H0 + V/2)                       =    -417.75285244 
 Solute Internal Energy (H0)                 =    -417.41752450 
 Total Free Energy (H0 + V/2 + non-elec)     =    -417.75285244 hartree
                                             = -262143.87144282 kcal/mol
***********************************************************

 <S^2> = 0.7755
 SCF time:  CPU 1922.73 s  wall 260.70 s
 SCF   energy in the final basis set = -417.75285244
 Total energy in the final basis set = -417.75285244
 
 --------------------------------------------------------------
 
                    Orbital Energies (a.u.)
 --------------------------------------------------------------
 
 Alpha MOs
 -- Occupied --
-19.188 -19.163 -19.138 -19.137 -10.339 -10.251 -10.248  -1.150
 -1.141  -1.047  -0.879  -0.792  -0.728  -0.602  -0.549  -0.543
 -0.518  -0.489  -0.474  -0.458  -0.452  -0.445  -0.415  -0.346
 -0.336  -0.329  -0.254  -0.244
 -- Virtual --
  0.062   0.069   0.079   0.094   0.095   0.108   0.124   0.129
  0.132   0.137   0.156   0.162   0.168   0.173   0.178   0.190
  0.201   0.213   0.220   0.236   0.242   0.263   0.266   0.278
  0.282   0.290   0.296   0.310   0.317   0.330   0.335   0.346
  0.360   0.369   0.370   0.384   0.385   0.400   0.409   0.412
  0.423   0.430   0.436   0.451   0.455   0.461   0.466   0.472
  0.491   0.495   0.499   0.515   0.518   0.528   0.541   0.551
  0.561   0.572   0.575   0.583   0.591   0.597   0.601   0.609
  0.624   0.629   0.634   0.657   0.661   0.674   0.679   0.701
  0.707   0.708   0.717   0.730   0.737   0.749   0.769   0.770
  0.786   0.799   0.801   0.807   0.818   0.826   0.832   0.844
  0.852   0.873   0.890   0.914   0.924   0.944   0.972   0.982
  1.007   1.019   1.043   1.056   1.081   1.090   1.111   1.127
  1.143   1.162   1.199   1.234   1.252   1.270   1.290   1.315
  1.331   1.355   1.365   1.379   1.416   1.431   1.469   1.488
  1.528   1.538   1.631   1.670   1.757   1.779   1.830   1.840
  1.882   1.887   1.915   1.926   1.931   1.941   1.954   1.986
  1.989   2.023   2.034   2.044   2.081   2.104   2.116   2.140
  2.165   2.198   2.212   2.241   2.281   2.301   2.318   2.339
  2.372   2.398   2.446   2.460   2.484   2.492   2.506   2.553
  2.604   2.629   2.661   2.695   2.779   2.790   2.836   2.860
  2.873   2.926   2.933   2.944   2.999   3.030   3.061   3.092
  3.127   3.169   3.227   3.233   3.246   3.265   3.282   3.302
  3.321   3.334   3.347   3.362   3.379   3.399   3.441   3.454
  3.497   3.534   3.538   3.556   3.578   3.604   3.618   3.657
  3.681   3.699   3.709   3.769   3.789   3.812   3.826   3.913
  4.083   4.087   4.121   4.257   4.277   4.358   4.427   4.461
  4.580   4.612   4.749   4.847   4.852   4.909   4.938   4.970
  4.973   5.000   5.036   5.094   5.206   5.284   5.298   5.322
  5.354   5.359   5.371   5.404   5.422   5.504   5.711   5.720
  5.743   5.758   5.779   6.000   6.250   6.301   6.328   6.347
  6.378   6.563   6.576   6.620   6.627   6.679   6.688   6.695
  6.736   6.759   6.766   6.789   6.816   6.937   6.969   7.050
  7.221   7.248   7.278   7.361   7.381   7.411   7.505   8.618
 22.573  22.792  23.723  43.722  44.277  44.391  44.438
 
 Beta MOs
 -- Occupied --
-19.199 -19.172 -19.138 -19.137 -10.339 -10.248 -10.241  -1.175
 -1.141  -1.047  -0.867  -0.827  -0.707  -0.599  -0.546  -0.536
 -0.517  -0.492  -0.486  -0.480  -0.459  -0.450  -0.444  -0.346
 -0.335  -0.328  -0.293  -0.259
 -- Virtual --
  0.066   0.072   0.079   0.093   0.097   0.107   0.125   0.129
  0.132   0.137   0.158   0.162   0.165   0.173   0.179   0.190
  0.203   0.213   0.219   0.237   0.243   0.264   0.269   0.279
  0.280   0.290   0.296   0.311   0.317   0.333   0.336   0.347
  0.362   0.370   0.372   0.382   0.386   0.399   0.409   0.413
  0.424   0.431   0.436   0.452   0.457   0.465   0.469   0.473
  0.491   0.495   0.499   0.516   0.519   0.528   0.540   0.550
  0.561   0.572   0.574   0.583   0.592   0.598   0.601   0.607
  0.625   0.627   0.634   0.657   0.660   0.674   0.679   0.701
  0.708   0.711   0.718   0.730   0.738   0.750   0.769   0.772
  0.788   0.800   0.804   0.809   0.820   0.827   0.835   0.847
  0.854   0.875   0.891   0.914   0.923   0.943   0.971   0.982
  1.006   1.017   1.047   1.056   1.083   1.091   1.120   1.128
  1.145   1.161   1.200   1.235   1.255   1.267   1.293   1.318
  1.335   1.358   1.369   1.380   1.420   1.432   1.469   1.488
  1.530   1.540   1.632   1.671   1.750   1.776   1.815   1.825
  1.882   1.887   1.927   1.929   1.935   1.944   1.957   1.983
  1.992   2.015   2.035   2.044   2.084   2.102   2.121   2.140
  2.166   2.201   2.211   2.239   2.281   2.303   2.321   2.335
  2.369   2.400   2.448   2.462   2.483   2.493   2.512   2.555
  2.607   2.636   2.655   2.696   2.784   2.794   2.840   2.861
  2.874   2.926   2.929   2.948   2.985   3.038   3.063   3.096
  3.130   3.179   3.223   3.234   3.251   3.258   3.284   3.300
  3.324   3.338   3.356   3.363   3.386   3.397   3.443   3.454
  3.502   3.542   3.545   3.564   3.581   3.609   3.621   3.661
  3.683   3.703   3.709   3.775   3.799   3.818   3.834   3.920
  4.085   4.095   4.126   4.267   4.285   4.360   4.437   4.448
  4.587   4.618   4.753   4.848   4.853   4.900   4.933   4.956
  4.967   4.991   5.030   5.099   5.193   5.258   5.274   5.322
  5.354   5.359   5.370   5.376   5.393   5.504   5.711   5.720
  5.723   5.738   5.779   6.001   6.250   6.301   6.326   6.340
  6.344   6.522   6.535   6.619   6.625   6.641   6.650   6.694
  6.726   6.751   6.754   6.769   6.787   6.937   6.969   7.050
  7.221   7.242   7.248   7.361   7.382   7.411   7.489   8.606
 22.586  22.792  23.724  43.709  44.277  44.385  44.432
 --------------------------------------------------------------
 
          Ground-State Mulliken Net Atomic Charges

     Atom                 Charge (a.u.)    Spin (a.u.)
  --------------------------------------------------------
      1 C                     0.232978      -0.112289
      2 C                     0.168323       0.011609
      3 O                    -0.701892       0.000114
      4 O                    -0.719838       0.004141
      5 C                    -0.752264       0.868204
      6 H                     0.134390       0.020624
      7 H                     0.179430       0.070884
      8 H                     0.219680      -0.000251
      9 H                     0.245241       0.003216
     10 O                    -0.332069      -0.480829
     11 O                    -0.673978      -0.385425
  --------------------------------------------------------
  Sum of atomic charges =    -2.000000
  Sum of spin   charges =    -0.000000

 -----------------------------------------------------------------
                    Cartesian Multipole Moments
 -----------------------------------------------------------------
    Charge (ESU x 10^10)
                -9.6064
    Dipole Moment (Debye)
         X     -11.4819      Y       5.0755      Z      -0.5173
       Tot      12.5643
    Quadrupole Moments (Debye-Ang)
        XX     -61.1835     XY       0.4158     YY     -76.1222
        XZ      -1.0426     YZ     -22.0274     ZZ     -80.7116
    Octopole Moments (Debye-Ang^2)
       XXX     -84.8232    XXY       2.4277    XYY     -62.0263
       YYY      46.6324    XXZ      -9.3875    XYZ     -28.8523
       YYZ      24.3824    XZZ     -56.5442    YZZ      36.1472
       ZZZ     -18.0019
    Hexadecapole Moments (Debye-Ang^3)
      XXXX    -347.8702   XXXY      -9.2433   XXYY    -196.5382
      XYYY      25.2990   YYYY    -708.6570   XXXZ     -21.7986
      XXYZ     -98.5920   XYYZ      14.0430   YYYZ    -305.3029
      XXZZ    -188.1632   XYZZ      22.0175   YYZZ    -282.0804
      XZZZ     -14.4055   YZZZ    -266.8647   ZZZZ    -756.7364
 -----------------------------------------------------------------
 Calculating analytic gradient of the SCF energy
 Gradient of SCF Energy
            1           2           3           4           5           6
    1  -0.0383319   0.0396546  -0.0009972  -0.0463784  -0.0342207  -0.0272262
    2   0.0912800  -0.0125084   0.0423855  -0.0483987  -0.0818584  -0.0384617
    3  -0.0345766   0.0460665  -0.0569486  -0.0059863   0.0048939   0.0579576
            7           8           9          10          11
    1   0.0459606   0.0583858  -0.0132979   0.0171141  -0.0006628
    2  -0.0286235   0.0080966   0.0684014   0.0398787  -0.0401915
    3  -0.0287531   0.0740110  -0.0569662   0.0095443  -0.0092426
 Max gradient component =       9.128E-02
 RMS gradient           =       4.348E-02
 Computing fast CPCM-ISWIG gradient
 Updating gradient with PCM contributions...
 -- total gradient after adding PCM contribution --
---------------------------------------------------
  Atom         X              Y              Z     
---------------------------------------------------
   1       0.000879       0.000043      -0.000031
   2      -0.000237      -0.000004      -0.000059
   3       0.000041      -0.000032      -0.000030
   4      -0.000070      -0.000035      -0.000031
   5      -0.000131      -0.000107      -0.000061
   6      -0.000172      -0.000074       0.000150
   7      -0.000378       0.000161       0.000164
   8      -0.000003      -0.000042      -0.000005
   9       0.000039      -0.000026      -0.000021
  10       0.000011       0.000054      -0.000028
  11       0.000023       0.000063      -0.000048
---------------------------------------------------
 Number of fixed atoms: 0
 Gradient time:  CPU 229.27 s  wall 31.23 s
 ----------------------------------------------------------------
             Standard Nuclear Orientation (Angstroms)
    I     Atom           X                Y                Z
 ----------------------------------------------------------------
    1      C      -0.4017256044     0.8054896901     0.1306443147
    2      C       0.6804837895     0.8300147908     1.2258859976
    3      O       0.6299844739    -0.0504814555     2.1220845879
    4      O       1.5242735978     1.7652564690     1.1683403321
    5      C      -0.8547292971    -0.5489632868    -0.2823993520
    6      H      -0.0391321555     1.3691361696    -0.7367547695
    7      H      -1.2423132277     1.3963491180     0.5348128136
    8      H      -1.5335668294    -0.6467537143    -1.1230108122
    9      H      -0.8036668943    -1.3674958415     0.4251830544
   10      O       1.0108542214    -1.1532187753    -1.4930506926
   11      O       1.0285379257    -2.3993331642    -1.9717354741
 ----------------------------------------------------------------
 Nuclear Repulsion Energy =   273.5150222226 hartrees
 There are       28 alpha and       28 beta electrons
 Discretize the solute cavity surface with Lebedev spheres
	Using 110 Lebedev grid points for each H atom
	Using 110 Lebedev grid points for other atoms
	Atomic van der Waals radii will be scaled by 1.20
 Remove points where switching function is < 1.0e-08
 Keep 734 surface tesserae and discard 476 interior tesserae
 Molecular Surface Area = 150.357 Angst**2

                       Distance Matrix (Angstroms)
             C (  1)   C (  2)   O (  3)   O (  4)   C (  5)   H (  6)
   C (  2)  1.539913
   O (  3)  2.400614  1.257377
   O (  4)  2.389025  1.260940  2.237473
   C (  5)  1.486728  2.556049  2.869565  3.622142
   H (  6)  1.096154  2.158809  3.261287  2.496104  2.133247
   H (  7)  1.104108  2.120251  2.849254  2.862071  2.145297  1.750791
   H (  8)  2.227493  3.549673  3.945521  4.518680  1.084901  2.538965
   H (  9)  2.229389  2.769997  2.582510  3.973126  1.083179  3.069816
   O ( 10)  2.910035  3.381564  3.798723  3.982976  2.304605  2.834913
   O ( 11)  4.091032  4.557918  4.736593  5.239240  3.134393  4.106879
             H (  7)   H (  8)   H (  9)   O ( 10)
   H (  8)  2.647164
   H (  9)  2.800584  1.857183
   O ( 10)  3.960971  2.620594  2.649155
   O ( 11)  5.083970  3.218113  3.188555  1.335010
 
 Requested basis set is def2-TZVPD
 There are 115 shells and 307 basis functions
 A cutoff of  1.0D-14 yielded   6246 shell pairs
 There are     44802 function pairs (     57674 Cartesian)
 Smallest overlap matrix eigenvalue = 8.32E-06
 Guess MOs from SCF MO coefficient file
 Reading MOs from coefficient file
 Reading MOs from coefficient file
 Long-range K will be added via erf
 Coulomb attenuation parameter = 0.3 bohr**(-1)
 An unrestricted hybrid HF-DFT SCF calculation will be
 performed using Pulay DIIS + Geometric Direct Minimization
 Polarizable Continuum solvation model will be applied
 Exchange:     0.1670 Hartree-Fock + 1.0000 wB97X-V + LR-HF
 Correlation:  1.0000 wB97X-V
 Using SG-2 standard quadrature grid
 Nonlocal Correlation:  VV10 with C = 0.0100 and b = 6.00
 Grid used for NLC:  SG-1 standard quadrature
 SCF converges when RMS gradient is below 1.0E-08
Using Q-Chem read-in guess as SCF_GUESS READ specified.

 using 8 threads for integral computing
 -------------------------------------------------------
 OpenMP Integral computing Module                
 Release: version 1.0, May 2013, Q-Chem Inc. Pittsburgh 
 -------------------------------------------------------
 using 8 threads for integral computing
 -------------------------------------------------------
 OpenMP Integral computing Module                
 Release: version 1.0, May 2013, Q-Chem Inc. Pittsburgh 
 -------------------------------------------------------
 -------------------------------------------------------
 OpenMP BLAS3 based DFT computing Module                
 Release: version 1.0, May 2013, Q-Chem Inc. Pittsburgh 
 -------------------------------------------------------
 -------------------------------------------------------
 OpenMP BLAS3 based DFT computing Module                
 Release: version 1.0, May 2013, Q-Chem Inc. Pittsburgh 
 -------------------------------------------------------
 -------------------------------------------------------
 OpenMP BLAS3 based DFT computing Module                
 Release: version 1.0, May 2013, Q-Chem Inc. Pittsburgh 
 -------------------------------------------------------
 ---------------------------------------
  Cycle       Energy        RMS Gradient
 ---------------------------------------
    1    -417.4180379843      5.45E-04 Done DIIS. Switching to GDM
    2    -417.7433286289      2.00E-02 Normal BFGS step
    3    -417.7506207346      8.60E-03 Normal BFGS step
    4    -417.7525381370      5.77E-03 Normal BFGS step
    5    -417.7527256054      3.97E-03 Normal BFGS step
    6    -417.7528293388      1.02E-03 Normal BFGS step
    7    -417.7528437830      1.15E-03 Normal BFGS step
    8    -417.7528503402      5.50E-04 Normal BFGS step
    9    -417.7528515441      2.37E-04 Normal BFGS step
   10    -417.7528521512      1.11E-04 Normal BFGS step
   11    -417.7528523247      7.03E-05 Normal BFGS step
   12    -417.7528523723      4.30E-05 Normal BFGS step
   13    -417.7528523886      1.46E-05 Normal BFGS step
   14    -417.7528523917      8.87E-06 Normal BFGS step
   15    -417.7528523923      8.28E-06 Normal BFGS step
   16    -417.7528523927      7.75E-06 Normal BFGS step
   17    -417.7528523930      6.91E-06 Normal BFGS step
   18    -417.7528523936      5.06E-06 Normal BFGS step
   19    -417.7528523941      5.03E-06 Normal BFGS step
   20    -417.7528523944      2.96E-06 Normal BFGS step
   21    -417.7528523945      9.28E-07 Normal BFGS step
   22    -417.7528523945      4.31E-07 Normal BFGS step
   23    -417.7528523945      1.65E-07 Normal BFGS step
   24    -417.7528523945      6.83E-08 Normal BFGS step
   25    -417.7528523945      2.77E-08 Normal BFGS step
   GDM::WARNING energy changes are now smaller than effective accuracy.
   GDM::        calculation will continue, but THRESH should be increased
   GDM::        or SCF_CONVERGENCE decreased.
   GDM::        effective_thresh =   2.449764516243569E-009
   26    -417.7528523945      3.52E-08 Normal BFGS step
   27    -417.7528523945      1.02E-08 Normal BFGS step
   GDM::WARNING energy changes are now smaller than effective accuracy.
   GDM::        calculation will continue, but THRESH should be increased
   GDM::        or SCF_CONVERGENCE decreased.
   GDM::        effective_thresh =   2.449764516243569E-009
   28    -417.7528523945      3.58E-09 Convergence criterion met
 ---------------------------------------

************** Final PCM Free Energy Summary **************
 G_electrostatic  =      -0.33531938 hartree =    -210.41608502 kcal/mol
 G_cavitation     =       0.00000000 hartree =       0.00000000 kcal/mol
 G_dispersion     =       0.00000000 hartree =       0.00000000 kcal/mol
 G_repulsion      =       0.00000000 hartree =       0.00000000 kcal/mol
 --------------------------------------------------
 Non-electrostatic Free Energy =       0.00000000 hartree =       0.00000000 kcal/mol
 Total                         =      -0.33531938 hartree =    -210.41608502 kcal/mol
 --------------------------------------------------
 SCF Energy (H0 + V/2)                       =    -417.75285239 
 Solute Internal Energy (H0)                 =    -417.41753302 
 Total Free Energy (H0 + V/2 + non-elec)     =    -417.75285239 hartree
                                             = -262143.87141482 kcal/mol
***********************************************************

 <S^2> = 0.7754
 SCF time:  CPU 1920.49 s  wall 260.25 s
 SCF   energy in the final basis set = -417.75285239
 Total energy in the final basis set = -417.75285239
 
 --------------------------------------------------------------
 
                    Orbital Energies (a.u.)
 --------------------------------------------------------------
 
 Alpha MOs
 -- Occupied --
-19.188 -19.163 -19.138 -19.138 -10.339 -10.251 -10.248  -1.150
 -1.141  -1.047  -0.879  -0.792  -0.728  -0.602  -0.549  -0.543
 -0.518  -0.489  -0.474  -0.458  -0.452  -0.445  -0.415  -0.346
 -0.336  -0.329  -0.254  -0.244
 -- Virtual --
  0.062   0.069   0.079   0.094   0.095   0.108   0.124   0.129
  0.132   0.137   0.156   0.162   0.168   0.173   0.178   0.190
  0.200   0.213   0.220   0.235   0.242   0.263   0.266   0.278
  0.282   0.290   0.296   0.310   0.317   0.330   0.335   0.346
  0.360   0.369   0.370   0.384   0.385   0.400   0.409   0.412
  0.423   0.430   0.436   0.451   0.455   0.461   0.466   0.472
  0.491   0.495   0.499   0.515   0.518   0.528   0.541   0.551
  0.561   0.572   0.575   0.583   0.591   0.597   0.601   0.609
  0.624   0.629   0.634   0.657   0.661   0.674   0.679   0.701
  0.708   0.708   0.717   0.730   0.737   0.749   0.769   0.770
  0.786   0.799   0.801   0.807   0.818   0.826   0.832   0.844
  0.852   0.873   0.890   0.914   0.924   0.944   0.972   0.982
  1.007   1.019   1.043   1.056   1.082   1.090   1.111   1.127
  1.144   1.162   1.199   1.234   1.253   1.270   1.290   1.315
  1.331   1.355   1.365   1.379   1.416   1.431   1.468   1.488
  1.528   1.538   1.631   1.669   1.757   1.779   1.830   1.840
  1.882   1.887   1.915   1.926   1.931   1.941   1.954   1.986
  1.988   2.023   2.034   2.044   2.081   2.104   2.116   2.140
  2.165   2.198   2.211   2.241   2.281   2.301   2.317   2.339
  2.372   2.398   2.446   2.460   2.484   2.492   2.506   2.552
  2.604   2.628   2.661   2.695   2.779   2.790   2.836   2.860
  2.873   2.925   2.933   2.944   2.999   3.030   3.062   3.092
  3.127   3.169   3.227   3.233   3.246   3.265   3.282   3.302
  3.322   3.334   3.346   3.362   3.379   3.399   3.442   3.454
  3.496   3.534   3.538   3.556   3.578   3.604   3.618   3.657
  3.681   3.699   3.709   3.769   3.789   3.812   3.826   3.913
  4.082   4.087   4.121   4.257   4.278   4.357   4.426   4.461
  4.580   4.612   4.748   4.847   4.851   4.909   4.938   4.970
  4.973   5.000   5.035   5.094   5.206   5.284   5.298   5.321
  5.354   5.359   5.371   5.404   5.422   5.504   5.711   5.720
  5.743   5.758   5.779   6.000   6.250   6.301   6.327   6.347
  6.378   6.563   6.576   6.620   6.627   6.679   6.688   6.695
  6.736   6.759   6.766   6.789   6.816   6.936   6.969   7.050
  7.221   7.248   7.278   7.361   7.381   7.411   7.505   8.618
 22.573  22.793  23.722  43.721  44.276  44.391  44.438
 
 Beta MOs
 -- Occupied --
-19.199 -19.172 -19.138 -19.137 -10.339 -10.248 -10.241  -1.175
 -1.141  -1.047  -0.867  -0.827  -0.706  -0.599  -0.546  -0.536
 -0.517  -0.492  -0.486  -0.480  -0.459  -0.450  -0.444  -0.346
 -0.335  -0.328  -0.293  -0.259
 -- Virtual --
  0.066   0.072   0.079   0.093   0.097   0.107   0.125   0.129
  0.132   0.137   0.158   0.162   0.165   0.173   0.179   0.190
  0.203   0.213   0.219   0.237   0.243   0.264   0.269   0.279
  0.280   0.290   0.296   0.311   0.317   0.333   0.336   0.347
  0.362   0.370   0.372   0.382   0.386   0.399   0.409   0.413
  0.424   0.431   0.436   0.452   0.457   0.465   0.469   0.473
  0.491   0.495   0.499   0.516   0.519   0.528   0.540   0.550
  0.561   0.572   0.574   0.583   0.592   0.598   0.601   0.607
  0.625   0.628   0.634   0.657   0.660   0.674   0.679   0.701
  0.708   0.711   0.718   0.730   0.738   0.750   0.769   0.772
  0.788   0.800   0.804   0.809   0.820   0.827   0.834   0.847
  0.854   0.875   0.890   0.915   0.923   0.943   0.971   0.982
  1.006   1.017   1.046   1.056   1.083   1.091   1.120   1.128
  1.145   1.161   1.200   1.235   1.255   1.266   1.293   1.318
  1.335   1.358   1.369   1.380   1.420   1.432   1.469   1.488
  1.529   1.541   1.632   1.671   1.750   1.776   1.815   1.825
  1.882   1.887   1.927   1.929   1.935   1.944   1.957   1.983
  1.992   2.015   2.035   2.044   2.084   2.102   2.121   2.140
  2.166   2.201   2.211   2.239   2.281   2.303   2.321   2.335
  2.368   2.400   2.448   2.462   2.483   2.493   2.512   2.555
  2.606   2.636   2.655   2.696   2.785   2.794   2.840   2.861
  2.875   2.926   2.929   2.948   2.985   3.038   3.063   3.096
  3.130   3.179   3.223   3.234   3.251   3.258   3.284   3.300
  3.324   3.338   3.356   3.362   3.386   3.398   3.443   3.454
  3.501   3.542   3.545   3.564   3.580   3.609   3.621   3.661
  3.683   3.703   3.709   3.775   3.799   3.818   3.834   3.920
  4.085   4.095   4.125   4.267   4.286   4.360   4.436   4.448
  4.587   4.618   4.752   4.848   4.853   4.901   4.933   4.956
  4.967   4.992   5.030   5.099   5.193   5.258   5.274   5.322
  5.354   5.359   5.370   5.376   5.393   5.504   5.711   5.720
  5.723   5.738   5.779   6.000   6.250   6.301   6.326   6.340
  6.344   6.522   6.535   6.619   6.625   6.641   6.650   6.694
  6.726   6.751   6.754   6.769   6.787   6.936   6.969   7.050
  7.221   7.242   7.248   7.361   7.381   7.411   7.489   8.606
 22.586  22.792  23.722  43.709  44.276  44.385  44.432
 --------------------------------------------------------------
 
          Ground-State Mulliken Net Atomic Charges

     Atom                 Charge (a.u.)    Spin (a.u.)
  --------------------------------------------------------
      1 C                     0.231874      -0.112542
      2 C                     0.169128       0.011703
      3 O                    -0.701792       0.000124
      4 O                    -0.719781       0.004149
      5 C                    -0.751821       0.868186
      6 H                     0.133557       0.020771
      7 H                     0.180198       0.070815
      8 H                     0.219469      -0.000218
      9 H                     0.245189       0.003214
     10 O                    -0.332152      -0.480797
     11 O                    -0.673868      -0.385405
  --------------------------------------------------------
  Sum of atomic charges =    -2.000000
  Sum of spin   charges =     0.000000

 -----------------------------------------------------------------
                    Cartesian Multipole Moments
 -----------------------------------------------------------------
    Charge (ESU x 10^10)
                -9.6064
    Dipole Moment (Debye)
         X     -11.4807      Y       5.0757      Z      -0.5140
       Tot      12.5632
    Quadrupole Moments (Debye-Ang)
        XX     -61.1808     XY       0.4164     YY     -76.1190
        XZ      -1.0443     YZ     -22.0214     ZZ     -80.7082
    Octopole Moments (Debye-Ang^2)
       XXX     -84.7922    XXY       2.4350    XYY     -62.0103
       YYY      46.6375    XXZ      -9.3802    XYZ     -28.8477
       YYZ      24.3927    XZZ     -56.5284    YZZ      36.1498
       ZZZ     -17.9891
    Hexadecapole Moments (Debye-Ang^3)
      XXXX    -347.9020   XXXY      -9.2206   XXYY    -196.5307
      XYYY      25.3192   YYYY    -708.6209   XXXZ     -21.7997
      XXYZ     -98.5787   XYYZ      14.0418   YYYZ    -305.2669
      XXZZ    -188.1613   XYZZ      22.0288   YYZZ    -282.0654
      XZZZ     -14.4045   YZZZ    -266.8353   ZZZZ    -756.7036
 -----------------------------------------------------------------
 Calculating analytic gradient of the SCF energy
 Gradient of SCF Energy
            1           2           3           4           5           6
    1  -0.0396122   0.0399808  -0.0010255  -0.0463535  -0.0339919  -0.0271220
    2   0.0911762  -0.0122755   0.0423753  -0.0483756  -0.0817338  -0.0382558
    3  -0.0341884   0.0462538  -0.0569269  -0.0059488   0.0050250   0.0575734
            7           8           9          10          11
    1   0.0466092   0.0583506  -0.0132807   0.0171151  -0.0006699
    2  -0.0291431   0.0081137   0.0684232   0.0398931  -0.0401978
    3  -0.0291437   0.0740287  -0.0569805   0.0095515  -0.0092443
 Max gradient component =       9.118E-02
 RMS gradient           =       4.351E-02
 Computing fast CPCM-ISWIG gradient
 Updating gradient with PCM contributions...
 -- total gradient after adding PCM contribution --
---------------------------------------------------
  Atom         X              Y              Z     
---------------------------------------------------
   1      -0.000903      -0.000063       0.000072
   2       0.000224      -0.000018       0.000076
   3       0.000003      -0.000027       0.000015
   4       0.000025       0.000049       0.000071
   5       0.000125       0.000089       0.000054
   6       0.000109       0.000100      -0.000096
   7       0.000336      -0.000230      -0.000089
   8       0.000006       0.000028       0.000010
   9       0.000030      -0.000025      -0.000023
  10       0.000013       0.000038      -0.000036
  11       0.000031       0.000057      -0.000055
---------------------------------------------------
 Number of fixed atoms: 0
 Gradient time:  CPU 229.55 s  wall 31.23 s
 ----------------------------------------------------------------
             Standard Nuclear Orientation (Angstroms)
    I     Atom           X                Y                Z
 ----------------------------------------------------------------
    1      C      -0.4007256044     0.8064896901     0.1306443147
    2      C       0.6804837895     0.8300147908     1.2258859976
    3      O       0.6299844739    -0.0504814555     2.1220845879
    4      O       1.5242735978     1.7652564690     1.1683403321
    5      C      -0.8547292971    -0.5489632868    -0.2823993520
    6      H      -0.0391321555     1.3691361696    -0.7367547695
    7      H      -1.2423132277     1.3963491180     0.5348128136
    8      H      -1.5335668294    -0.6467537143    -1.1230108122
    9      H      -0.8036668943    -1.3674958415     0.4251830544
   10      O       1.0108542214    -1.1532187753    -1.4930506926
   11      O       1.0285379257    -2.3993331642    -1.9717354741
 ----------------------------------------------------------------
 Nuclear Repulsion Energy =   273.5149623967 hartrees
 There are       28 alpha and       28 beta electrons
 Discretize the solute cavity surface with Lebedev spheres
	Using 110 Lebedev grid points for each H atom
	Using 110 Lebedev grid points for other atoms
	Atomic van der Waals radii will be scaled by 1.20
 Remove points where switching function is < 1.0e-08
 Keep 734 surface tesserae and discard 476 interior tesserae
 Molecular Surface Area = 150.353 Angst**2

                       Distance Matrix (Angstroms)
             C (  1)   C (  2)   O (  3)   O (  4)   C (  5)   H (  6)
   C (  2)  1.539195
   O (  3)  2.400541  1.257377
   O (  4)  2.387817  1.260940  2.237473
   C (  5)  1.487944  2.556049  2.869565  3.622142
   H (  6)  1.095309  2.158809  3.261287  2.496104  2.133247
   H (  7)  1.104335  2.120251  2.849254  2.862071  2.145297  1.750791
   H (  8)  2.228654  3.549673  3.945521  4.518680  1.084901  2.538965
   H (  9)  2.230544  2.769997  2.582510  3.973126  1.083179  3.069816
   O ( 10)  2.910223  3.381564  3.798723  3.982976  2.304605  2.834913
   O ( 11)  4.091466  4.557918  4.736593  5.239240  3.134393  4.106879
             H (  7)   H (  8)   H (  9)   O ( 10)
   H (  8)  2.647164
   H (  9)  2.800584  1.857183
   O ( 10)  3.960971  2.620594  2.649155
   O ( 11)  5.083970  3.218113  3.188555  1.335010
 
 Requested basis set is def2-TZVPD
 There are 115 shells and 307 basis functions
 A cutoff of  1.0D-14 yielded   6246 shell pairs
 There are     44802 function pairs (     57674 Cartesian)
 Smallest overlap matrix eigenvalue = 8.33E-06
 Guess MOs from SCF MO coefficient file
 Reading MOs from coefficient file
 Reading MOs from coefficient file
 Long-range K will be added via erf
 Coulomb attenuation parameter = 0.3 bohr**(-1)
 An unrestricted hybrid HF-DFT SCF calculation will be
 performed using Pulay DIIS + Geometric Direct Minimization
 Polarizable Continuum solvation model will be applied
 Exchange:     0.1670 Hartree-Fock + 1.0000 wB97X-V + LR-HF
 Correlation:  1.0000 wB97X-V
 Using SG-2 standard quadrature grid
 Nonlocal Correlation:  VV10 with C = 0.0100 and b = 6.00
 Grid used for NLC:  SG-1 standard quadrature
 SCF converges when RMS gradient is below 1.0E-08
Using Q-Chem read-in guess as SCF_GUESS READ specified.

 using 8 threads for integral computing
 -------------------------------------------------------
 OpenMP Integral computing Module                
 Release: version 1.0, May 2013, Q-Chem Inc. Pittsburgh 
 -------------------------------------------------------
 using 8 threads for integral computing
 -------------------------------------------------------
 OpenMP Integral computing Module                
 Release: version 1.0, May 2013, Q-Chem Inc. Pittsburgh 
 -------------------------------------------------------
 -------------------------------------------------------
 OpenMP BLAS3 based DFT computing Module                
 Release: version 1.0, May 2013, Q-Chem Inc. Pittsburgh 
 -------------------------------------------------------
 -------------------------------------------------------
 OpenMP BLAS3 based DFT computing Module                
 Release: version 1.0, May 2013, Q-Chem Inc. Pittsburgh 
 -------------------------------------------------------
 -------------------------------------------------------
 OpenMP BLAS3 based DFT computing Module                
 Release: version 1.0, May 2013, Q-Chem Inc. Pittsburgh 
 -------------------------------------------------------
 ---------------------------------------
  Cycle       Energy        RMS Gradient
 ---------------------------------------
    1    -417.4173588169      5.45E-04 Done DIIS. Switching to GDM
    2    -417.7433194785      2.00E-02 Normal BFGS step
    3    -417.7506240593      8.67E-03 Normal BFGS step
    4    -417.7525364051      5.85E-03 Normal BFGS step
    5    -417.7527244784      4.00E-03 Normal BFGS step
    6    -417.7528292025      1.00E-03 Normal BFGS step
    7    -417.7528437762      1.14E-03 Normal BFGS step
    8    -417.7528502869      5.48E-04 Normal BFGS step
    9    -417.7528514900      2.37E-04 Normal BFGS step
   10    -417.7528520971      1.11E-04 Normal BFGS step
   11    -417.7528522708      7.01E-05 Normal BFGS step
   12    -417.7528523187      4.32E-05 Normal BFGS step
   13    -417.7528523349      1.46E-05 Normal BFGS step
   14    -417.7528523380      7.53E-06 Normal BFGS step
   15    -417.7528523385      6.95E-06 Normal BFGS step
   16    -417.7528523388      6.56E-06 Normal BFGS step
   17    -417.7528523390      5.98E-06 Normal BFGS step
   18    -417.7528523393      4.61E-06 Normal BFGS step
   19    -417.7528523397      4.37E-06 Normal BFGS step
   20    -417.7528523400      2.83E-06 Normal BFGS step
   21    -417.7528523401      9.24E-07 Normal BFGS step
   22    -417.7528523401      4.27E-07 Normal BFGS step
   23    -417.7528523401      1.63E-07 Normal BFGS step
   GDM::WARNING energy changes are now smaller than effective accuracy.
   GDM::        calculation will continue, but THRESH should be increased
   GDM::        or SCF_CONVERGENCE decreased.
   GDM::        effective_thresh =   1.861555486148969E-009
   24    -417.7528523401      6.39E-08 Normal BFGS step
   GDM::WARNING energy changes are now smaller than effective accuracy.
   GDM::        calculation will continue, but THRESH should be increased
   GDM::        or SCF_CONVERGENCE decreased.
   GDM::        effective_thresh =   1.861555486148969E-009
   25    -417.7528523401      2.71E-08 Normal BFGS step
   26    -417.7528523401      3.44E-08 Normal BFGS step
   GDM::WARNING energy changes are now smaller than effective accuracy.
   GDM::        calculation will continue, but THRESH should be increased
   GDM::        or SCF_CONVERGENCE decreased.
   GDM::        effective_thresh =   1.861555486148969E-009
   27    -417.7528523401      1.00E-08 Convergence criterion met
 ---------------------------------------

************** Final PCM Free Energy Summary **************
 G_electrostatic  =      -0.33532515 hartree =    -210.41970585 kcal/mol
 G_cavitation     =       0.00000000 hartree =       0.00000000 kcal/mol
 G_dispersion     =       0.00000000 hartree =       0.00000000 kcal/mol
 G_repulsion      =       0.00000000 hartree =       0.00000000 kcal/mol
 --------------------------------------------------
 Non-electrostatic Free Energy =       0.00000000 hartree =       0.00000000 kcal/mol
 Total                         =      -0.33532515 hartree =    -210.41970585 kcal/mol
 --------------------------------------------------
 SCF Energy (H0 + V/2)                       =    -417.75285234 
 Solute Internal Energy (H0)                 =    -417.41752719 
 Total Free Energy (H0 + V/2 + non-elec)     =    -417.75285234 hartree
                                             = -262143.87138066 kcal/mol
***********************************************************

 <S^2> = 0.7754
 SCF time:  CPU 1856.59 s  wall 997.44 s
 SCF   energy in the final basis set = -417.75285234
 Total energy in the final basis set = -417.75285234
 
 --------------------------------------------------------------
 
                    Orbital Energies (a.u.)
 --------------------------------------------------------------
 
 Alpha MOs
 -- Occupied --
-19.188 -19.163 -19.138 -19.137 -10.339 -10.251 -10.248  -1.150
 -1.141  -1.047  -0.878  -0.792  -0.728  -0.602  -0.548  -0.543
 -0.518  -0.489  -0.474  -0.458  -0.452  -0.445  -0.415  -0.346
 -0.336  -0.329  -0.254  -0.244
 -- Virtual --
  0.062   0.069   0.079   0.094   0.095   0.108   0.124   0.129
  0.132   0.137   0.156   0.162   0.168   0.173   0.178   0.190
  0.200   0.213   0.220   0.236   0.242   0.263   0.266   0.278
  0.282   0.290   0.296   0.310   0.317   0.330   0.335   0.346
  0.360   0.369   0.370   0.384   0.385   0.400   0.409   0.412
  0.423   0.430   0.436   0.450   0.455   0.461   0.466   0.472
  0.491   0.495   0.499   0.515   0.518   0.528   0.541   0.551
  0.561   0.572   0.575   0.583   0.591   0.597   0.601   0.610
  0.624   0.629   0.634   0.657   0.661   0.674   0.679   0.701
  0.707   0.708   0.717   0.730   0.737   0.749   0.769   0.770
  0.786   0.799   0.801   0.807   0.818   0.826   0.832   0.844
  0.852   0.873   0.890   0.914   0.924   0.944   0.972   0.982
  1.007   1.019   1.043   1.056   1.081   1.090   1.111   1.127
  1.143   1.162   1.199   1.234   1.252   1.270   1.290   1.315
  1.331   1.355   1.365   1.379   1.416   1.431   1.468   1.488
  1.528   1.538   1.631   1.669   1.757   1.779   1.830   1.840
  1.882   1.887   1.915   1.926   1.931   1.941   1.954   1.986
  1.988   2.023   2.034   2.044   2.081   2.104   2.116   2.140
  2.165   2.198   2.212   2.241   2.281   2.301   2.317   2.339
  2.372   2.398   2.446   2.460   2.484   2.492   2.506   2.552
  2.604   2.629   2.661   2.695   2.779   2.790   2.836   2.860
  2.873   2.925   2.933   2.944   2.999   3.030   3.062   3.092
  3.127   3.170   3.227   3.233   3.246   3.265   3.282   3.302
  3.321   3.334   3.346   3.362   3.379   3.399   3.442   3.454
  3.496   3.534   3.538   3.556   3.578   3.604   3.618   3.657
  3.681   3.699   3.709   3.769   3.789   3.812   3.826   3.913
  4.083   4.086   4.121   4.257   4.277   4.358   4.427   4.461
  4.580   4.612   4.748   4.847   4.851   4.909   4.938   4.970
  4.973   5.000   5.036   5.094   5.206   5.284   5.298   5.321
  5.354   5.359   5.371   5.404   5.422   5.504   5.711   5.720
  5.743   5.758   5.779   6.000   6.250   6.301   6.327   6.347
  6.378   6.563   6.576   6.620   6.627   6.679   6.688   6.695
  6.736   6.759   6.766   6.789   6.816   6.936   6.969   7.050
  7.221   7.248   7.278   7.361   7.381   7.411   7.505   8.618
 22.573  22.792  23.723  43.721  44.277  44.391  44.438
 
 Beta MOs
 -- Occupied --
-19.199 -19.172 -19.138 -19.137 -10.339 -10.248 -10.241  -1.175
 -1.141  -1.047  -0.867  -0.827  -0.706  -0.599  -0.546  -0.536
 -0.517  -0.492  -0.486  -0.480  -0.459  -0.450  -0.444  -0.346
 -0.335  -0.328  -0.293  -0.259
 -- Virtual --
  0.066   0.072   0.079   0.093   0.097   0.107   0.125   0.129
  0.132   0.137   0.158   0.162   0.165   0.173   0.179   0.190
  0.203   0.213   0.219   0.237   0.243   0.264   0.269   0.278
  0.280   0.290   0.296   0.311   0.317   0.333   0.336   0.347
  0.362   0.370   0.372   0.382   0.386   0.399   0.409   0.413
  0.424   0.431   0.436   0.452   0.457   0.465   0.469   0.473
  0.491   0.495   0.499   0.516   0.519   0.528   0.540   0.550
  0.561   0.572   0.573   0.583   0.592   0.598   0.601   0.607
  0.625   0.628   0.634   0.657   0.660   0.674   0.679   0.701
  0.708   0.711   0.718   0.730   0.738   0.750   0.769   0.772
  0.788   0.800   0.804   0.809   0.820   0.827   0.835   0.847
  0.854   0.875   0.890   0.915   0.923   0.943   0.971   0.982
  1.006   1.017   1.047   1.056   1.083   1.091   1.120   1.128
  1.145   1.161   1.200   1.235   1.255   1.267   1.293   1.318
  1.335   1.358   1.369   1.380   1.420   1.432   1.469   1.488
  1.529   1.540   1.632   1.671   1.750   1.776   1.815   1.825
  1.882   1.887   1.927   1.929   1.935   1.944   1.957   1.983
  1.992   2.015   2.035   2.044   2.084   2.102   2.121   2.140
  2.166   2.201   2.211   2.239   2.281   2.303   2.321   2.335
  2.369   2.400   2.448   2.462   2.483   2.493   2.512   2.555
  2.607   2.636   2.655   2.696   2.785   2.793   2.839   2.861
  2.875   2.926   2.929   2.948   2.985   3.038   3.063   3.096
  3.129   3.179   3.223   3.234   3.251   3.258   3.284   3.300
  3.324   3.338   3.356   3.363   3.386   3.398   3.443   3.454
  3.501   3.542   3.545   3.564   3.580   3.609   3.621   3.661
  3.683   3.703   3.709   3.775   3.799   3.817   3.834   3.920
  4.085   4.094   4.125   4.266   4.285   4.360   4.436   4.448
  4.586   4.618   4.753   4.848   4.853   4.900   4.933   4.956
  4.967   4.992   5.030   5.099   5.193   5.258   5.274   5.322
  5.354   5.359   5.370   5.376   5.393   5.504   5.711   5.720
  5.723   5.738   5.779   6.000   6.250   6.301   6.326   6.340
  6.344   6.522   6.535   6.619   6.625   6.641   6.650   6.694
  6.726   6.751   6.754   6.769   6.787   6.936   6.969   7.050
  7.221   7.242   7.248   7.361   7.381   7.411   7.489   8.606
 22.585  22.792  23.723  43.709  44.277  44.385  44.432
 --------------------------------------------------------------
 
          Ground-State Mulliken Net Atomic Charges

     Atom                 Charge (a.u.)    Spin (a.u.)
  --------------------------------------------------------
      1 C                     0.231905      -0.112311
      2 C                     0.168643       0.011632
      3 O                    -0.701842       0.000123
      4 O                    -0.719785       0.004124
      5 C                    -0.751606       0.868447
      6 H                     0.134025       0.020617
      7 H                     0.179847       0.070600
      8 H                     0.219597      -0.000226
      9 H                     0.245268       0.003211
     10 O                    -0.332119      -0.480826
     11 O                    -0.673933      -0.385391
  --------------------------------------------------------
  Sum of atomic charges =    -2.000000
  Sum of spin   charges =    -0.000000

 -----------------------------------------------------------------
                    Cartesian Multipole Moments
 -----------------------------------------------------------------
    Charge (ESU x 10^10)
                -9.6064
    Dipole Moment (Debye)
         X     -11.4813      Y       5.0763      Z      -0.5156
       Tot      12.5640
    Quadrupole Moments (Debye-Ang)
        XX     -61.1837     XY       0.4142     YY     -76.1203
        XZ      -1.0453     YZ     -22.0258     ZZ     -80.7081
    Octopole Moments (Debye-Ang^2)
       XXX     -84.8113    XXY       2.4272    XYY     -62.0206
       YYY      46.6224    XXZ      -9.3843    XYZ     -28.8521
       YYZ      24.3870    XZZ     -56.5364    YZZ      36.1461
       ZZZ     -17.9906
    Hexadecapole Moments (Debye-Ang^3)
      XXXX    -347.9028   XXXY      -9.2417   XXYY    -196.5451
      XYYY      25.3075   YYYY    -708.6855   XXXZ     -21.8117
      XXYZ     -98.5901   XYYZ      14.0370   YYYZ    -305.2920
      XXZZ    -188.1652   XYZZ      22.0201   YYZZ    -282.0793
      XZZZ     -14.4070   YZZZ    -266.8565   ZZZZ    -756.7011
 -----------------------------------------------------------------
 Calculating analytic gradient of the SCF energy
 Gradient of SCF Energy
            1           2           3           4           5           6
    1  -0.0388408   0.0397813  -0.0010008  -0.0464000  -0.0343772  -0.0272575
    2   0.0921023  -0.0125459   0.0423969  -0.0483660  -0.0821739  -0.0385341
    3  -0.0344289   0.0461695  -0.0569155  -0.0059918   0.0048421   0.0580306
            7           8           9          10          11
    1   0.0465559   0.0583746  -0.0132829   0.0171097  -0.0006622
    2  -0.0291115   0.0081193   0.0684225   0.0398863  -0.0401958
    3  -0.0290524   0.0740285  -0.0569887   0.0095531  -0.0092465
 Max gradient component =       9.210E-02
 RMS gradient           =       4.361E-02
 Computing fast CPCM-ISWIG gradient
 Updating gradient with PCM contributions...
 -- total gradient after adding PCM contribution --
---------------------------------------------------
  Atom         X              Y              Z     
---------------------------------------------------
   1       0.000041       0.000983      -0.000048
   2       0.000011      -0.000163       0.000009
   3       0.000043      -0.000030       0.000051
   4      -0.000099       0.000004      -0.000008
   5      -0.000104      -0.000417      -0.000064
   6      -0.000124      -0.000193       0.000220
   7       0.000161      -0.000229      -0.000044
   8       0.000006      -0.000003       0.000008
   9       0.000025      -0.000052      -0.000036
  10       0.000010       0.000038      -0.000035
  11       0.000031       0.000062      -0.000052
---------------------------------------------------
 Number of fixed atoms: 0
 Gradient time:  CPU 229.47 s  wall 31.42 s
 ----------------------------------------------------------------
             Standard Nuclear Orientation (Angstroms)
    I     Atom           X                Y                Z
 ----------------------------------------------------------------
    1      C      -0.4007256044     0.8044896901     0.1306443147
    2      C       0.6804837895     0.8300147908     1.2258859976
    3      O       0.6299844739    -0.0504814555     2.1220845879
    4      O       1.5242735978     1.7652564690     1.1683403321
    5      C      -0.8547292971    -0.5489632868    -0.2823993520
    6      H      -0.0391321555     1.3691361696    -0.7367547695
    7      H      -1.2423132277     1.3963491180     0.5348128136
    8      H      -1.5335668294    -0.6467537143    -1.1230108122
    9      H      -0.8036668943    -1.3674958415     0.4251830544
   10      O       1.0108542214    -1.1532187753    -1.4930506926
   11      O       1.0285379257    -2.3993331642    -1.9717354741
 ----------------------------------------------------------------
 Nuclear Repulsion Energy =   273.5329608943 hartrees
 There are       28 alpha and       28 beta electrons
 Discretize the solute cavity surface with Lebedev spheres
	Using 110 Lebedev grid points for each H atom
	Using 110 Lebedev grid points for other atoms
	Atomic van der Waals radii will be scaled by 1.20
 Remove points where switching function is < 1.0e-08
 Keep 734 surface tesserae and discard 476 interior tesserae
 Molecular Surface Area = 150.350 Angst**2

                       Distance Matrix (Angstroms)
             C (  1)   C (  2)   O (  3)   O (  4)   C (  5)   H (  6)
   C (  2)  1.539227
   O (  3)  2.399828  1.257377
   O (  4)  2.388620  1.260940  2.237473
   C (  5)  1.486122  2.556049  2.869565  3.622142
   H (  6)  1.096338  2.158809  3.261287  2.496104  2.133247
   H (  7)  1.105405  2.120251  2.849254  2.862071  2.145297  1.750791
   H (  8)  2.227350  3.549673  3.945521  4.518680  1.084901  2.538965
   H (  9)  2.228595  2.769997  2.582510  3.973126  1.083179  3.069816
   O ( 10)  2.908877  3.381564  3.798723  3.982976  2.304605  2.834913
   O ( 11)  4.089899  4.557918  4.736593  5.239240  3.134393  4.106879
             H (  7)   H (  8)   H (  9)   O ( 10)
   H (  8)  2.647164
   H (  9)  2.800584  1.857183
   O ( 10)  3.960971  2.620594  2.649155
   O ( 11)  5.083970  3.218113  3.188555  1.335010
 
 Requested basis set is def2-TZVPD
 There are 115 shells and 307 basis functions
 A cutoff of  1.0D-14 yielded   6246 shell pairs
 There are     44802 function pairs (     57674 Cartesian)
 Smallest overlap matrix eigenvalue = 8.31E-06
 Guess MOs from SCF MO coefficient file
 Reading MOs from coefficient file
 Reading MOs from coefficient file
 Long-range K will be added via erf
 Coulomb attenuation parameter = 0.3 bohr**(-1)
 An unrestricted hybrid HF-DFT SCF calculation will be
 performed using Pulay DIIS + Geometric Direct Minimization
 Polarizable Continuum solvation model will be applied
 Exchange:     0.1670 Hartree-Fock + 1.0000 wB97X-V + LR-HF
 Correlation:  1.0000 wB97X-V
 Using SG-2 standard quadrature grid
 Nonlocal Correlation:  VV10 with C = 0.0100 and b = 6.00
 Grid used for NLC:  SG-1 standard quadrature
 SCF converges when RMS gradient is below 1.0E-08
Using Q-Chem read-in guess as SCF_GUESS READ specified.

 using 8 threads for integral computing
 -------------------------------------------------------
 OpenMP Integral computing Module                
 Release: version 1.0, May 2013, Q-Chem Inc. Pittsburgh 
 -------------------------------------------------------
 using 8 threads for integral computing
 -------------------------------------------------------
 OpenMP Integral computing Module                
 Release: version 1.0, May 2013, Q-Chem Inc. Pittsburgh 
[...]
    11    6.183708736871001e-03  -1.256529214767725e-01  -5.139258064357387e-02


    11 Order 1, Length 33
    Atom      X          Y          Z
     1   -2.340857410526041e-03   1.922754666357814e-03   1.460601166164494e-03
     2   -4.413024360276195e-04  -3.860122985285922e-05  -2.185434068885493e-04
     3    6.313119911390279e-05  -6.974733058932986e-05   9.930810484330097e-05
     4    1.502897245437884e-04   7.261669315141382e-06  -4.387072996099588e-05
     5    6.079938040243163e-03   4.805135196831178e-03  -1.071999986378952e-03
     6   -3.021644978760001e-04  -2.352951102869813e-04   3.922261043333337e-04
     7    1.106014783702979e-04   6.018832048965174e-04   5.709335197120018e-04
     8    8.184621533648046e-04  -2.551942240587548e-04  -7.366799796401774e-04
     9    8.571898589661562e-04  -3.522218960018257e-04  -5.358141316491405e-04
    10   -1.330125695105828e-02  -1.231645373019395e-03   6.183708736871001e-03
    11    8.305982257542184e-03  -5.154301472738257e-03  -6.099877507916554e-03

Order 1, Length 33
    Atom      X          Y          Z
     1    1.414283979084841e-03   9.074634004187481e-04  -7.448349525553967e-04
     2    4.098814021573455e-03   1.752046076456031e-04   4.418376555307476e-03
     3   -1.391991127340547e-03   1.279604786759985e-04  -2.493434890667244e-03
     4   -2.855364547032692e-03  -1.566490103558822e-03  -1.619360888316540e-03
     5    2.319324935468297e-02  -3.188961115562284e-03  -1.388676515008924e-02
     6   -1.533640166238481e-03  -6.305208514226005e-04   5.555584094957952e-05
     7   -9.162473691744021e-04  -2.641060506237261e-03  -1.006955413792977e-03
     8   -2.723013724303529e-04   4.286956330835195e-04   1.276131606795662e-03
     9   -5.828346570431560e-04   8.367724699842247e-04   3.395864240589402e-04
    10   -1.599975059961430e-02  -3.588238888982760e-01  -1.256529214767725e-01
    11   -5.154301472738257e-03   3.643750543153665e-01   1.393145037154030e-01

Order 1, Length 33
    Atom      X          Y          Z
     1    1.729825525676001e-03  -4.060541354823343e-04  -1.242371388481434e-03
     2    1.931344697411509e-03   1.696975732221797e-04   2.162040095887111e-03
     3   -5.552096157884060e-04   1.008199568719428e-04  -1.055254267264348e-03
     4   -1.174614577189470e-03  -6.842788931172225e-04  -6.809103265404050e-04
     5    5.667238244108141e-03  -4.111388325878552e-03  -4.180401357402524e-03
     6   -5.241253723557236e-04  -2.337608940231490e-04   1.802213854700448e-05
     7   -3.073789507621492e-04  -1.488212409113294e-03  -4.502379894442857e-04
     8   -2.401265450044038e-04   2.994731146372614e-04   5.111688597464466e-04
     9   -1.146258387196142e-03   6.781385338811069e-04   5.485936665101561e-04
    10    7.191559137746019e-04  -1.336388844341213e-01  -5.139258064357387e-02
    11   -6.099877507916554e-03   1.393145037154030e-01   5.576189998155732e-02




 # Finishing finite difference calculation for IDERIV #
 ######################################################
 ######################################################
 Requested basis set is def2-TZVPD
 There are 115 shells and 307 basis functions
 **********************************************************************
 **                                                                  **
 **                       VIBRATIONAL ANALYSIS                       **
 **                       --------------------                       **
 **                                                                  **
 **        VIBRATIONAL FREQUENCIES (CM**-1) AND NORMAL MODES         **
 **     FORCE CONSTANTS (mDYN/ANGSTROM) AND REDUCED MASSES (AMU)     **
 **                  INFRARED INTENSITIES (KM/MOL)                   **
 **                                                                  **
 **********************************************************************
 

 Mode:                 1                      2                      3
 Frequency:      -283.98                  25.42                  43.26
 Force Cnst:      0.4215                 0.0035                 0.0133
 Red. Mass:       8.8708                 9.1939                12.0571
 IR Active:          YES                    YES                    YES
 IR Intens:       54.287                  5.938                  2.694
 Raman Active:       YES                    YES                    YES
               X      Y      Z        X      Y      Z        X      Y      Z
 C          0.059 -0.092 -0.061    0.192 -0.030 -0.066    0.084  0.074 -0.058
 C          0.012 -0.011 -0.015   -0.010  0.130  0.131    0.045 -0.023 -0.015
 O         -0.009  0.005  0.001   -0.007  0.104  0.104    0.228 -0.283 -0.263
 O         -0.004  0.001 -0.000   -0.166  0.282  0.292   -0.166  0.187  0.266
 C          0.516 -0.186 -0.344    0.222 -0.071  0.033   -0.071  0.143 -0.098
 H         -0.067  0.146  0.043    0.362 -0.152 -0.078    0.192  0.045 -0.036
 H         -0.153 -0.444 -0.005    0.131  0.053 -0.315    0.143  0.191 -0.106
 H          0.164 -0.069 -0.086    0.171 -0.136  0.082   -0.192  0.254 -0.014
 H          0.186 -0.076 -0.178    0.278 -0.024  0.083   -0.011  0.078 -0.179
 O         -0.315  0.141  0.225    0.030 -0.214 -0.173   -0.215  0.092 -0.284
 O         -0.121  0.098  0.103   -0.219 -0.177 -0.282    0.101 -0.177  0.431
 TransDip  -0.115  0.165  0.123    0.078 -0.009  0.002    0.004  0.033 -0.041

 Mode:                 4                      5                      6
 Frequency:        76.61                 105.98                 225.20
 Force Cnst:      0.0360                 0.0189                 0.1677
 Red. Mass:      10.4231                 2.8600                 5.6118
 IR Active:          YES                    YES                    YES
 IR Intens:        0.611                  6.573                 26.273
 Raman Active:       YES                    YES                    YES
               X      Y      Z        X      Y      Z        X      Y      Z
 C         -0.078  0.076  0.000   -0.155  0.068  0.160   -0.045  0.059  0.111
 C          0.010 -0.003 -0.082   -0.031  0.023  0.041    0.025  0.034  0.059
 O          0.234 -0.210 -0.276    0.018  0.013  0.036    0.072  0.052  0.080
 O         -0.157  0.158  0.056    0.008 -0.020 -0.038    0.018  0.039  0.010
 C         -0.072  0.107 -0.102    0.110  0.061 -0.123   -0.054  0.121 -0.152
 H         -0.166  0.184  0.037   -0.403  0.375  0.259   -0.168  0.257  0.190
 H         -0.056  0.012  0.143   -0.252 -0.250  0.428   -0.077 -0.101  0.281
 H          0.169  0.146 -0.301    0.189  0.106 -0.191   -0.118  0.396 -0.138
 H         -0.338  0.114 -0.075    0.150 -0.050 -0.255   -0.480  0.092 -0.147
 O          0.244 -0.165  0.478    0.135 -0.022 -0.130   -0.269 -0.187  0.075
 O         -0.192  0.053 -0.108   -0.083 -0.097  0.058    0.289 -0.105 -0.191
 TransDip  -0.012  0.022  0.000   -0.030  0.065  0.039   -0.110  0.100  0.070

 Mode:                 7                      8                      9
 Frequency:       280.18                 418.23                 479.01
 Force Cnst:      0.1718                 0.1116                 0.4873
 Red. Mass:       3.7156                 1.0829                 3.6048
 IR Active:          YES                    YES                    YES
 IR Intens:       25.951                  0.662                 13.867
 Raman Active:       YES                    YES                    YES
               X      Y      Z        X      Y      Z        X      Y      Z
 C          0.095 -0.162 -0.020    0.008  0.004 -0.004   -0.022 -0.150  0.007
 C          0.039 -0.080  0.052   -0.002 -0.011  0.002    0.146  0.062 -0.100
 O          0.132  0.071  0.209    0.007  0.003  0.018   -0.089  0.098 -0.096
 O         -0.086  0.029 -0.061   -0.011 -0.003 -0.007    0.161  0.089  0.189
 C         -0.175 -0.008 -0.199   -0.030  0.029 -0.046   -0.145 -0.145 -0.058
 H          0.257 -0.221  0.011    0.040  0.017  0.012   -0.510  0.054 -0.064
 H          0.167  0.009 -0.113    0.014  0.026 -0.030   -0.004 -0.393  0.415
 H          0.032  0.271 -0.397   -0.549  0.114  0.356   -0.257  0.062  0.002
 H         -0.466 -0.190 -0.384    0.643 -0.164 -0.330   -0.198 -0.254 -0.180
 O          0.061  0.056 -0.020    0.012 -0.016  0.032    0.024  0.010 -0.004
 O         -0.076  0.040  0.053    0.001 -0.000 -0.008   -0.019  0.011  0.015
 TransDip   0.038 -0.106 -0.118    0.017 -0.010 -0.017   -0.023 -0.106 -0.049

 Mode:                10                     11                     12
 Frequency:       580.16                 611.88                 680.89
 Force Cnst:      0.3387                 0.4024                 0.6959
 Red. Mass:       1.7077                 1.8241                 2.5475
 IR Active:          YES                    YES                    YES
 IR Intens:       34.964                 94.171                 22.465
 Raman Active:       YES                    YES                    YES
               X      Y      Z        X      Y      Z        X      Y      Z
 C         -0.117  0.026 -0.040    0.101 -0.030  0.086    0.029 -0.070  0.169
 C         -0.056  0.075  0.042    0.083 -0.055 -0.039   -0.077  0.163  0.135
 O          0.082  0.028 -0.005   -0.106 -0.028 -0.021   -0.063 -0.074 -0.109
 O          0.081 -0.042  0.068   -0.048  0.066 -0.061    0.074  0.051 -0.088
 C         -0.070 -0.038 -0.014   -0.029  0.057  0.071    0.031 -0.055  0.001
 H          0.078 -0.169 -0.094   -0.018  0.006  0.060    0.328 -0.358  0.098
 H         -0.125  0.190 -0.314    0.236  0.030  0.289   -0.082  0.113 -0.350
 H          0.449 -0.276 -0.389    0.540 -0.017 -0.359   -0.125  0.465  0.053
 H          0.420 -0.236 -0.297    0.439 -0.248 -0.340   -0.304 -0.303 -0.260
 O         -0.041 -0.010  0.017   -0.048 -0.011  0.018    0.014  0.003 -0.004
 O          0.008  0.007 -0.002    0.010  0.008 -0.002   -0.002 -0.003  0.000
 TransDip   0.079 -0.061 -0.161    0.295 -0.081 -0.053   -0.061  0.032  0.135

 Mode:                13                     14                     15
 Frequency:       863.78                 935.17                1018.83
 Force Cnst:      1.6361                 1.3973                 0.9904
 Red. Mass:       3.7218                 2.7118                 1.6194
 IR Active:          YES                    YES                    YES
 IR Intens:       40.636                  3.628                 14.048
 Raman Active:       YES                    YES                    YES
               X      Y      Z        X      Y      Z        X      Y      Z
 C          0.024 -0.047  0.105    0.212 -0.078 -0.104   -0.048  0.013 -0.137
 C         -0.121 -0.052 -0.222   -0.190  0.141  0.101    0.047 -0.014  0.023
 O          0.080  0.192 -0.086    0.055  0.006 -0.046   -0.006 -0.067  0.069
 O         -0.094 -0.172  0.114   -0.005 -0.083 -0.017    0.012  0.033 -0.014
 C          0.109  0.058  0.108   -0.073  0.042  0.052    0.053  0.051  0.107
 H          0.052 -0.281 -0.038   -0.211  0.478  0.099   -0.449 -0.120 -0.398
 H          0.094  0.123 -0.011   -0.065 -0.678  0.249   -0.251 -0.233 -0.189
 H          0.100  0.686  0.041    0.109  0.025 -0.079    0.092  0.533  0.016
 H         -0.172 -0.293 -0.291    0.144  0.031  0.007   -0.101 -0.244 -0.241
 O         -0.002 -0.002 -0.000   -0.008 -0.007  0.002   -0.001  0.007  0.003
 O          0.002 -0.003 -0.003   -0.002  0.014  0.007    0.000 -0.007 -0.003
 TransDip  -0.123 -0.017 -0.162   -0.047  0.036 -0.014   -0.002  0.120  0.001

 Mode:                16                     17                     18
 Frequency:      1111.62                1163.67                1186.90
 Force Cnst:      1.6411                 9.1035                 1.0427
 Red. Mass:       2.2540                11.4102                 1.2563
 IR Active:          YES                    YES                    YES
 IR Intens:       12.319                287.645                  5.643
 Raman Active:       YES                    YES                    YES
               X      Y      Z        X      Y      Z        X      Y      Z
 C          0.067  0.236 -0.045   -0.035 -0.024 -0.001   -0.021 -0.072 -0.018
 C         -0.029  0.018  0.013    0.022 -0.039 -0.042   -0.049  0.061  0.052
 O          0.012 -0.017  0.020   -0.011 -0.006  0.012    0.010 -0.018  0.002
 O         -0.028 -0.023 -0.013    0.016  0.030  0.004    0.005 -0.015 -0.007
 C         -0.006 -0.212  0.020    0.062  0.014 -0.007    0.038  0.042 -0.039
 H         -0.063  0.301 -0.051    0.197  0.143  0.196   -0.381 -0.342 -0.349
 H          0.317  0.315  0.357   -0.283 -0.206 -0.248    0.494  0.397  0.404
 H         -0.083  0.030  0.028    0.003  0.133  0.026   -0.029 -0.029  0.026
 H         -0.306 -0.520 -0.301   -0.008  0.045  0.031    0.047  0.140  0.073
 O          0.002 -0.020 -0.009   -0.031 -0.547 -0.188   -0.001 -0.027 -0.009
 O         -0.001  0.022  0.009   -0.005  0.553  0.210    0.001  0.025  0.009
 TransDip   0.066 -0.000 -0.091    0.273 -0.360 -0.302    0.067  0.013 -0.034

 Mode:                19                     20                     21
 Frequency:      1325.95                1425.03                1435.18
 Force Cnst:      1.8431                 1.8248                 1.4945
 Red. Mass:       1.7793                 1.5252                 1.2315
 IR Active:          YES                    YES                    YES
 IR Intens:       58.575                116.289                 29.268
 Raman Active:       YES                    YES                    YES
               X      Y      Z        X      Y      Z        X      Y      Z
 C         -0.124 -0.102 -0.127    0.057  0.017  0.066   -0.003 -0.090 -0.008
 C         -0.079 -0.016 -0.041   -0.068  0.007 -0.098    0.061  0.004  0.052
 O          0.002 -0.032  0.032    0.004 -0.044  0.056   -0.005  0.025 -0.029
 O          0.071  0.065  0.003    0.031  0.031  0.004   -0.029 -0.028 -0.002
 C          0.032  0.003  0.056   -0.047 -0.109 -0.037    0.020  0.024  0.021
 H          0.502  0.359  0.441   -0.325  0.163 -0.011   -0.390  0.554  0.222
 H          0.286  0.179  0.342    0.015  0.213 -0.290    0.124  0.446 -0.455
 H          0.066  0.349 -0.001    0.083  0.528 -0.202   -0.011 -0.110  0.062
 H          0.025 -0.037 -0.004    0.350  0.296  0.396   -0.116 -0.096 -0.109
 O         -0.001  0.012  0.005    0.001  0.003  0.001   -0.000  0.001  0.001
 O          0.000 -0.013 -0.005   -0.001 -0.003 -0.001    0.000 -0.001 -0.000
 TransDip  -0.133 -0.191 -0.076   -0.163  0.082 -0.293    0.104  0.101  0.095

 Mode:                22                     23                     24
 Frequency:      1449.09                1585.22                2969.26
 Force Cnst:      3.2169                14.8891                 5.5720
 Red. Mass:       2.6002                10.0564                 1.0727
 IR Active:          YES                    YES                    YES
 IR Intens:      259.213               1263.544                 65.038
 Raman Active:       YES                    YES                    YES
               X      Y      Z        X      Y      Z        X      Y      Z
 C         -0.071  0.019 -0.067   -0.047 -0.063  0.005   -0.058  0.046  0.019
 C          0.195  0.024  0.189    0.287  0.619 -0.346   -0.000  0.001  0.002
 O         -0.011  0.082 -0.099   -0.023 -0.221  0.211   -0.000 -0.000 -0.000
 O         -0.103 -0.097 -0.011   -0.177 -0.208  0.026   -0.000 -0.000 -0.000
 C         -0.029 -0.096 -0.008    0.001  0.030  0.004    0.000  0.001  0.002
 H          0.234 -0.022  0.027    0.382  0.043  0.229   -0.063 -0.055  0.113
 H          0.020 -0.030  0.196    0.002 -0.049  0.068    0.759 -0.516 -0.363
 H          0.086  0.673 -0.187   -0.016 -0.138  0.036   -0.006  0.002 -0.011
 H          0.329  0.229  0.341   -0.064 -0.025 -0.074    0.000  0.000  0.002
 O          0.001 -0.002 -0.001   -0.000  0.001  0.001    0.000 -0.000 -0.000
 O         -0.001  0.003  0.002    0.000 -0.001 -0.001   -0.000  0.000  0.000
 TransDip   0.373  0.076  0.348    0.462  0.912 -0.501   -0.120  0.209  0.092

 Mode:                25                     26                     27
 Frequency:      3071.88                3158.82                3262.85
 Force Cnst:      6.0394                 6.1850                 7.0106
 Red. Mass:       1.0863                 1.0521                 1.1177
 IR Active:          YES                    YES                    YES
 IR Intens:       45.575                 43.483                 22.612
 Raman Active:       YES                    YES                    YES
               X      Y      Z        X      Y      Z        X      Y      Z
 C          0.034  0.036 -0.068   -0.000  0.004  0.000   -0.000 -0.001  0.002
 C          0.002  0.001  0.000    0.001 -0.000  0.001   -0.000 -0.001  0.000
 O         -0.000 -0.000  0.000   -0.000  0.000 -0.000    0.000  0.000 -0.000
 O         -0.000 -0.001  0.000   -0.000 -0.000 -0.000    0.000  0.000 -0.000
 C          0.002 -0.001  0.002   -0.036 -0.049 -0.018    0.036 -0.045  0.082
 H         -0.333 -0.507  0.781   -0.003 -0.008  0.008    0.009  0.014 -0.019
 H         -0.090  0.075  0.029    0.006 -0.004 -0.002   -0.002  0.002  0.002
 H         -0.017  0.001 -0.018    0.469  0.065  0.609   -0.387 -0.062 -0.487
 H          0.004  0.008 -0.010   -0.048  0.477 -0.413   -0.040  0.592 -0.497
 O         -0.000 -0.000 -0.000    0.000  0.000 -0.000   -0.000  0.000 -0.000
 O          0.000  0.000  0.000   -0.000  0.000  0.000   -0.000 -0.000 -0.000
 TransDip   0.058  0.139 -0.155   -0.127 -0.140 -0.094    0.058 -0.081  0.115

 STANDARD THERMODYNAMIC QUANTITIES AT   298.15 K  AND     1.00 ATM

   This Molecule has  1 Imaginary Frequencies
   Zero point vibrational energy:       42.158 kcal/mol

   Atom    1 Element C  Has Mass   12.00000
   Atom    2 Element C  Has Mass   12.00000
   Atom    3 Element O  Has Mass   15.99491
   Atom    4 Element O  Has Mass   15.99491
   Atom    5 Element C  Has Mass   12.00000
   Atom    6 Element H  Has Mass    1.00783
   Atom    7 Element H  Has Mass    1.00783
   Atom    8 Element H  Has Mass    1.00783
   Atom    9 Element H  Has Mass    1.00783
   Atom   10 Element O  Has Mass   15.99491
   Atom   11 Element O  Has Mass   15.99491
   Molecular Mass:   104.010960 amu
   Principal axes and moments of inertia in amu*Bohr^2:
                             1           2           3
    Eigenvalues --      409.92463  1425.23524  1492.91306
          X               0.00754     0.99977    -0.02000
          Y               0.67653     0.00962     0.73635
          Z               0.73638    -0.01908    -0.67630
   Rotational Symmetry Number is   1
   The Molecule is an Asymmetric Top
   Translational Enthalpy:        0.889 kcal/mol
   Rotational Enthalpy:           0.889 kcal/mol
   Vibrational Enthalpy:         45.561 kcal/mol
   gas constant (RT):             0.592 kcal/mol
   Translational Entropy:        39.835  cal/mol.K
   Rotational Entropy:           28.258  cal/mol.K
   Vibrational Entropy:          25.483  cal/mol.K

   Total Enthalpy:               47.931 kcal/mol
   Total Entropy:                93.575  cal/mol.K
Archival summary:
1\1\g5-12\FREQ\ProcedureUnspecified\BasisUnspecified\434(2-,1)\lmgong\ThuMay3023:09:152019ThuMay3023:09:152019\0\\#,FREQ,ProcedureUnspecified,BasisUnspecified,\\-2,1\C\O,1,1.25738\O,1,1.26094,2,125.366\C,1,1.53921,2,117.891,3,-177.687,0\H,4,1.09582,1,108.86,2,-160.092,0\H,4,1.10487,1,105.441,2,87.2157,0\C,4,1.48703,1,115.253,2,-35.3875,0\H,7,1.08318,4,119.503,1,27.8486,0\H,7,1.0849,4,119.233,1,-173.364,0\O,7,2.3046,4,97.9081,1,-73.8383,0\O,10,1.33501,7,116.348,4,175.355,0\\\@

 Total job time:  35961.34s(wall), 143553.90s(cpu) 
 Thu May 30 23:09:15 2019

        *************************************************************
        *                                                           *
        *  Thank you very much for using Q-Chem.  Have a nice day.  *
        *                                                           *
        *************************************************************


