11   
From 3-product-freq.out: Frame 1 / 67, Energy=    -417.8393129436
C       -0.3393015153    0.7624825649    0.0875791043
C        0.7256308954    0.8419267390    1.1939242022
O        0.6607439319   -0.0108725973    2.1176056413
O        1.5776145266    1.7671387630    1.1149771850
C       -0.4841427891   -0.6249375374   -0.5178400676
H       -0.1111922146    1.4916915543   -0.6952185260
H       -1.3021783896    1.0419282351    0.5325794298
H       -1.3062677379   -0.6354665394   -1.2523649599
H       -0.7230999727   -1.3596108757    0.2653755154
O        0.7230094017   -0.9693673466   -1.1465872224
O        0.5791700105   -2.3053260954   -1.7001829228
