
Running Job 1 of 1 qc-3-tshess.in
qchem qc-3-tshess.in_22224.0 /scratch/lmgong/1181652/qc-3-tshess.d/ 1
/home/leeping/opt/qchem/5.0.2-openmp/exe/qcprog.exe_s qc-3-tshess.in_22224.0 /scratch/lmgong/1181652/qc-3-tshess.d/
Check license passed

                  Welcome to Q-Chem
     A Quantum Leap Into The Future Of Chemistry


 Q-Chem 5.0, Q-Chem, Inc., Pleasanton, CA (2017)

 Yihan Shao,  Zhengting Gan,  E. Epifanovsky,  A. T. B. Gilbert,  M. Wormit,  
 J. Kussmann,  A. W. Lange,  A. Behn,  Jia Deng,  Xintian Feng,  D. Ghosh,  
 M. Goldey,  P. R. Horn,  L. D. Jacobson,  I. Kaliman,  T. Kus,  A. Landau,  
 Jie Liu,  E. I. Proynov,  R. M. Richard,  R. P. Steele,  E. J. Sundstrom,  
 H. L. Woodcock III,  P. M. Zimmerman,  D. Zuev,  B. Albrecht,  E. Alguire,  
 S. A. Baeppler,  D. Barton,  Z. Benda,  Y. A. Bernard,  E. J. Berquist,  
 K. B. Bravaya,  H. Burton,  D. Casanova,  Chun-Min Chang,  Yunqing Chen,  
 A. Chien,  K. D. Closser,  M. P. Coons,  S. Dasgupta,  A. L. Dempwolff,  
 M. Diedenhofen,  Hainam Do,  R. G. Edgar,  Po-Tung Fang,  S. Fatehi,  
 Qingguo Feng,  J. Fosso-Tande,  Qinghui Ge,  A. Ghysels,  G. Gidofalvi,  
 J. Gomes,  J. Gonthier,  A. Gunina,  M. W. D. Hanson-Heine,  
 P. H. P. Harbach,  A. W. Hauser,  J. E. Herr,  E. G. Hohenstein,  
 Z. C. Holden,  Kerwin Hui,  T.-C. Jagau,  Hyunjun Ji,  B. Kaduk,  
 K. Khistyaev,  Jaehoon Kim,  P. Klunzinger,  K. Koh,  D. Kosenkov,  
 L. Koulias,  T. Kowalczyk,  C. M. Krauter,  A. Kunitsa,  Ka Un Lao,  
 A. Laurent,  K. V. Lawler,  Joonho Lee,  D. Lefrancois,  S. Lehtola,  
 D. S. Levine,  Yi-Pei Li,  You-Sheng Lin,  Fenglai Liu,  E. Livshits,  
 A. Luenser,  P. Manohar,  E. Mansoor,  S. F. Manzer,  Shan-Ping Mao,  
 Yuezhi Mao,  N. Mardirossian,  A. V. Marenich,  T. Markovich,  
 L. A. Martinez-Martinez,  S. A. Maurer,  N. J. Mayhall,  S. C. McKenzie,  
 J.-M. Mewes,  A. F. Morrison,  J. W. Mullinax,  K. Nanda,  
 T. S. Nguyen-Beck,  R. Olivares-Amaya,  J. A. Parkhill,  T. M. Perrine,  
 F. Plasser,  S. Prager,  A. Prociuk,  E. Ramos,  D. R. Rehn,  F. Rob,  
 M. Schneider,  N. Sergueev,  S. M. Sharada,  S. Sharma,  D. W. Small,  
 T. Stauch,  T. Stein,  Yu-Chuan Su,  A. J. W. Thom,  A. Tkatchenko,  
 T. Tsuchimochi,  L. Vogt,  O. Vydrov,  M. A. Watson,  J. Wenzel,  
 M. de Wergifosse,  T. A. Wesolowski,  A. White,  J. Witte,  A. Yamada,  
 Jun Yang,  K. Yao,  S. Yeganeh,  S. R. Yost,  Zhi-Qiang You,  A. Zech,  
 Igor Ying Zhang,  Xing Zhang,  Yan Zhao,  Ying Zhu,  B. R. Brooks,  
 G. K. L. Chan,  C. J. Cramer,  M. S. Gordon,  W. J. Hehre,  A. Klamt,  
 M. W. Schmidt,  C. D. Sherrill,  D. G. Truhlar,  A. Aspuru-Guzik,  R. Baer,  
 A. T. Bell,  N. A. Besley,  Jeng-Da Chai,  R. A. DiStasio Jr.,  A. Dreuw,  
 B. D. Dunietz,  T. R. Furlani,  Chao-Ping Hsu,  Yousung Jung,  Jing Kong,  
 D. S. Lambrecht,  WanZhen Liang,  C. Ochsenfeld,  V. A. Rassolov,  
 L. V. Slipchenko,  J. E. Subotnik,  T. Van Voorhis,  J. M. Herbert,  
 A. I. Krylov,  P. M. W. Gill,  M. Head-Gordon

 Contributors to earlier versions of Q-Chem not listed above: 
 R. D. Adamson,  B. Austin,  J. Baker,  G. J. O. Beran,  K. Brandhorst,  
 S. T. Brown,  E. F. C. Byrd,  A. K. Chakraborty,  C.-L. Cheng,  
 Siu Hung Chien,  D. M. Chipman,  D. L. Crittenden,  H. Dachsel,  
 R. J. Doerksen,  A. D. Dutoi,  L. Fusti-Molnar,  W. A. Goddard III,  
 A. Golubeva-Zadorozhnaya,  S. R. Gwaltney,  G. Hawkins,  A. Heyden,  
 S. Hirata,  G. Kedziora,  F. J. Keil,  C. Kelley,  Jihan Kim,  R. A. King,  
 R. Z. Khaliullin,  P. P. Korambath,  W. Kurlancheek,  A. M. Lee,  M. S. Lee,  
 S. V. Levchenko,  Ching Yeh Lin,  D. Liotard,  R. C. Lochan,  I. Lotan,  
 P. E. Maslen,  N. Nair,  D. P. O'Neill,  D. Neuhauser,  E. Neuscamman,  
 C. M. Oana,  R. Olson,  B. Peters,  R. Peverati,  P. A. Pieniazek,  
 Y. M. Rhee,  J. Ritchie,  M. A. Rohrdanz,  E. Rosta,  N. J. Russ,  
 H. F. Schaefer III,  N. E. Schultz,  N. Shenvi,  A. C. Simmonett,  A. Sodt,  
 D. Stuck,  K. S. Thanthiriwatte,  V. Vanovschi,  Tao Wang,  A. Warshel,  
 C. F. Williams,  Q. Wu,  X. Xu,  W. Zhang

 Please cite Q-Chem as follows:
 Y. Shao et al., Mol. Phys. 113, 184-215 (2015)
 DOI: 10.1080/00268976.2014.952696

 Q-Chem 5.0.2 for Intel X86 EM64T Linux

 Parts of Q-Chem use Armadillo 5.200.1 (Boston Tea Smuggler).
 http://arma.sourceforge.net/

 Q-Chem begins on Thu May  3 01:31:45 2018  

Host: 
0

     Scratch files written to /scratch/lmgong/1181652/qc-3-tshess.d//
 Dec517 15110_ 26548  26544 5633   
Processing $rem in /home/leeping/opt/qchem/5.0.2-openmp/config/preferences.
 MEM_STATIC 2000
 MEM_TOTAL  8000
 SYMMETRY   OFF
 SYM_IGNORE TRUE 
Symmetry turned off for PCM/SM12/SMD calculation

Checking the input file for inconsistencies... 	...done.

--------------------------------------------------------------
User input:
--------------------------------------------------------------
$molecule
-2 1
C        0.3664798086    1.1551214269    0.0576796022
C        0.6103403639    2.1821852350    1.1785385633
O        0.8536359525    1.7702106422    2.3390190511
O        0.5158348236    3.3895186453    0.8302451536
C        0.7381808247   -0.2624169251    0.3842074386
H        0.9123317701    1.4772212765   -0.8303019788
H       -0.6983935773    1.2147433095   -0.1887039180
O       -0.9401830427   -0.9219601564    0.8863847027
H        1.0760411798   -0.5082898414    1.3727615738
H        0.8723760000   -0.9834364555   -0.4028092221
C       -1.7905787909   -1.4318303269    0.0668228704
C       -1.4291315815   -1.4934214626   -1.4080526205
H       -2.2937753840   -1.8166168073   -1.9869695112
H       -0.6142611693   -2.2087824430   -1.5569018239
H       -1.0859977279   -0.5210599520   -1.7699473274
O       -2.8842624046   -1.8808842616    0.4440941846
O        2.7892126674    0.0279660175    0.0325006075
H        3.0021502878    0.8117320784    0.5514326541
$end

$rem
jobtype               freq
method                wb97x-v
basis                 def2-tzvpd
symmetry              off
sym_ignore            true
incdft                false
incfock               0
!scf_algorithm        diis_gdm
scf_convergence       8
thresh                14
!purecart             112
max_scf_cycles        1000
geom_opt_max_cycles   500
geom_opt_dmax         100
geom_opt_tol_gradient 10
solvent_method        pcm
ideriv                1
rpath_tol_displacement 1000
rpath_max_cycles      100
rpath_direction       1
!scf_guess            read
scf_guess             read
$end

$pcm
theory              cosmo
method              iswig
Radii               bondi
vdwScale            1.20
hpoints             110
heavypoints         110
$end

$solvent
dielectric 78.400000
$end

--------------------------------------------------------------
 ----------------------------------------------------------------
             Standard Nuclear Orientation (Angstroms)
    I     Atom           X                Y                Z
 ----------------------------------------------------------------
    1      C       0.3664798086     1.1551214269     0.0576796022
    2      C       0.6103403639     2.1821852350     1.1785385633
    3      O       0.8536359525     1.7702106422     2.3390190511
    4      O       0.5158348236     3.3895186453     0.8302451536
    5      C       0.7381808247    -0.2624169251     0.3842074386
    6      H       0.9123317701     1.4772212765    -0.8303019788
    7      H      -0.6983935773     1.2147433095    -0.1887039180
    8      O      -0.9401830427    -0.9219601564     0.8863847027
    9      H       1.0760411798    -0.5082898414     1.3727615738
   10      H       0.8723760000    -0.9834364555    -0.4028092221
   11      C      -1.7905787909    -1.4318303269     0.0668228704
   12      C      -1.4291315815    -1.4934214626    -1.4080526205
   13      H      -2.2937753840    -1.8166168073    -1.9869695112
   14      H      -0.6142611693    -2.2087824430    -1.5569018239
   15      H      -1.0859977279    -0.5210599520    -1.7699473274
   16      O      -2.8842624046    -1.8808842616     0.4440941846
   17      O       2.7892126674     0.0279660175     0.0325006075
   18      H       3.0021502878     0.8117320784     0.5514326541
 ----------------------------------------------------------------
 Nuclear Repulsion Energy =   527.5602484078 hartrees
 There are       40 alpha and       40 beta electrons
 Requested basis set is def2-TZVPD
 There are 175 shells and 457 basis functions

 Total QAlloc Memory Limit   8000 MB
 Mega-Array Size      1956 MB
 MEM_STATIC part      2000 MB
 Discretize the solute cavity surface with Lebedev spheres
	Using 110 Lebedev grid points for each H atom
	Using 110 Lebedev grid points for other atoms
	Atomic van der Waals radii will be scaled by 1.20
 Remove points where switching function is < 1.0e-08
 Keep 1082 surface tesserae and discard 898 interior tesserae
 Molecular Surface Area = 194.436 Angst**2
 A cutoff of  1.0D-14 yielded  13978 shell pairs
 There are     95378 function pairs (    121242 Cartesian)
 
 -------------------------------------------------------
 OpenMP Integral Computing Module                       
 Release: version 1.0, May 2013, Q-Chem Inc. Pittsburgh 
 -------------------------------------------------------
 Integral Job Info:
 Integral job number is                      11
 Integral operator is                         1
 short-range coefficients              16700000
 long-range coefficients              100000000
 Omega coefficients                         300
 if combine SR and LR in K                    1
 Integral screening is                        0
 Integral computing path is                   2
 max size of driver memory is            800000
 size of driver memory is                776718
 size of scratch memory is              4473992
 max col of scratch BK array              10000
 max len of scratch array in speh3          662
 max len of scratch index in speh4           32
 max int batch size is                      520
 min int batch size is                       52
 fixed nKL is                                52
 max L of basis functions is                  3
 order of int derivative is                   0
 number of shells is                        175
 number of basis is                         517
 number of cartesian basis is               517
 number of contracted shell pairs         13978
 number of primitive shell pairs          28236
 maxK2 (contraction) of shell pair           36
 max number of K2 of shell pair               1
 max number of CS2 of shell pair           2312
 max number of PS2 of shell pair           3222
 mem total for path MDJ                  777156
 -------------------------------------------------------
 Smallest overlap matrix eigenvalue = 3.32E-06
 Guess MOs from SCF MO coefficient file
 Reading MOs from coefficient file
 Reading MOs from coefficient file
 Long-range K will be added via erf
 Coulomb attenuation parameter = 0.3 bohr**(-1)
 A restricted hybrid HF-DFT SCF calculation will be
 performed using Pulay DIIS extrapolation
 Polarizable Continuum solvation model will be applied
 Exchange:     0.1670 Hartree-Fock + 1.0000 wB97X-V + LR-HF
 Correlation:  1.0000 wB97X-V
 Using SG-2 standard quadrature grid
 Nonlocal Correlation:  VV10 with C = 0.0100 and b = 6.00
 Grid used for NLC:  SG-1 standard quadrature
 SCF converges when DIIS error is below 1.0E-08
Using Q-Chem read-in guess as SCF_GUESS READ specified.

 using 4 threads for integral computing
 -------------------------------------------------------
 OpenMP Integral computing Module                
 Release: version 1.0, May 2013, Q-Chem Inc. Pittsburgh 
 -------------------------------------------------------
 using 4 threads for integral computing
 -------------------------------------------------------
 OpenMP Integral computing Module                
 Release: version 1.0, May 2013, Q-Chem Inc. Pittsburgh 
 -------------------------------------------------------
 -------------------------------------------------------
 OpenMP BLAS3 based DFT computing Module                
 Release: version 1.0, May 2013, Q-Chem Inc. Pittsburgh 
 -------------------------------------------------------
 -------------------------------------------------------
 OpenMP BLAS3 based DFT computing Module                
 Release: version 1.0, May 2013, Q-Chem Inc. Pittsburgh 
 -------------------------------------------------------
 -------------------------------------------------------
 OpenMP BLAS3 based DFT computing Module                
 Release: version 1.0, May 2013, Q-Chem Inc. Pittsburgh 
 -------------------------------------------------------
 ---------------------------------------
  Cycle       Energy         DIIS Error
 ---------------------------------------
    1    -571.4552021716      3.81E-04
    2    -571.7588346395      4.10E-04
    3    -571.7648699011      1.91E-04
    4    -571.7658662873      1.39E-04
    5    -571.7665137740      1.05E-04
    6    -571.7668280974      8.41E-05
    7    -571.7670414373      6.68E-05
    8    -571.7671844910      5.21E-05
    9    -571.7672827477      3.90E-05
   10    -571.7673279639      3.12E-05
   11    -571.7673695091      2.17E-05
   12    -571.7673876224      1.57E-05
   13    -571.7673960006      1.21E-05
   14    -571.7673998734      9.91E-06
   15    -571.7674021425      8.40E-06
   16    -571.7674042616      6.68E-06
   17    -571.7674079192      6.68E-09 Convergence criterion met
 ---------------------------------------

************** Final PCM Free Energy Summary **************
 G_electrostatic  =      -0.31220574 hartree =    -195.91206172 kcal/mol
 G_cavitation     =       0.00000000 hartree =       0.00000000 kcal/mol
 G_dispersion     =       0.00000000 hartree =       0.00000000 kcal/mol
 G_repulsion      =       0.00000000 hartree =       0.00000000 kcal/mol
 --------------------------------------------------
 Non-electrostatic Free Energy =       0.00000000 hartree =       0.00000000 kcal/mol
 Total                         =      -0.31220574 hartree =    -195.91206172 kcal/mol
 --------------------------------------------------
 SCF Energy (H0 + V/2)                       =    -571.76740792 
 Solute Internal Energy (H0)                 =    -571.45520217 
 Total Free Energy (H0 + V/2 + non-elec)     =    -571.76740792 hartree
                                             = -358789.46367845 kcal/mol
***********************************************************

 SCF time:  CPU 3760.41 s  wall 975.46 s
 SCF   energy in the final basis set = -571.76740792
 Total energy in the final basis set = -571.76740792
 
 --------------------------------------------------------------
 
                    Orbital Energies (a.u.)
 --------------------------------------------------------------
 
 Alpha MOs
 -- Occupied --
-19.183 -19.161 -19.142 -19.139 -19.108 -10.367 -10.343 -10.324
-10.255 -10.252  -1.176  -1.145  -1.082  -1.051  -0.992  -0.885
 -0.851  -0.751  -0.633  -0.612  -0.581  -0.567  -0.555  -0.540
 -0.534  -0.528  -0.498  -0.493  -0.477  -0.464  -0.459  -0.453
 -0.388  -0.372  -0.357  -0.348  -0.338  -0.332  -0.324  -0.312
 -- Virtual --
  0.059   0.071   0.079   0.083   0.099   0.102   0.105   0.112
  0.123   0.127   0.135   0.136   0.138   0.140   0.151   0.157
  0.160   0.165   0.173   0.182   0.185   0.203   0.207   0.214
  0.222   0.230   0.235   0.236   0.245   0.253   0.257   0.259
  0.271   0.274   0.280   0.292   0.305   0.310   0.313   0.320
  0.326   0.331   0.339   0.346   0.349   0.350   0.362   0.370
  0.372   0.381   0.389   0.390   0.396   0.404   0.407   0.412
  0.418   0.425   0.427   0.437   0.439   0.443   0.445   0.453
  0.463   0.472   0.475   0.477   0.484   0.490   0.494   0.497
  0.500   0.514   0.517   0.525   0.530   0.536   0.542   0.557
  0.563   0.567   0.570   0.574   0.575   0.582   0.583   0.595
  0.604   0.610   0.615   0.623   0.630   0.637   0.643   0.652
  0.658   0.665   0.668   0.675   0.680   0.687   0.691   0.696
  0.703   0.714   0.716   0.720   0.729   0.738   0.742   0.745
  0.756   0.767   0.776   0.780   0.784   0.794   0.799   0.809
  0.818   0.824   0.832   0.837   0.840   0.848   0.850   0.855
  0.862   0.868   0.879   0.885   0.900   0.905   0.914   0.926
  0.940   0.956   0.963   0.972   0.978   0.989   1.006   1.022
  1.024   1.045   1.051   1.055   1.060   1.090   1.093   1.099
  1.124   1.134   1.151   1.165   1.178   1.183   1.198   1.210
  1.223   1.231   1.258   1.273   1.280   1.301   1.304   1.317
  1.325   1.348   1.363   1.377   1.382   1.388   1.404   1.422
  1.435   1.450   1.456   1.476   1.488   1.504   1.520   1.522
  1.551   1.598   1.630   1.642   1.683   1.748   1.805   1.813
  1.838   1.860   1.868   1.877   1.906   1.911   1.918   1.935
  1.942   1.952   1.960   1.975   1.982   1.990   1.999   2.005
  2.025   2.037   2.044   2.062   2.082   2.113   2.129   2.139
  2.167   2.182   2.200   2.215   2.227   2.229   2.256   2.267
  2.285   2.286   2.314   2.327   2.357   2.365   2.383   2.408
  2.418   2.449   2.459   2.475   2.496   2.505   2.514   2.522
  2.547   2.575   2.603   2.620   2.634   2.641   2.668   2.690
  2.713   2.743   2.778   2.806   2.838   2.841   2.852   2.892
  2.903   2.906   2.926   2.957   2.967   2.987   3.014   3.033
  3.057   3.068   3.101   3.105   3.135   3.138   3.154   3.170
  3.190   3.211   3.235   3.242   3.248   3.288   3.299   3.314
  3.318   3.333   3.353   3.356   3.377   3.383   3.412   3.420
  3.432   3.447   3.466   3.479   3.493   3.507   3.532   3.547
  3.577   3.586   3.598   3.609   3.626   3.641   3.654   3.661
  3.674   3.695   3.706   3.713   3.718   3.729   3.757   3.766
  3.800   3.816   3.827   3.879   3.901   3.939   3.984   4.029
  4.074   4.095   4.109   4.132   4.149   4.201   4.233   4.235
  4.311   4.330   4.393   4.474   4.523   4.563   4.630   4.682
  4.692   4.698   4.749   4.824   4.832   4.874   4.930   5.031
  5.068   5.088   5.227   5.320   5.329   5.356   5.362   5.367
  5.382   5.384   5.414   5.433   5.446   5.488   5.511   5.520
  5.555   5.659   5.703   5.714   5.720   5.735   5.774   5.791
  5.829   6.013   6.070   6.201   6.255   6.304   6.315   6.340
  6.424   6.456   6.608   6.632   6.636   6.644   6.702   6.720
  6.736   6.752   6.759   6.772   6.782   6.797   6.914   6.939
  6.970   6.974   7.017   7.023   7.048   7.069   7.240   7.247
  7.308   7.341   7.369   7.405   7.421   7.454   7.546  22.702
 22.798  22.907  23.697  23.766  44.138  44.319  44.428  44.459
 44.482
 --------------------------------------------------------------
 
          Ground-State Mulliken Net Atomic Charges

     Atom                 Charge (a.u.)
  ----------------------------------------
      1 C                     0.009484
      2 C                     0.058821
      3 O                    -0.689879
      4 O                    -0.719222
      5 C                     0.121081
      6 H                     0.184822
      7 H                     0.206283
      8 O                    -0.531974
      9 H                     0.079767
     10 H                     0.180038
     11 C                     0.456542
     12 C                    -0.635850
     13 H                     0.197445
     14 H                     0.255481
     15 H                     0.235988
     16 O                    -0.652968
     17 O                    -0.974129
     18 H                     0.218271
  ----------------------------------------
  Sum of atomic charges =    -2.000000

 -----------------------------------------------------------------
                    Cartesian Multipole Moments
 -----------------------------------------------------------------
    Charge (ESU x 10^10)
                -9.6064
    Dipole Moment (Debye)
         X      -4.7409      Y      -8.0221      Z     -11.7547
       Tot      15.0002
    Quadrupole Moments (Debye-Ang)
        XX    -117.9288     XY     -19.9627     YY    -114.1093
        XZ       3.2587     YZ     -12.5829     ZZ     -85.9394
    Octopole Moments (Debye-Ang^2)
       XXX     -16.5143    XXY      35.1029    XYY       7.0644
       YYY    -180.7259    XXZ     -41.6936    XYZ     -23.2858
       YYZ     -86.4521    XZZ     -10.7090    YZZ     -52.3588
       ZZZ    -133.2580
    Hexadecapole Moments (Debye-Ang^3)
      XXXX   -1579.4162   XXXY    -403.7535   XXYY    -477.8704
      XYYY    -432.8653   YYYY   -1747.3704   XXXZ     -13.0734
      XXYZ     -36.4838   XYYZ     -40.8868   YYYZ    -326.3411
      XXZZ    -291.1368   XYZZ    -137.0754   YYZZ    -377.5801
      XZZZ    -105.3743   YZZZ    -279.1394   ZZZZ    -645.8055
 -----------------------------------------------------------------
 Calculating analytic gradient of the SCF energy
 Gradient of SCF Energy
            1           2           3           4           5           6
    1  -0.0173433  -0.0075580  -0.0170760   0.0044931   0.0105060  -0.0365658
    2  -0.0098587   0.0452977   0.0171654  -0.0603786  -0.0499549  -0.0284544
    3  -0.0928364   0.0547209  -0.0588860   0.0057187   0.0618801   0.0508150
            7           8           9          10          11          12
    1   0.0679206  -0.0287696  -0.0191138  -0.0049482  -0.0196207   0.0187818
    2   0.0050894  -0.0206289   0.0071463   0.0785947   0.0052805  -0.0115004
    3  -0.0076253  -0.0187098  -0.0768993   0.0490610   0.0682920  -0.0752897
           13          14          15          16          17          18
    1   0.0523751  -0.0478188  -0.0283683   0.0483862   0.0432095  -0.0184898
    2   0.0213494   0.0357894  -0.0534029   0.0197594   0.0535553  -0.0548486
    3   0.0398330   0.0057948   0.0190630  -0.0183322   0.0271740  -0.0337738
 Max gradient component =       9.284E-02
 RMS gradient           =       4.104E-02
 Computing fast CPCM-ISWIG gradient
 Updating gradient with PCM contributions...
 -- total gradient after adding PCM contribution --
---------------------------------------------------
  Atom         X              Y              Z     
---------------------------------------------------
   1      -0.000001      -0.000001       0.000001
   2       0.000012      -0.000004       0.000001
   3       0.000027      -0.000007      -0.000004
   4       0.000001      -0.000001       0.000008
   5       0.000008       0.000004      -0.000007
   6      -0.000018       0.000004      -0.000009
   7      -0.000006      -0.000001       0.000017
   8       0.000010      -0.000004       0.000004
   9       0.000018      -0.000006      -0.000015
  10      -0.000002       0.000006      -0.000018
  11       0.000006      -0.000007       0.000018
  12      -0.000015       0.000003       0.000012
  13      -0.000022       0.000004       0.000023
  14      -0.000016       0.000004      -0.000001
  15      -0.000021       0.000004       0.000012
  16       0.000010      -0.000008       0.000031
  17       0.000001      -0.000004      -0.000035
  18       0.000007       0.000015      -0.000038
---------------------------------------------------
 Number of fixed atoms: 0
 Gradient time:  CPU 742.72 s  wall 192.65 s
 ######################################################
 ######################################################
 # Starting finite difference calculation for IDERIV  #
 Finite diff step size:  1.88973e-03 a.u.
 ----------------------------------------------------------------
             Standard Nuclear Orientation (Angstroms)
    I     Atom           X                Y                Z
 ----------------------------------------------------------------
    1      C       0.3674798086     1.1551214269     0.0576796022
    2      C       0.6103403639     2.1821852350     1.1785385633
    3      O       0.8536359525     1.7702106422     2.3390190511
    4      O       0.5158348236     3.3895186453     0.8302451536
    5      C       0.7381808247    -0.2624169251     0.3842074386
    6      H       0.9123317701     1.4772212765    -0.8303019788
    7      H      -0.6983935773     1.2147433095    -0.1887039180
    8      O      -0.9401830427    -0.9219601564     0.8863847027
    9      H       1.0760411798    -0.5082898414     1.3727615738
   10      H       0.8723760000    -0.9834364555    -0.4028092221
   11      C      -1.7905787909    -1.4318303269     0.0668228704
   12      C      -1.4291315815    -1.4934214626    -1.4080526205
   13      H      -2.2937753840    -1.8166168073    -1.9869695112
   14      H      -0.6142611693    -2.2087824430    -1.5569018239
   15      H      -1.0859977279    -0.5210599520    -1.7699473274
   16      O      -2.8842624046    -1.8808842616     0.4440941846
   17      O       2.7892126674     0.0279660175     0.0325006075
   18      H       3.0021502878     0.8117320784     0.5514326541
 ----------------------------------------------------------------
 Nuclear Repulsion Energy =   527.5624850035 hartrees
 There are       40 alpha and       40 beta electrons
 Discretize the solute cavity surface with Lebedev spheres
	Using 110 Lebedev grid points for each H atom
	Using 110 Lebedev grid points for other atoms
	Atomic van der Waals radii will be scaled by 1.20
 Remove points where switching function is < 1.0e-08
 Keep 1082 surface tesserae and discard 898 interior tesserae
 Molecular Surface Area = 194.441 Angst**2
 Requested basis set is def2-TZVPD
 There are 175 shells and 457 basis functions
 A cutoff of  1.0D-14 yielded  13978 shell pairs
 There are     95378 function pairs (    121242 Cartesian)
 Smallest overlap matrix eigenvalue = 3.32E-06
 Guess MOs from SCF MO coefficient file
 Reading MOs from coefficient file
 Reading MOs from coefficient file
 Long-range K will be added via erf
 Coulomb attenuation parameter = 0.3 bohr**(-1)
 A restricted hybrid HF-DFT SCF calculation will be
 performed using Pulay DIIS extrapolation
 Polarizable Continuum solvation model will be applied
 Exchange:     0.1670 Hartree-Fock + 1.0000 wB97X-V + LR-HF
 Correlation:  1.0000 wB97X-V
 Using SG-2 standard quadrature grid
 Nonlocal Correlation:  VV10 with C = 0.0100 and b = 6.00
 Grid used for NLC:  SG-1 standard quadrature
 SCF converges when DIIS error is below 1.0E-08
Using Q-Chem read-in guess as SCF_GUESS READ specified.

 using 4 threads for integral computing
 -------------------------------------------------------
 OpenMP Integral computing Module                
 Release: version 1.0, May 2013, Q-Chem Inc. Pittsburgh 
 -------------------------------------------------------
 using 4 threads for integral computing
 -------------------------------------------------------
 OpenMP Integral computing Module                
 Release: version 1.0, May 2013, Q-Chem Inc. Pittsburgh 
 -------------------------------------------------------
 -------------------------------------------------------
 OpenMP BLAS3 based DFT computing Module                
 Release: version 1.0, May 2013, Q-Chem Inc. Pittsburgh 
 -------------------------------------------------------
 -------------------------------------------------------
 OpenMP BLAS3 based DFT computing Module                
 Release: version 1.0, May 2013, Q-Chem Inc. Pittsburgh 
 -------------------------------------------------------
 -------------------------------------------------------
 OpenMP BLAS3 based DFT computing Module                
 Release: version 1.0, May 2013, Q-Chem Inc. Pittsburgh 
 -------------------------------------------------------
 ---------------------------------------
  Cycle       Energy         DIIS Error
 ---------------------------------------
    1    -571.4551041110      3.81E-04
    2    -571.7588311786      4.10E-04
    3    -571.7648698935      1.91E-04
    4    -571.7658671974      1.38E-04
    5    -571.7665205886      1.04E-04
    6    -571.7668466690      8.26E-05
    7    -571.7670900514      6.21E-05
    8    -571.7672663077      4.13E-05
    9    -571.7673738631      2.01E-05
   10    -571.7674004581      8.90E-06
   11    -571.7674067245      1.65E-06
   12    -571.7674069380      2.81E-07
   13    -571.7674069442      2.79E-08
   14    -571.7674069443      1.82E-08
   15    -571.7674069443      1.09E-08
   16    -571.7674069443      2.92E-09 Convergence criterion met
 ---------------------------------------

************** Final PCM Free Energy Summary **************
 G_electrostatic  =      -0.31220949 hartree =    -195.91440894 kcal/mol
 G_cavitation     =       0.00000000 hartree =       0.00000000 kcal/mol
 G_dispersion     =       0.00000000 hartree =       0.00000000 kcal/mol
 G_repulsion      =       0.00000000 hartree =       0.00000000 kcal/mol
 --------------------------------------------------
 Non-electrostatic Free Energy =       0.00000000 hartree =       0.00000000 kcal/mol
 Total                         =      -0.31220949 hartree =    -195.91440894 kcal/mol
 --------------------------------------------------
 SCF Energy (H0 + V/2)                       =    -571.76740694 
 Solute Internal Energy (H0)                 =    -571.45519746 
 Total Free Energy (H0 + V/2 + non-elec)     =    -571.76740694 hartree
                                             = -358789.46306665 kcal/mol
***********************************************************

 SCF time:  CPU 3542.67 s  wall 918.76 s
 SCF   energy in the final basis set = -571.76740694
 Total energy in the final basis set = -571.76740694
 
 --------------------------------------------------------------
 
                    Orbital Energies (a.u.)
 --------------------------------------------------------------
 
 Alpha MOs
 -- Occupied --
-19.183 -19.161 -19.142 -19.139 -19.108 -10.367 -10.343 -10.324
-10.255 -10.252  -1.176  -1.145  -1.082  -1.051  -0.992  -0.885
 -0.851  -0.751  -0.633  -0.612  -0.581  -0.567  -0.555  -0.540
 -0.534  -0.528  -0.498  -0.493  -0.477  -0.464  -0.459  -0.453
 -0.388  -0.372  -0.357  -0.348  -0.338  -0.332  -0.324  -0.312
 -- Virtual --
  0.059   0.071   0.079   0.083   0.099   0.102   0.105   0.112
  0.123   0.127   0.135   0.136   0.138   0.140   0.151   0.157
  0.160   0.165   0.173   0.182   0.185   0.203   0.207   0.214
  0.222   0.230   0.235   0.236   0.245   0.253   0.257   0.259
  0.271   0.274   0.280   0.292   0.305   0.310   0.313   0.320
  0.326   0.331   0.339   0.346   0.349   0.350   0.362   0.370
  0.372   0.381   0.389   0.390   0.396   0.404   0.407   0.412
  0.418   0.425   0.427   0.437   0.439   0.443   0.445   0.453
  0.463   0.472   0.475   0.477   0.484   0.490   0.494   0.497
  0.500   0.514   0.517   0.525   0.530   0.536   0.542   0.557
  0.563   0.567   0.570   0.574   0.575   0.582   0.583   0.595
  0.605   0.610   0.615   0.623   0.630   0.637   0.643   0.652
  0.658   0.665   0.668   0.675   0.680   0.687   0.691   0.696
  0.703   0.714   0.716   0.720   0.729   0.738   0.742   0.745
  0.756   0.767   0.776   0.780   0.784   0.794   0.799   0.809
  0.818   0.824   0.832   0.837   0.840   0.848   0.850   0.855
  0.862   0.868   0.879   0.885   0.900   0.905   0.914   0.926
  0.940   0.956   0.963   0.972   0.978   0.989   1.006   1.022
  1.024   1.045   1.051   1.055   1.060   1.090   1.093   1.099
  1.124   1.133   1.151   1.165   1.178   1.183   1.198   1.210
  1.223   1.231   1.258   1.273   1.280   1.301   1.304   1.317
  1.325   1.348   1.363   1.377   1.382   1.388   1.404   1.422
  1.435   1.450   1.456   1.476   1.488   1.504   1.520   1.522
  1.551   1.598   1.630   1.642   1.683   1.748   1.805   1.813
  1.838   1.860   1.868   1.877   1.906   1.911   1.918   1.935
  1.942   1.952   1.960   1.975   1.982   1.990   1.999   2.006
  2.025   2.037   2.044   2.062   2.082   2.113   2.129   2.139
  2.167   2.182   2.200   2.215   2.226   2.229   2.256   2.267
  2.284   2.286   2.314   2.327   2.357   2.365   2.383   2.408
  2.418   2.449   2.459   2.475   2.496   2.505   2.514   2.522
  2.547   2.575   2.603   2.620   2.634   2.641   2.668   2.690
  2.713   2.743   2.778   2.806   2.839   2.841   2.852   2.892
  2.903   2.906   2.926   2.957   2.967   2.987   3.014   3.033
  3.057   3.068   3.101   3.106   3.135   3.138   3.154   3.170
  3.190   3.211   3.235   3.242   3.248   3.288   3.299   3.314
  3.318   3.333   3.353   3.356   3.377   3.383   3.412   3.420
  3.432   3.447   3.467   3.479   3.493   3.507   3.532   3.547
  3.577   3.586   3.598   3.609   3.626   3.641   3.654   3.661
  3.674   3.695   3.706   3.713   3.718   3.729   3.757   3.766
  3.800   3.816   3.827   3.879   3.901   3.939   3.984   4.029
  4.074   4.095   4.109   4.132   4.149   4.202   4.233   4.235
  4.312   4.330   4.393   4.474   4.523   4.563   4.630   4.682
  4.692   4.698   4.750   4.823   4.832   4.874   4.930   5.031
  5.068   5.088   5.227   5.320   5.329   5.356   5.362   5.367
  5.382   5.384   5.414   5.433   5.446   5.488   5.511   5.520
  5.555   5.659   5.703   5.714   5.720   5.735   5.774   5.791
  5.829   6.013   6.070   6.201   6.255   6.304   6.315   6.340
  6.424   6.456   6.608   6.632   6.636   6.644   6.702   6.720
  6.736   6.752   6.759   6.772   6.782   6.797   6.914   6.939
  6.970   6.974   7.017   7.023   7.048   7.069   7.240   7.247
  7.308   7.341   7.369   7.405   7.421   7.454   7.546  22.702
 22.798  22.907  23.697  23.766  44.138  44.319  44.428  44.459
 44.482
 --------------------------------------------------------------
 
          Ground-State Mulliken Net Atomic Charges

     Atom                 Charge (a.u.)
  ----------------------------------------
      1 C                     0.009828
      2 C                     0.059214
      3 O                    -0.689915
      4 O                    -0.719267
      5 C                     0.121127
      6 H                     0.185512
      7 H                     0.204981
      8 O                    -0.531938
      9 H                     0.079576
     10 H                     0.180158
     11 C                     0.456532
     12 C                    -0.635900
     13 H                     0.197447
     14 H                     0.255479
     15 H                     0.236040
     16 O                    -0.652951
     17 O                    -0.974194
     18 H                     0.218272
  ----------------------------------------
  Sum of atomic charges =    -2.000000

 -----------------------------------------------------------------
                    Cartesian Multipole Moments
 -----------------------------------------------------------------
    Charge (ESU x 10^10)
                -9.6064
    Dipole Moment (Debye)
         X      -4.7410      Y      -8.0226      Z     -11.7554
       Tot      15.0010
    Quadrupole Moments (Debye-Ang)
        XX    -117.9310     XY     -19.9596     YY    -114.1092
        XZ       3.2582     YZ     -12.5843     ZZ     -85.9395
    Octopole Moments (Debye-Ang^2)
       XXX     -16.5413    XXY      35.1023    XYY       7.0638
       YYY    -180.7289    XXZ     -41.6930    XYZ     -23.2844
       YYZ     -86.4550    XZZ     -10.7124    YZZ     -52.3603
       ZZZ    -133.2633
    Hexadecapole Moments (Debye-Ang^3)
      XXXX   -1579.4753   XXXY    -403.7533   XXYY    -477.8677
      XYYY    -432.8578   YYYY   -1747.3689   XXXZ     -13.0764
      XXYZ     -36.4816   XYYZ     -40.8835   YYYZ    -326.3489
      XXZZ    -291.1387   XYZZ    -137.0735   YYZZ    -377.5822
      XZZZ    -105.3745   YZZZ    -279.1497   ZZZZ    -645.8126
 -----------------------------------------------------------------
 Calculating analytic gradient of the SCF energy
 Gradient of SCF Energy
            1           2           3           4           5           6
    1  -0.0164315  -0.0076905  -0.0170582   0.0045162   0.0104898  -0.0367292
    2  -0.0098834   0.0453584   0.0171625  -0.0603796  -0.0498923  -0.0285879
    3  -0.0930767   0.0547166  -0.0588943   0.0057205   0.0618858   0.0511452
            7           8           9          10          11          12
    1   0.0672625  -0.0287639  -0.0190769  -0.0049702  -0.0196140   0.0187760
    2   0.0051379  -0.0206532   0.0071681   0.0785805   0.0052932  -0.0115126
    3  -0.0077018  -0.0187133  -0.0768962   0.0490483   0.0683018  -0.0752922
           13          14          15          16          17          18
    1   0.0523751  -0.0478206  -0.0283625   0.0483822   0.0432097  -0.0184940
    2   0.0213486   0.0357893  -0.0533941   0.0197597   0.0535576  -0.0548527
    3   0.0398326   0.0057940   0.0190611  -0.0183311   0.0271667  -0.0337671
 Max gradient component =       9.308E-02
 RMS gradient           =       4.103E-02
 Computing fast CPCM-ISWIG gradient
 Updating gradient with PCM contributions...
 -- total gradient after adding PCM contribution --
---------------------------------------------------
  Atom         X              Y              Z     
---------------------------------------------------
   1       0.001032      -0.000006      -0.000045
   2      -0.000164      -0.000021      -0.000009
   3       0.000066      -0.000011      -0.000030
   4       0.000039       0.000001       0.000006
   5      -0.000113       0.000084      -0.000035
   6      -0.000225      -0.000071       0.000213
   7      -0.000567       0.000018      -0.000100
   8      -0.000009      -0.000037       0.000008
   9       0.000024       0.000008      -0.000017
  10       0.000002       0.000007      -0.000019
  11       0.000015      -0.000006       0.000028
  12      -0.000016       0.000003       0.000012
  13      -0.000022       0.000004       0.000022
  14      -0.000016       0.000004      -0.000001
  15      -0.000021       0.000004       0.000011
  16       0.000003      -0.000009       0.000029
  17      -0.000035       0.000012      -0.000036
  18       0.000007       0.000016      -0.000037
---------------------------------------------------
 Number of fixed atoms: 0
 Gradient time:  CPU 742.11 s  wall 192.20 s
 ----------------------------------------------------------------
             Standard Nuclear Orientation (Angstroms)
    I     Atom           X                Y                Z
 ----------------------------------------------------------------
    1      C       0.3654798086     1.1551214269     0.0576796022
    2      C       0.6103403639     2.1821852350     1.1785385633
    3      O       0.8536359525     1.7702106422     2.3390190511
    4      O       0.5158348236     3.3895186453     0.8302451536
    5      C       0.7381808247    -0.2624169251     0.3842074386
    6      H       0.9123317701     1.4772212765    -0.8303019788
    7      H      -0.6983935773     1.2147433095    -0.1887039180
    8      O      -0.9401830427    -0.9219601564     0.8863847027
    9      H       1.0760411798    -0.5082898414     1.3727615738
   10      H       0.8723760000    -0.9834364555    -0.4028092221
   11      C      -1.7905787909    -1.4318303269     0.0668228704
   12      C      -1.4291315815    -1.4934214626    -1.4080526205
   13      H      -2.2937753840    -1.8166168073    -1.9869695112
   14      H      -0.6142611693    -2.2087824430    -1.5569018239
   15      H      -1.0859977279    -0.5210599520    -1.7699473274
   16      O      -2.8842624046    -1.8808842616     0.4440941846
   17      O       2.7892126674     0.0279660175     0.0325006075
   18      H       3.0021502878     0.8117320784     0.5514326541
 ----------------------------------------------------------------
 Nuclear Repulsion Energy =   527.5580043404 hartrees
 There are       40 alpha and       40 beta electrons
 Discretize the solute cavity surface with Lebedev spheres
	Using 110 Lebedev grid points for each H atom
	Using 110 Lebedev grid points for other atoms
	Atomic van der Waals radii will be scaled by 1.20
 Remove points where switching function is < 1.0e-08
 Keep 1082 surface tesserae and discard 898 interior tesserae
 Molecular Surface Area = 194.431 Angst**2
 Requested basis set is def2-TZVPD
 There are 175 shells and 457 basis functions
 A cutoff of  1.0D-14 yielded  13978 shell pairs
 There are     95378 function pairs (    121242 Cartesian)
 Smallest overlap matrix eigenvalue = 3.32E-06
 Guess MOs from SCF MO coefficient file
 Reading MOs from coefficient file
 Reading MOs from coefficient file
 Long-range K will be added via erf
 Coulomb attenuation parameter = 0.3 bohr**(-1)
 A restricted hybrid HF-DFT SCF calculation will be
 performed using Pulay DIIS extrapolation
 Polarizable Continuum solvation model will be applied
 Exchange:     0.1670 Hartree-Fock + 1.0000 wB97X-V + LR-HF
 Correlation:  1.0000 wB97X-V
 Using SG-2 standard quadrature grid
 Nonlocal Correlation:  VV10 with C = 0.0100 and b = 6.00
 Grid used for NLC:  SG-1 standard quadrature
 SCF converges when DIIS error is below 1.0E-08
Using Q-Chem read-in guess as SCF_GUESS READ specified.

 using 4 threads for integral computing
 -------------------------------------------------------
 OpenMP Integral computing Module                
 Release: version 1.0, May 2013, Q-Chem Inc. Pittsburgh 
 -------------------------------------------------------
 using 4 threads for integral computing
 -------------------------------------------------------
 OpenMP Integral computing Module                
 Release: version 1.0, May 2013, Q-Chem Inc. Pittsburgh 
 -------------------------------------------------------
 -------------------------------------------------------
 OpenMP BLAS3 based DFT computing Module                
 Release: version 1.0, May 2013, Q-Chem Inc. Pittsburgh 
 -------------------------------------------------------
 -------------------------------------------------------
 OpenMP BLAS3 based DFT computing Module                
 Release: version 1.0, May 2013, Q-Chem Inc. Pittsburgh 
 -------------------------------------------------------
 -------------------------------------------------------
 OpenMP BLAS3 based DFT computing Module                
 Release: version 1.0, May 2013, Q-Chem Inc. Pittsburgh 
 -------------------------------------------------------
 ---------------------------------------
  Cycle       Energy         DIIS Error
 ---------------------------------------
    1    -571.4553945346      3.82E-04
    2    -571.7588365640      4.10E-04
    3    -571.7648742751      1.91E-04
    4    -571.7658730759      1.38E-04
    5    -571.7665381474      1.03E-04
    6    -571.7669007047      7.84E-05
    7    -571.7671949608      5.08E-05
    8    -571.7673562356      2.47E-05
    9    -571.7674026221      7.23E-06
   10    -571.7674065102      2.31E-06
   11    -571.7674069324      2.85E-07
   12    -571.7674069391      5.48E-08
   13    -571.7674069393      2.93E-08
   14    -571.7674069394      1.39E-08
   15    -571.7674069394      4.44E-09 Convergence criterion met
 ---------------------------------------

************** Final PCM Free Energy Summary **************
 G_electrostatic  =      -0.31220201 hartree =    -195.90971931 kcal/mol
 G_cavitation     =       0.00000000 hartree =       0.00000000 kcal/mol
 G_dispersion     =       0.00000000 hartree =       0.00000000 kcal/mol
 G_repulsion      =       0.00000000 hartree =       0.00000000 kcal/mol
 --------------------------------------------------
 Non-electrostatic Free Energy =       0.00000000 hartree =       0.00000000 kcal/mol
 Total                         =      -0.31220201 hartree =    -195.90971931 kcal/mol
 --------------------------------------------------
 SCF Energy (H0 + V/2)                       =    -571.76740694 
 Solute Internal Energy (H0)                 =    -571.45520493 
 Total Free Energy (H0 + V/2 + non-elec)     =    -571.76740694 hartree
                                             = -358789.46306357 kcal/mol
***********************************************************

 SCF time:  CPU 3214.45 s  wall 834.15 s
 SCF   energy in the final basis set = -571.76740694
 Total energy in the final basis set = -571.76740694
 
 --------------------------------------------------------------
 
                    Orbital Energies (a.u.)
 --------------------------------------------------------------
 
 Alpha MOs
 -- Occupied --
-19.183 -19.161 -19.142 -19.139 -19.108 -10.367 -10.343 -10.324
-10.255 -10.252  -1.176  -1.145  -1.082  -1.051  -0.992  -0.884
 -0.851  -0.751  -0.633  -0.612  -0.581  -0.567  -0.555  -0.540
 -0.534  -0.528  -0.498  -0.493  -0.477  -0.464  -0.459  -0.453
 -0.388  -0.372  -0.357  -0.348  -0.338  -0.332  -0.324  -0.312
 -- Virtual --
  0.059   0.071   0.079   0.083   0.099   0.102   0.105   0.112
  0.123   0.127   0.135   0.136   0.138   0.140   0.151   0.157
  0.160   0.165   0.173   0.182   0.185   0.203   0.207   0.214
  0.222   0.230   0.235   0.236   0.245   0.253   0.257   0.259
  0.271   0.274   0.280   0.292   0.305   0.310   0.313   0.320
  0.326   0.331   0.339   0.346   0.349   0.350   0.362   0.370
  0.372   0.381   0.389   0.390   0.396   0.404   0.407   0.412
  0.418   0.425   0.427   0.437   0.439   0.444   0.445   0.453
  0.463   0.472   0.475   0.477   0.484   0.490   0.494   0.497
  0.500   0.514   0.517   0.525   0.530   0.536   0.542   0.557
  0.563   0.567   0.570   0.574   0.575   0.582   0.583   0.595
  0.604   0.610   0.615   0.623   0.630   0.636   0.643   0.652
  0.658   0.665   0.668   0.675   0.680   0.687   0.691   0.696
  0.703   0.714   0.716   0.720   0.729   0.738   0.742   0.745
  0.756   0.767   0.776   0.780   0.784   0.794   0.799   0.809
  0.817   0.824   0.832   0.837   0.840   0.848   0.850   0.855
  0.862   0.868   0.879   0.885   0.900   0.905   0.914   0.926
  0.940   0.956   0.963   0.972   0.978   0.989   1.006   1.022
  1.024   1.045   1.051   1.055   1.060   1.090   1.093   1.099
  1.124   1.134   1.151   1.165   1.178   1.183   1.198   1.210
  1.223   1.231   1.258   1.273   1.280   1.301   1.304   1.317
  1.325   1.348   1.363   1.377   1.382   1.388   1.404   1.422
  1.435   1.450   1.456   1.476   1.488   1.504   1.520   1.522
  1.551   1.598   1.630   1.642   1.683   1.748   1.805   1.813
  1.838   1.860   1.868   1.877   1.906   1.911   1.918   1.935
  1.942   1.952   1.960   1.975   1.982   1.990   1.999   2.005
  2.025   2.037   2.044   2.062   2.082   2.113   2.129   2.139
  2.167   2.182   2.200   2.215   2.227   2.229   2.256   2.267
  2.285   2.286   2.314   2.327   2.357   2.365   2.383   2.408
  2.418   2.449   2.459   2.475   2.496   2.505   2.514   2.522
  2.547   2.575   2.603   2.620   2.634   2.641   2.668   2.690
  2.713   2.743   2.777   2.805   2.838   2.841   2.852   2.892
  2.903   2.906   2.926   2.957   2.967   2.987   3.014   3.033
  3.057   3.067   3.101   3.105   3.135   3.138   3.154   3.170
  3.190   3.211   3.235   3.242   3.248   3.288   3.299   3.314
  3.318   3.333   3.353   3.356   3.377   3.383   3.412   3.420
  3.432   3.447   3.466   3.480   3.493   3.507   3.532   3.547
  3.577   3.586   3.598   3.609   3.626   3.640   3.654   3.661
  3.673   3.695   3.706   3.713   3.718   3.730   3.757   3.766
  3.800   3.816   3.827   3.879   3.901   3.939   3.984   4.029
  4.074   4.095   4.108   4.132   4.149   4.201   4.233   4.235
  4.311   4.330   4.393   4.475   4.523   4.563   4.629   4.682
  4.692   4.699   4.748   4.824   4.832   4.874   4.930   5.031
  5.069   5.087   5.227   5.320   5.329   5.356   5.362   5.367
  5.382   5.384   5.414   5.433   5.446   5.488   5.511   5.519
  5.555   5.659   5.703   5.714   5.720   5.735   5.774   5.791
  5.829   6.013   6.070   6.201   6.255   6.305   6.315   6.340
  6.424   6.456   6.608   6.632   6.636   6.644   6.702   6.720
  6.736   6.752   6.758   6.772   6.782   6.797   6.914   6.939
  6.970   6.974   7.017   7.023   7.048   7.069   7.240   7.247
  7.308   7.341   7.369   7.405   7.421   7.454   7.546  22.702
 22.798  22.907  23.698  23.766  44.138  44.319  44.428  44.459
 44.482
 --------------------------------------------------------------
 
          Ground-State Mulliken Net Atomic Charges

     Atom                 Charge (a.u.)
  ----------------------------------------
      1 C                     0.009122
      2 C                     0.058428
      3 O                    -0.689843
      4 O                    -0.719176
      5 C                     0.121032
      6 H                     0.184136
      7 H                     0.207599
      8 O                    -0.532009
      9 H                     0.079959
     10 H                     0.179918
     11 C                     0.456552
     12 C                    -0.635801
     13 H                     0.197443
     14 H                     0.255484
     15 H                     0.235935
     16 O                    -0.652984
     17 O                    -0.974064
     18 H                     0.218270
  ----------------------------------------
  Sum of atomic charges =    -2.000000

 -----------------------------------------------------------------
                    Cartesian Multipole Moments
 -----------------------------------------------------------------
    Charge (ESU x 10^10)
                -9.6064
    Dipole Moment (Debye)
         X      -4.7407      Y      -8.0217      Z     -11.7541
       Tot      14.9993
    Quadrupole Moments (Debye-Ang)
        XX    -117.9265     XY     -19.9658     YY    -114.1093
        XZ       3.2592     YZ     -12.5815     ZZ     -85.9393
    Octopole Moments (Debye-Ang^2)
       XXX     -16.4870    XXY      35.1034    XYY       7.0651
       YYY    -180.7229    XXZ     -41.6941    XYZ     -23.2873
       YYZ     -86.4494    XZZ     -10.7056    YZZ     -52.3574
       ZZZ    -133.2526
    Hexadecapole Moments (Debye-Ang^3)
      XXXX   -1579.3554   XXXY    -403.7536   XXYY    -477.8730
      XYYY    -432.8729   YYYY   -1747.3717   XXXZ     -13.0705
      XXYZ     -36.4860   XYYZ     -40.8901   YYYZ    -326.3335
      XXZZ    -291.1349   XYZZ    -137.0773   YYZZ    -377.5783
      XZZZ    -105.3741   YZZZ    -279.1293   ZZZZ    -645.7986
 -----------------------------------------------------------------
 Calculating analytic gradient of the SCF energy
 Gradient of SCF Energy
            1           2           3           4           5           6
    1  -0.0182589  -0.0074253  -0.0170938   0.0044698   0.0105228  -0.0364023
    2  -0.0098330   0.0452375   0.0171682  -0.0603777  -0.0500187  -0.0283211
    3  -0.0925972   0.0547258  -0.0588780   0.0057167   0.0618735   0.0504855
            7           8           9          10          11          12
    1   0.0685817  -0.0287753  -0.0191510  -0.0049259  -0.0196275   0.0187877
    2   0.0050406  -0.0206047   0.0071246   0.0786093   0.0052676  -0.0114882
    3  -0.0075480  -0.0187064  -0.0769022   0.0490737   0.0682827  -0.0752872
           13          14          15          16          17          18
    1   0.0523754  -0.0478171  -0.0283743   0.0483903   0.0432094  -0.0184857
    2   0.0213502   0.0357896  -0.0534119   0.0197591   0.0535531  -0.0548445
    3   0.0398335   0.0057955   0.0190649  -0.0183336   0.0271815  -0.0337805
 Max gradient component =       9.260E-02
 RMS gradient           =       4.104E-02
 Computing fast CPCM-ISWIG gradient
 Updating gradient with PCM contributions...
 -- total gradient after adding PCM contribution --
---------------------------------------------------
  Atom         X              Y              Z     
---------------------------------------------------
   1      -0.001037       0.000005       0.000044
   2       0.000189       0.000013       0.000011
   3      -0.000013      -0.000004       0.000021
   4      -0.000036      -0.000003       0.000009
   5       0.000129      -0.000077       0.000022
   6       0.000188       0.000078      -0.000229
   7       0.000559      -0.000019       0.000135
   8       0.000030       0.000029       0.000001
   9       0.000012      -0.000021      -0.000013
  10      -0.000006       0.000005      -0.000016
  11      -0.000002      -0.000009       0.000007
  12      -0.000015       0.000003       0.000012
  13      -0.000022       0.000004       0.000023
  14      -0.000016       0.000004      -0.000001
  15      -0.000021       0.000005       0.000013
  16       0.000017      -0.000006       0.000032
  17       0.000038      -0.000020      -0.000034
  18       0.000008       0.000014      -0.000038
---------------------------------------------------
 Number of fixed atoms: 0
 Gradient time:  CPU 672.54 s  wall 174.41 s
 ----------------------------------------------------------------
             Standard Nuclear Orientation (Angstroms)
    I     Atom           X                Y                Z
 ----------------------------------------------------------------
    1      C       0.3664798086     1.1561214269     0.0576796022
    2      C       0.6103403639     2.1821852350     1.1785385633
    3      O       0.8536359525     1.7702106422     2.3390190511
    4      O       0.5158348236     3.3895186453     0.8302451536
    5      C       0.7381808247    -0.2624169251     0.3842074386
    6      H       0.9123317701     1.4772212765    -0.8303019788
    7      H      -0.6983935773     1.2147433095    -0.1887039180
    8      O      -0.9401830427    -0.9219601564     0.8863847027
    9      H       1.0760411798    -0.5082898414     1.3727615738
   10      H       0.8723760000    -0.9834364555    -0.4028092221
   11      C      -1.7905787909    -1.4318303269     0.0668228704
   12      C      -1.4291315815    -1.4934214626    -1.4080526205
   13      H      -2.2937753840    -1.8166168073    -1.9869695112
   14      H      -0.6142611693    -2.2087824430    -1.5569018239
   15      H      -1.0859977279    -0.5210599520    -1.7699473274
   16      O      -2.8842624046    -1.8808842616     0.4440941846
   17      O       2.7892126674     0.0279660175     0.0325006075
   18      H       3.0021502878     0.8117320784     0.5514326541
 ----------------------------------------------------------------
 Nuclear Repulsion Energy =   527.5544564748 hartrees
 There are       40 alpha and       40 beta electrons
 Discretize the solute cavity surface with Lebedev spheres
	Using 110 Lebedev grid points for each H atom
	Using 110 Lebedev grid points for other atoms
	Atomic van der Waals radii will be scaled by 1.20
 Remove points where switching function is < 1.0e-08
 Keep 1082 surface tesserae and discard 898 interior tesserae
 Molecular Surface Area = 194.435 Angst**2
 Requested basis set is def2-TZVPD
 There are 175 shells and 457 basis functions
 A cutoff of  1.0D-14 yielded  13978 shell pairs
 There are     95378 function pairs (    121242 Cartesian)
 Smallest overlap matrix eigenvalue = 3.33E-06
 Guess MOs from SCF MO coefficient file
 Reading MOs from coefficient file
 Reading MOs from coefficient file
 Long-range K will be added via erf
 Coulomb attenuation parameter = 0.3 bohr**(-1)
 A restricted hybrid HF-DFT SCF calculation will be
 performed using Pulay DIIS extrapolation
 Polarizable Continuum solvation model will be applied
 Exchange:     0.1670 Hartree-Fock + 1.0000 wB97X-V + LR-HF
 Correlation:  1.0000 wB97X-V
 Using SG-2 standard quadrature grid
 Nonlocal Correlation:  VV10 with C = 0.0100 and b = 6.00
 Grid used for NLC:  SG-1 standard quadrature
 SCF converges when DIIS error is below 1.0E-08
Using Q-Chem read-in guess as SCF_GUESS READ specified.

 using 4 threads for integral computing
 -------------------------------------------------------
 OpenMP Integral computing Module                
 Release: version 1.0, May 2013, Q-Chem Inc. Pittsburgh 
 -------------------------------------------------------
 using 4 threads for integral computing
 -------------------------------------------------------
 OpenMP Integral computing Module                
 Release: version 1.0, May 2013, Q-Chem Inc. Pittsburgh 
 -------------------------------------------------------
 -------------------------------------------------------
 OpenMP BLAS3 based DFT computing Module                
 Release: version 1.0, May 2013, Q-Chem Inc. Pittsburgh 
 -------------------------------------------------------
 -------------------------------------------------------
 OpenMP BLAS3 based DFT computing Module                
 Release: version 1.0, May 2013, Q-Chem Inc. Pittsburgh 
 -------------------------------------------------------
 -------------------------------------------------------
 OpenMP BLAS3 based DFT computing Module                
 Release: version 1.0, May 2013, Q-Chem Inc. Pittsburgh 
 -------------------------------------------------------
 ---------------------------------------
  Cycle       Energy         DIIS Error
 ---------------------------------------
    1    -571.4551469900      3.81E-04
    2    -571.7588418859      4.10E-04
    3    -571.7648736277      1.91E-04
    4    -571.7658703621      1.38E-04
    5    -571.7665284326      1.04E-04
    6    -571.7668692822      8.09E-05
    7    -571.7671381023      5.72E-05
    8    -571.7673179970      3.28E-05
    9    -571.7673950149      1.21E-05
   10    -571.7674055305      4.24E-06
   11    -571.7674069723      5.44E-07
   12    -571.7674069958      8.69E-08
   13    -571.7674069963      3.17E-08
   14    -571.7674069964      1.91E-08
   15    -571.7674069964      7.27E-09 Convergence criterion met
 ---------------------------------------

************** Final PCM Free Energy Summary **************
 G_electrostatic  =      -0.31221092 hartree =    -195.91530726 kcal/mol
 G_cavitation     =       0.00000000 hartree =       0.00000000 kcal/mol
 G_dispersion     =       0.00000000 hartree =       0.00000000 kcal/mol
 G_repulsion      =       0.00000000 hartree =       0.00000000 kcal/mol
 --------------------------------------------------
 Non-electrostatic Free Energy =       0.00000000 hartree =       0.00000000 kcal/mol
 Total                         =      -0.31221092 hartree =    -195.91530726 kcal/mol
 --------------------------------------------------
 SCF Energy (H0 + V/2)                       =    -571.76740700 
 Solute Internal Energy (H0)                 =    -571.45519608 
 Total Free Energy (H0 + V/2 + non-elec)     =    -571.76740700 hartree
                                             = -358789.46309936 kcal/mol
***********************************************************

 SCF time:  CPU 3049.28 s  wall 792.35 s
 SCF   energy in the final basis set = -571.76740700
 Total energy in the final basis set = -571.76740700
 
 --------------------------------------------------------------
 
                    Orbital Energies (a.u.)
 --------------------------------------------------------------
 
 Alpha MOs
 -- Occupied --
-19.183 -19.161 -19.142 -19.139 -19.108 -10.367 -10.343 -10.324
-10.255 -10.252  -1.176  -1.145  -1.082  -1.051  -0.992  -0.884
 -0.851  -0.751  -0.633  -0.612  -0.581  -0.567  -0.555  -0.540
 -0.534  -0.528  -0.498  -0.493  -0.477  -0.464  -0.459  -0.453
 -0.388  -0.372  -0.357  -0.348  -0.338  -0.332  -0.324  -0.312
 -- Virtual --
  0.059   0.071   0.079   0.083   0.099   0.102   0.105   0.112
  0.123   0.127   0.135   0.136   0.138   0.140   0.151   0.157
  0.160   0.165   0.173   0.182   0.185   0.203   0.207   0.214
  0.222   0.230   0.235   0.236   0.245   0.253   0.257   0.259
  0.271   0.274   0.280   0.292   0.305   0.310   0.313   0.320
  0.326   0.331   0.339   0.346   0.349   0.350   0.362   0.370
  0.372   0.381   0.389   0.390   0.396   0.404   0.407   0.412
  0.418   0.425   0.426   0.437   0.439   0.443   0.445   0.453
  0.463   0.472   0.475   0.477   0.484   0.490   0.494   0.497
  0.500   0.514   0.517   0.525   0.530   0.536   0.542   0.557
  0.563   0.567   0.570   0.574   0.575   0.582   0.583   0.595
  0.605   0.610   0.615   0.623   0.630   0.637   0.643   0.652
  0.658   0.665   0.668   0.675   0.680   0.687   0.691   0.697
  0.703   0.714   0.716   0.720   0.729   0.738   0.742   0.745
  0.756   0.767   0.776   0.780   0.784   0.794   0.799   0.809
  0.818   0.824   0.832   0.837   0.840   0.848   0.850   0.855
  0.862   0.868   0.879   0.885   0.900   0.905   0.914   0.926
  0.940   0.956   0.963   0.972   0.978   0.989   1.006   1.022
  1.024   1.045   1.051   1.055   1.060   1.090   1.093   1.099
  1.124   1.134   1.151   1.165   1.178   1.183   1.198   1.210
  1.223   1.231   1.258   1.273   1.280   1.301   1.304   1.317
  1.325   1.348   1.363   1.376   1.382   1.388   1.404   1.422
  1.435   1.450   1.456   1.476   1.488   1.504   1.520   1.522
  1.551   1.598   1.630   1.642   1.683   1.748   1.805   1.813
  1.838   1.860   1.868   1.877   1.906   1.911   1.918   1.935
  1.942   1.952   1.960   1.975   1.982   1.990   1.999   2.005
  2.025   2.037   2.044   2.062   2.082   2.113   2.129   2.139
  2.167   2.182   2.200   2.215   2.226   2.229   2.256   2.267
  2.284   2.286   2.314   2.327   2.357   2.365   2.383   2.408
  2.418   2.449   2.459   2.475   2.496   2.505   2.514   2.522
  2.547   2.575   2.603   2.620   2.634   2.641   2.668   2.690
  2.713   2.743   2.777   2.806   2.838   2.841   2.852   2.892
  2.903   2.906   2.926   2.957   2.967   2.987   3.014   3.033
  3.057   3.068   3.101   3.106   3.135   3.138   3.154   3.170
  3.190   3.211   3.235   3.242   3.248   3.288   3.299   3.314
  3.318   3.333   3.353   3.356   3.377   3.383   3.412   3.420
  3.432   3.447   3.467   3.479   3.492   3.507   3.532   3.547
  3.577   3.586   3.598   3.609   3.626   3.640   3.654   3.661
  3.673   3.695   3.706   3.713   3.718   3.729   3.757   3.766
  3.800   3.816   3.827   3.879   3.901   3.939   3.984   4.029
  4.074   4.095   4.109   4.132   4.149   4.201   4.233   4.234
  4.311   4.330   4.393   4.474   4.523   4.563   4.630   4.682
  4.692   4.698   4.749   4.823   4.832   4.874   4.929   5.031
  5.068   5.088   5.227   5.320   5.329   5.356   5.362   5.367
  5.382   5.384   5.413   5.433   5.446   5.488   5.511   5.519
  5.555   5.659   5.703   5.714   5.720   5.735   5.774   5.791
  5.829   6.013   6.070   6.201   6.255   6.305   6.315   6.340
  6.424   6.456   6.608   6.632   6.636   6.644   6.702   6.720
  6.736   6.752   6.758   6.772   6.782   6.797   6.914   6.939
  6.970   6.974   7.017   7.023   7.048   7.069   7.240   7.247
  7.308   7.341   7.369   7.405   7.421   7.454   7.546  22.702
 22.798  22.907  23.698  23.766  44.138  44.319  44.428  44.459
 44.482
 --------------------------------------------------------------
 
          Ground-State Mulliken Net Atomic Charges

     Atom                 Charge (a.u.)
  ----------------------------------------
      1 C                     0.010064
      2 C                     0.058612
      3 O                    -0.689923
      4 O                    -0.719220
      5 C                     0.120442
      6 H                     0.185007
      7 H                     0.206185
      8 O                    -0.531963
      9 H                     0.079884
     10 H                     0.180165
     11 C                     0.456593
     12 C                    -0.635889
     13 H                     0.197441
     14 H                     0.255497
     15 H                     0.235978
     16 O                    -0.652970
     17 O                    -0.974155
     18 H                     0.218254
  ----------------------------------------
  Sum of atomic charges =    -2.000000

 -----------------------------------------------------------------
                    Cartesian Multipole Moments
 -----------------------------------------------------------------
    Charge (ESU x 10^10)
                -9.6064
    Dipole Moment (Debye)
         X      -4.7412      Y      -8.0230      Z     -11.7555
       Tot      15.0014
    Quadrupole Moments (Debye-Ang)
        XX    -117.9290     XY     -19.9626     YY    -114.1142
        XZ       3.2581     YZ     -12.5845     ZZ     -85.9387
    Octopole Moments (Debye-Ang^2)
       XXX     -16.5178    XXY      35.0972    XYY       7.0618
       YYY    -180.7649    XXZ     -41.6939    XYZ     -23.2868
       YYZ     -86.4590    XZZ     -10.7089    YZZ     -52.3647
       ZZZ    -133.2593
    Hexadecapole Moments (Debye-Ang^3)
      XXXX   -1579.4216   XXXY    -403.7569   XXYY    -477.8845
      XYYY    -432.8816   YYYY   -1747.5433   XXXZ     -13.0733
      XXYZ     -36.4849   XYYZ     -40.8913   YYYZ    -326.3722
      XXZZ    -291.1352   XYZZ    -137.0765   YYZZ    -377.6005
      XZZZ    -105.3745   YZZZ    -279.1433   ZZZZ    -645.7965
 -----------------------------------------------------------------
 Calculating analytic gradient of the SCF energy
 Gradient of SCF Energy
            1           2           3           4           5           6
    1  -0.0173152  -0.0075841  -0.0170807   0.0044934   0.0106179  -0.0366664
    2  -0.0092436   0.0451052   0.0171850  -0.0604046  -0.0503691  -0.0284711
    3  -0.0929009   0.0545880  -0.0588935   0.0056986   0.0618520   0.0510139
            7           8           9          10          11          12
    1   0.0679434  -0.0287697  -0.0191256  -0.0049720  -0.0196179   0.0187763
    2   0.0051002  -0.0206325   0.0071333   0.0786162   0.0052899  -0.0115163
    3  -0.0075909  -0.0187086  -0.0768913   0.0490659   0.0682967  -0.0752976
           13          14          15          16          17          18
    1   0.0523753  -0.0478167  -0.0283667   0.0483856   0.0432131  -0.0184901
    2   0.0213513   0.0357933  -0.0533989   0.0197587   0.0535521  -0.0548493
    3   0.0398344   0.0057961   0.0190663  -0.0183318   0.0271805  -0.0337778
 Max gradient component =       9.290E-02
 RMS gradient           =       4.105E-02
 Computing fast CPCM-ISWIG gradient
 Updating gradient with PCM contributions...
 -- total gradient after adding PCM contribution --
---------------------------------------------------
  Atom         X              Y              Z     
---------------------------------------------------
   1      -0.000005       0.000977      -0.000091
   2      -0.000008      -0.000213      -0.000075
   3       0.000031       0.000009       0.000003
   4      -0.000008      -0.000101      -0.000040
   5       0.000091      -0.000410       0.000046
   6      -0.000100      -0.000131       0.000113
   7       0.000024      -0.000087       0.000019
   8      -0.000003      -0.000028       0.000015
   9       0.000021      -0.000010      -0.000012
  10       0.000006      -0.000014      -0.000004
  11       0.000010      -0.000008       0.000021
  12      -0.000015       0.000003       0.000012
  13      -0.000022       0.000004       0.000023
  14      -0.000016       0.000004      -0.000001
  15      -0.000022       0.000004       0.000012
  16       0.000008      -0.000007       0.000030
  17       0.000002      -0.000007      -0.000032
  18       0.000007       0.000016      -0.000038
---------------------------------------------------
 Number of fixed atoms: 0
 Gradient time:  CPU 672.63 s  wall 174.37 s
 ----------------------------------------------------------------
             Standard Nuclear Orientation (Angstroms)
    I     Atom           X                Y                Z
 ----------------------------------------------------------------
    1      C       0.3664798086     1.1541214269     0.0576796022
    2      C       0.6103403639     2.1821852350     1.1785385633
    3      O       0.8536359525     1.7702106422     2.3390190511
    4      O       0.5158348236     3.3895186453     0.8302451536
    5      C       0.7381808247    -0.2624169251     0.3842074386
    6      H       0.9123317701     1.4772212765    -0.8303019788
    7      H      -0.6983935773     1.2147433095    -0.1887039180
    8      O      -0.9401830427    -0.9219601564     0.8863847027
    9      H       1.0760411798    -0.5082898414     1.3727615738
   10      H       0.8723760000    -0.9834364555    -0.4028092221
   11      C      -1.7905787909    -1.4318303269     0.0668228704
   12      C      -1.4291315815    -1.4934214626    -1.4080526205
   13      H      -2.2937753840    -1.8166168073    -1.9869695112
   14      H      -0.6142611693    -2.2087824430    -1.5569018239
   15      H      -1.0859977279    -0.5210599520    -1.7699473274
   16      O      -2.8842624046    -1.8808842616     0.4440941846
   17      O       2.7892126674     0.0279660175     0.0325006075
   18      H       3.0021502878     0.8117320784     0.5514326541
 ----------------------------------------------------------------
 Nuclear Repulsion Energy =   527.5660511802 hartrees
 There are       40 alpha and       40 beta electrons
 Discretize the solute cavity surface with Lebedev spheres
	Using 110 Lebedev grid points for each H atom
	Using 110 Lebedev grid points for other atoms
	Atomic van der Waals radii will be scaled by 1.20
 Remove points where switching function is < 1.0e-08
 Keep 1082 surface tesserae and discard 898 interior tesserae
 Molecular Surface Area = 194.436 Angst**2
 Requested basis set is def2-TZVPD
 There are 175 shells and 457 basis functions
 A cutoff of  1.0D-14 yielded  13978 shell pairs
 There are     95378 function pairs (    121242 Cartesian)
 Smallest overlap matrix eigenvalue = 3.31E-06
 Guess MOs from SCF MO coefficient file
 Reading MOs from coefficient file
 Reading MOs from coefficient file
 Long-range K will be added via erf
 Coulomb attenuation parameter = 0.3 bohr**(-1)
 A restricted hybrid HF-DFT SCF calculation will be
 performed using Pulay DIIS extrapolation
 Polarizable Continuum solvation model will be applied
 Exchange:     0.1670 Hartree-Fock + 1.0000 wB97X-V + LR-HF
 Correlation:  1.0000 wB97X-V
 Using SG-2 standard quadrature grid
 Nonlocal Correlation:  VV10 with C = 0.0100 and b = 6.00
 Grid used for NLC:  SG-1 standard quadrature
 SCF converges when DIIS error is below 1.0E-08
Using Q-Chem read-in guess as SCF_GUESS READ specified.

 using 4 threads for integral computing
 -------------------------------------------------------
 OpenMP Integral computing Module                
 Release: version 1.0, May 2013, Q-Chem Inc. Pittsburgh 
 -------------------------------------------------------
 using 4 threads for integral computing
 -------------------------------------------------------
 OpenMP Integral computing Module                
 Release: version 1.0, May 2013, Q-Chem Inc. Pittsburgh 
 -------------------------------------------------------
 -------------------------------------------------------
 OpenMP BLAS3 based DFT computing Module                
 Release: version 1.0, May 2013, Q-Chem Inc. Pittsburgh 
 -------------------------------------------------------
 -------------------------------------------------------
 OpenMP BLAS3 based DFT computing Module                
 Release: version 1.0, May 2013, Q-Chem Inc. Pittsburgh 
 -------------------------------------------------------
 -------------------------------------------------------
 OpenMP BLAS3 based DFT computing Module                
 Release: version 1.0, May 2013, Q-Chem Inc. Pittsburgh 
 -------------------------------------------------------
 ---------------------------------------
  Cycle       Energy         DIIS Error
 ---------------------------------------
    1    -571.4551293288      3.82E-04
    2    -571.7588147691      4.11E-04
    3    -571.7648719566      1.91E-04
    4    -571.7658740390      1.38E-04
    5    -571.7665467990      1.03E-04
    6    -571.7669141346      7.74E-05
    7    -571.7672145252      4.84E-05
    8    -571.7673662236      2.21E-05
    9    -571.7674040980      5.91E-06
   10    -571.7674067326      1.80E-06
   11    -571.7674069875      2.15E-07
   12    -571.7674069914      5.27E-08
   13    -571.7674069916      2.93E-08
   14    -571.7674069917      1.34E-08
   15    -571.7674069917      4.01E-09 Convergence criterion met
 ---------------------------------------

************** Final PCM Free Energy Summary **************
 G_electrostatic  =      -0.31220062 hartree =    -195.90884459 kcal/mol
 G_cavitation     =       0.00000000 hartree =       0.00000000 kcal/mol
 G_dispersion     =       0.00000000 hartree =       0.00000000 kcal/mol
 G_repulsion      =       0.00000000 hartree =       0.00000000 kcal/mol
 --------------------------------------------------
 Non-electrostatic Free Energy =       0.00000000 hartree =       0.00000000 kcal/mol
 Total                         =      -0.31220062 hartree =    -195.90884459 kcal/mol
 --------------------------------------------------
 SCF Energy (H0 + V/2)                       =    -571.76740699 
 Solute Internal Energy (H0)                 =    -571.45520637 
 Total Free Energy (H0 + V/2 + non-elec)     =    -571.76740699 hartree
                                             = -358789.46309640 kcal/mol
***********************************************************

 SCF time:  CPU 3048.84 s  wall 792.24 s
 SCF   energy in the final basis set = -571.76740699
 Total energy in the final basis set = -571.76740699
 
 --------------------------------------------------------------
 
                    Orbital Energies (a.u.)
 --------------------------------------------------------------
 
 Alpha MOs
 -- Occupied --
-19.183 -19.161 -19.142 -19.139 -19.108 -10.367 -10.343 -10.324
-10.255 -10.252  -1.176  -1.145  -1.082  -1.051  -0.992  -0.885
 -0.851  -0.751  -0.633  -0.612  -0.581  -0.567  -0.555  -0.540
 -0.534  -0.529  -0.498  -0.493  -0.477  -0.464  -0.459  -0.453
 -0.388  -0.372  -0.357  -0.348  -0.338  -0.332  -0.324  -0.312
 -- Virtual --
  0.059   0.071   0.079   0.083   0.099   0.102   0.105   0.112
  0.123   0.127   0.135   0.136   0.138   0.140   0.151   0.157
  0.160   0.165   0.173   0.182   0.185   0.203   0.207   0.214
  0.222   0.230   0.235   0.236   0.245   0.253   0.257   0.259
  0.271   0.274   0.280   0.292   0.305   0.310   0.313   0.320
  0.326   0.331   0.339   0.346   0.349   0.350   0.362   0.370
  0.372   0.381   0.389   0.390   0.396   0.404   0.407   0.412
  0.418   0.425   0.427   0.437   0.439   0.443   0.445   0.453
  0.463   0.472   0.475   0.477   0.484   0.490   0.494   0.497
  0.500   0.514   0.517   0.525   0.530   0.536   0.542   0.557
  0.563   0.567   0.570   0.574   0.575   0.582   0.583   0.595
  0.604   0.610   0.615   0.623   0.630   0.637   0.643   0.652
  0.658   0.665   0.668   0.675   0.680   0.687   0.691   0.696
  0.703   0.714   0.716   0.720   0.729   0.738   0.742   0.745
  0.756   0.767   0.776   0.780   0.784   0.794   0.799   0.809
  0.818   0.824   0.832   0.837   0.840   0.848   0.850   0.855
  0.862   0.868   0.879   0.885   0.900   0.905   0.914   0.926
  0.940   0.956   0.963   0.972   0.978   0.989   1.006   1.022
  1.024   1.045   1.051   1.055   1.060   1.090   1.093   1.099
  1.124   1.134   1.151   1.165   1.178   1.183   1.198   1.210
  1.223   1.231   1.258   1.273   1.280   1.301   1.304   1.317
  1.325   1.348   1.363   1.377   1.382   1.388   1.404   1.422
  1.435   1.450   1.456   1.476   1.488   1.504   1.520   1.523
  1.551   1.598   1.630   1.642   1.683   1.748   1.805   1.813
  1.838   1.860   1.868   1.877   1.906   1.911   1.918   1.935
  1.942   1.952   1.960   1.975   1.982   1.990   1.999   2.005
  2.025   2.037   2.044   2.062   2.082   2.113   2.129   2.139
  2.167   2.182   2.200   2.215   2.227   2.229   2.256   2.267
  2.285   2.286   2.313   2.327   2.357   2.365   2.383   2.408
  2.418   2.449   2.459   2.475   2.496   2.505   2.514   2.522
  2.547   2.575   2.603   2.620   2.634   2.641   2.668   2.690
  2.713   2.743   2.778   2.806   2.839   2.841   2.852   2.892
  2.903   2.906   2.926   2.957   2.967   2.987   3.014   3.033
  3.057   3.068   3.101   3.105   3.135   3.138   3.154   3.170
  3.190   3.211   3.235   3.242   3.248   3.288   3.299   3.314
  3.318   3.333   3.353   3.356   3.377   3.383   3.413   3.420
  3.432   3.447   3.466   3.480   3.493   3.507   3.532   3.547
  3.577   3.586   3.598   3.609   3.626   3.641   3.654   3.661
  3.674   3.695   3.706   3.713   3.718   3.729   3.757   3.766
  3.800   3.816   3.827   3.879   3.901   3.939   3.985   4.029
  4.074   4.095   4.109   4.132   4.149   4.202   4.233   4.235
  4.312   4.330   4.393   4.474   4.523   4.563   4.630   4.682
  4.692   4.698   4.749   4.824   4.832   4.874   4.930   5.031
  5.068   5.088   5.227   5.320   5.329   5.356   5.362   5.367
  5.382   5.384   5.414   5.433   5.446   5.488   5.511   5.520
  5.555   5.659   5.703   5.714   5.720   5.735   5.774   5.791
  5.829   6.013   6.070   6.201   6.255   6.304   6.315   6.340
  6.424   6.456   6.608   6.632   6.636   6.644   6.702   6.720
  6.736   6.752   6.759   6.772   6.782   6.797   6.914   6.939
  6.970   6.974   7.017   7.023   7.048   7.069   7.240   7.247
  7.308   7.341   7.369   7.405   7.421   7.454   7.546  22.702
 22.799  22.907  23.697  23.765  44.138  44.318  44.427  44.459
 44.482
 --------------------------------------------------------------
 
          Ground-State Mulliken Net Atomic Charges

     Atom                 Charge (a.u.)
  ----------------------------------------
      1 C                     0.008901
      2 C                     0.059034
      3 O                    -0.689836
      4 O                    -0.719223
      5 C                     0.121719
      6 H                     0.184635
      7 H                     0.206381
      8 O                    -0.531984
      9 H                     0.079650
     10 H                     0.179912
     11 C                     0.456490
     12 C                    -0.635812
     13 H                     0.197450
     14 H                     0.255467
     15 H                     0.235997
     16 O                    -0.652965
     17 O                    -0.974102
     18 H                     0.218288
  ----------------------------------------
  Sum of atomic charges =    -2.000000

 -----------------------------------------------------------------
                    Cartesian Multipole Moments
 -----------------------------------------------------------------
    Charge (ESU x 10^10)
                -9.6064
    Dipole Moment (Debye)
         X      -4.7405      Y      -8.0212      Z     -11.7540
       Tot      14.9989
    Quadrupole Moments (Debye-Ang)
        XX    -117.9285     XY     -19.9629     YY    -114.1043
        XZ       3.2592     YZ     -12.5813     ZZ     -85.9401
    Octopole Moments (Debye-Ang^2)
       XXX     -16.5105    XXY      35.1086    XYY       7.0670
       YYY    -180.6869    XXZ     -41.6933    XYZ     -23.2849
       YYZ     -86.4454    XZZ     -10.7091    YZZ     -52.3530
       ZZZ    -133.2566
    Hexadecapole Moments (Debye-Ang^3)
      XXXX   -1579.4091   XXXY    -403.7500   XXYY    -477.8562
      XYYY    -432.8491   YYYY   -1747.1971   XXXZ     -13.0736
      XXYZ     -36.4827   XYYZ     -40.8823   YYYZ    -326.3101
      XXZZ    -291.1384   XYZZ    -137.0743   YYZZ    -377.5600
      XZZZ    -105.3742   YZZZ    -279.1357   ZZZZ    -645.8148
 -----------------------------------------------------------------
 Calculating analytic gradient of the SCF energy
 Gradient of SCF Energy
            1           2           3           4           5           6
    1  -0.0173702  -0.0075318  -0.0170713   0.0044926   0.0103935  -0.0364650
    2  -0.0104765   0.0454903   0.0171457  -0.0603529  -0.0495387  -0.0284373
    3  -0.0927704   0.0548539  -0.0588788   0.0057385   0.0619075   0.0506158
            7           8           9          10          11          12
    1   0.0678972  -0.0287696  -0.0191023  -0.0049241  -0.0196238   0.0187875
    2   0.0050786  -0.0206254   0.0071594   0.0785737   0.0052710  -0.0114847
    3  -0.0076598  -0.0187111  -0.0769073   0.0490563   0.0682878  -0.0752820
           13          14          15          16          17          18
    1   0.0523752  -0.0478212  -0.0283702   0.0483869   0.0432062  -0.0184896
    2   0.0213476   0.0357857  -0.0534071   0.0197601   0.0535586  -0.0548480
    3   0.0398317   0.0057934   0.0190597  -0.0183329   0.0271677  -0.0337699
 Max gradient component =       9.277E-02
 RMS gradient           =       4.103E-02
 Computing fast CPCM-ISWIG gradient
 Updating gradient with PCM contributions...
 -- total gradient after adding PCM contribution --
---------------------------------------------------
  Atom         X              Y              Z     
---------------------------------------------------
   1       0.000005      -0.000981       0.000094
   2       0.000032       0.000205       0.000076
[...]
 H          0.086  0.004 -0.384   -0.002 -0.004 -0.031    0.005  0.003 -0.034
 H          0.080 -0.030 -0.339   -0.003 -0.003 -0.035   -0.011  0.006  0.017
 O         -0.271 -0.129 -0.005   -0.010 -0.005  0.002    0.003 -0.002  0.000
 O         -0.028 -0.007  0.009    0.015 -0.007 -0.001    0.003  0.001  0.001
 H         -0.032 -0.008  0.012   -0.036  0.007  0.001    0.017  0.002 -0.006
 TransDip  -0.226 -0.085  0.098    0.314  0.104  0.004    0.050 -0.095  0.055

 Mode:                25                     26                     27
 Frequency:      1024.72                1063.08                1096.62
 Force Cnst:      0.9069                 1.2753                 1.6949
 Red. Mass:       1.4660                 1.9153                 2.3922
 IR Active:          YES                    YES                    YES
 IR Intens:       46.963                 14.411                  6.006
 Raman Active:       YES                    YES                    YES
               X      Y      Z        X      Y      Z        X      Y      Z
 C          0.010 -0.007  0.010   -0.002  0.000 -0.012   -0.065  0.210 -0.148
 C         -0.005  0.000  0.000   -0.004  0.001  0.003   -0.006 -0.015 -0.003
 O          0.001  0.001 -0.003    0.002 -0.001  0.005    0.005  0.004  0.021
 O          0.001 -0.001  0.002    0.000  0.000 -0.001   -0.001 -0.034 -0.007
 C         -0.015  0.008 -0.004    0.003  0.001  0.009    0.069 -0.151  0.157
 H         -0.008 -0.022 -0.005   -0.004 -0.029 -0.024   -0.073  0.359 -0.104
 H          0.009 -0.030  0.009   -0.005  0.019  0.002   -0.102  0.357  0.012
 O         -0.019 -0.024 -0.069    0.013 -0.034  0.002   -0.001 -0.001 -0.011
 H         -0.185 -0.010  0.051    0.006 -0.039 -0.001    0.228 -0.706 -0.023
 H         -0.004 -0.002  0.007   -0.033  0.015 -0.010   -0.167 -0.035 -0.008
 C          0.000  0.011  0.035   -0.090  0.199 -0.032   -0.001 -0.010 -0.009
 C          0.147  0.066  0.026    0.064 -0.155  0.031    0.010  0.013  0.005
 H         -0.252 -0.035  0.667   -0.133  0.354  0.039   -0.017 -0.029  0.069
 H         -0.125 -0.166 -0.321    0.150  0.107 -0.621   -0.022 -0.025  0.009
 H         -0.128 -0.036 -0.500   -0.277  0.153  0.500   -0.001 -0.004 -0.050
 O         -0.051 -0.019  0.031    0.024 -0.037  0.003   -0.009 -0.002  0.004
 O          0.008  0.002 -0.004    0.001  0.000 -0.000    0.007  0.004 -0.001
 H          0.001  0.002 -0.001    0.002  0.000 -0.000    0.032  0.001 -0.008
 TransDip   0.164  0.114  0.091   -0.041  0.114 -0.006    0.030 -0.067 -0.026

 Mode:                28                     29                     30
 Frequency:      1131.34                1194.29                1226.63
 Force Cnst:      0.7889                 0.9547                 1.0128
 Red. Mass:       1.0462                 1.1360                 1.1424
 IR Active:          YES                    YES                    YES
 IR Intens:        1.840                 83.185                130.113
 Raman Active:       YES                    YES                    YES
               X      Y      Z        X      Y      Z        X      Y      Z
 C         -0.008  0.010 -0.018    0.015 -0.002 -0.008    0.002  0.001  0.006
 C          0.001  0.000  0.000   -0.034 -0.002  0.005   -0.081  0.004  0.018
 O          0.001 -0.001  0.005    0.006 -0.001  0.003    0.013  0.001 -0.002
 O         -0.001 -0.001 -0.001    0.005  0.001 -0.002    0.013 -0.009 -0.000
 C         -0.002 -0.010  0.001    0.009 -0.012  0.005    0.027  0.003 -0.024
 H          0.004 -0.027 -0.022    0.000 -0.158 -0.075    0.044 -0.622 -0.194
 H         -0.011  0.025 -0.008   -0.001  0.237  0.108   -0.017  0.655  0.219
 O         -0.000  0.007  0.030   -0.029  0.004  0.025    0.002 -0.003 -0.019
 H         -0.557 -0.266  0.127    0.655  0.217 -0.157   -0.182 -0.024  0.040
 H          0.689  0.296 -0.169    0.555  0.192 -0.095   -0.167 -0.110  0.048
 C          0.005  0.006  0.025   -0.027 -0.019 -0.068    0.024  0.013  0.042
 C         -0.009 -0.008 -0.019    0.019  0.009  0.010   -0.009 -0.001 -0.010
 H          0.002  0.015 -0.050   -0.074 -0.003  0.156    0.033 -0.023 -0.062
 H          0.019  0.022 -0.001   -0.027 -0.039  0.018    0.002  0.006  0.002
 H          0.016 -0.007  0.007   -0.037  0.017 -0.011    0.025 -0.007  0.002
 O          0.003  0.001 -0.005   -0.005 -0.002  0.013    0.001  0.000 -0.005
 O          0.000 -0.006 -0.013   -0.028 -0.011  0.006    0.014  0.003 -0.001
 H         -0.062 -0.003  0.006   -0.048 -0.010  0.013    0.024  0.003 -0.004
 TransDip  -0.042 -0.011  0.005   -0.230 -0.140 -0.114    0.304  0.193  0.065

 Mode:                31                     32                     33
 Frequency:      1333.38                1368.11                1413.53
 Force Cnst:      1.7659                 1.5529                 1.4526
 Red. Mass:       1.6859                 1.4082                 1.2339
 IR Active:          YES                    YES                    YES
 IR Intens:       45.202                 66.324                 99.491
 Raman Active:       YES                    YES                    YES
               X      Y      Z        X      Y      Z        X      Y      Z
 C         -0.006  0.175  0.063   -0.009  0.010  0.004   -0.021 -0.038 -0.072
 C          0.017  0.080  0.045    0.001  0.009  0.007    0.008  0.024  0.057
 O         -0.011  0.012 -0.045   -0.001  0.001 -0.006   -0.008  0.009 -0.040
 O          0.003 -0.095  0.016    0.000 -0.009  0.001    0.001 -0.013  0.002
 C         -0.013 -0.021 -0.042    0.014  0.012 -0.015   -0.025  0.078 -0.015
 H         -0.051 -0.549 -0.236    0.048 -0.097  0.000    0.514  0.014  0.296
 H          0.029 -0.538 -0.258   -0.013 -0.043  0.016   -0.156 -0.131  0.558
 O         -0.009 -0.003 -0.004    0.053  0.030  0.053   -0.001 -0.003 -0.002
 H          0.099 -0.110 -0.100   -0.173 -0.076  0.025    0.085 -0.333 -0.156
 H          0.209 -0.295  0.232   -0.100 -0.079  0.050    0.126 -0.193  0.258
 C          0.003  0.005  0.010   -0.021 -0.028 -0.101    0.002  0.003  0.002
 C         -0.006 -0.002  0.009    0.047  0.000 -0.105   -0.007  0.001  0.004
 H          0.013  0.011 -0.029   -0.279 -0.009  0.400   -0.003 -0.025  0.015
 H          0.025  0.045 -0.048   -0.053 -0.228  0.531    0.028  0.050 -0.049
 H          0.034 -0.032 -0.037   -0.216  0.282  0.444    0.073 -0.034 -0.016
 O          0.004  0.001 -0.001   -0.030 -0.011  0.017   -0.001 -0.000  0.000
 O         -0.006  0.000  0.002    0.002  0.001 -0.000   -0.001 -0.002  0.001
 H          0.004 -0.002 -0.001    0.005  0.001 -0.002   -0.009  0.003 -0.004
 TransDip   0.011  0.212  0.035   -0.232 -0.092 -0.076    0.128  0.025  0.292

 Mode:                34                     35                     36
 Frequency:      1429.05                1432.88                1441.65
 Force Cnst:      1.7087                 3.7906                 4.2642
 Red. Mass:       1.4201                 3.1335                 3.4823
 IR Active:          YES                    YES                    YES
 IR Intens:      139.451                677.668                 82.783
 Raman Active:       YES                    YES                    YES
               X      Y      Z        X      Y      Z        X      Y      Z
 C         -0.028  0.088 -0.026   -0.007 -0.039 -0.067   -0.005  0.131  0.020
 C         -0.005 -0.007 -0.019    0.033  0.185  0.159   -0.030 -0.187 -0.173
 O          0.003 -0.002  0.011   -0.024  0.023 -0.114    0.025 -0.022  0.119
 O         -0.000 -0.001 -0.001    0.006 -0.133  0.021   -0.007  0.128 -0.020
 C          0.038 -0.095  0.000    0.002 -0.092  0.044   -0.026 -0.044 -0.009
 H          0.391 -0.221  0.127    0.088  0.172  0.066    0.323 -0.210  0.112
 H         -0.124 -0.259  0.343   -0.047  0.006  0.108   -0.082 -0.379  0.273
 O          0.032  0.022  0.040   -0.073 -0.040 -0.081   -0.083 -0.049 -0.091
 H         -0.180  0.421  0.209    0.105  0.455  0.155    0.183  0.153 -0.031
 H         -0.199  0.217 -0.333   -0.116  0.391 -0.420    0.115 -0.032  0.001
 C         -0.037 -0.027 -0.086    0.058  0.051  0.190    0.056  0.051  0.219
 C          0.004  0.015  0.056    0.010 -0.020 -0.099    0.007 -0.033 -0.115
 H          0.133 -0.051 -0.108   -0.135  0.083  0.064   -0.233  0.197  0.123
 H         -0.118 -0.080 -0.163    0.066 -0.038  0.305    0.187  0.072  0.391
 H         -0.070 -0.022 -0.104   -0.076  0.121  0.187   -0.032  0.090  0.158
 O         -0.004 -0.001  0.009    0.027  0.009 -0.025    0.035  0.012 -0.030
 O          0.001  0.002  0.001   -0.001  0.002  0.000    0.001 -0.001  0.001
 H          0.008  0.001 -0.001    0.018 -0.005  0.002   -0.011  0.005 -0.002
 TransDip  -0.244 -0.199 -0.209    0.295  0.529  0.573    0.221 -0.142  0.126

 Mode:                37                     38                     39
 Frequency:      1459.53                1477.68                1596.67
 Force Cnst:      1.3830                 1.3889                15.2864
 Red. Mass:       1.1019                 1.0796                10.1772
 IR Active:          YES                    YES                    YES
 IR Intens:       49.844                 21.966               1234.901
 Raman Active:       YES                    YES                    YES
               X      Y      Z        X      Y      Z        X      Y      Z
 C         -0.002  0.006 -0.001   -0.001 -0.005 -0.003   -0.007  0.069 -0.024
 C         -0.000  0.005 -0.000    0.000  0.008  0.010    0.122 -0.527  0.549
 O          0.000  0.000 -0.000   -0.001  0.001 -0.007   -0.061  0.117 -0.286
 O          0.000 -0.004  0.001    0.001 -0.006  0.001   -0.023  0.253 -0.089
 C          0.009 -0.018  0.001    0.006  0.001 -0.002    0.013 -0.022  0.019
 H          0.007 -0.015 -0.003    0.006 -0.004  0.003   -0.163 -0.251 -0.225
 H         -0.004 -0.002  0.002   -0.003  0.035  0.018    0.028 -0.107 -0.204
 O          0.010  0.006  0.012    0.011  0.011  0.013   -0.000  0.001 -0.001
 H         -0.050  0.086  0.047   -0.029 -0.009  0.008   -0.004  0.080  0.067
 H         -0.079  0.053 -0.078   -0.034 -0.012  0.007   -0.052  0.099 -0.101
 C          0.019  0.007 -0.049    0.005 -0.030 -0.035    0.005  0.002 -0.003
 C         -0.046 -0.013 -0.019    0.010 -0.047  0.030   -0.001  0.000 -0.000
 H         -0.257 -0.054  0.350   -0.162  0.676 -0.115    0.001 -0.007  0.001
 H          0.384  0.472 -0.052    0.262  0.200  0.315   -0.002 -0.002 -0.001
 H          0.596 -0.201  0.066   -0.278 -0.106 -0.444    0.004  0.003  0.011
 O         -0.033 -0.014  0.017   -0.010 -0.001  0.006   -0.003 -0.001  0.001
 O          0.001  0.001  0.000    0.000  0.000  0.000    0.001 -0.000 -0.002
 H          0.005  0.000 -0.000    0.002 -0.000 -0.000   -0.020 -0.002  0.010
 TransDip   0.189  0.082 -0.093   -0.084  0.083 -0.093    0.177 -0.804  0.768

 Mode:                40                     41                     42
 Frequency:      1627.97                3070.13                3086.51
 Force Cnst:     13.2894                 5.7638                 5.9813
 Red. Mass:       8.5106                 1.0379                 1.0656
 IR Active:          YES                    YES                    YES
 IR Intens:     1162.748                  5.549                 24.989
 Raman Active:       YES                    YES                    YES
               X      Y      Z        X      Y      Z        X      Y      Z
 C          0.008  0.010 -0.002   -0.000 -0.000  0.000   -0.054  0.015 -0.046
 C         -0.001 -0.010 -0.017   -0.000 -0.000 -0.000   -0.001  0.001 -0.000
 O          0.002 -0.000  0.009    0.000 -0.000 -0.000    0.000 -0.000  0.000
 O         -0.001  0.008  0.000    0.000  0.000  0.000    0.000 -0.000  0.000
 C         -0.042 -0.019  0.002   -0.000 -0.000 -0.000   -0.000 -0.001  0.002
 H          0.028  0.045  0.028    0.004  0.002 -0.005   -0.228 -0.125  0.335
 H         -0.009 -0.086  0.029   -0.003 -0.001 -0.001    0.881 -0.039  0.194
 O         -0.060 -0.031 -0.017   -0.000  0.000  0.000    0.000 -0.000  0.000
 H          0.066  0.035 -0.021   -0.001 -0.000 -0.001   -0.002  0.001 -0.005
 H          0.099  0.034 -0.031    0.001  0.004  0.004    0.001 -0.008 -0.012
 C          0.605  0.254 -0.175    0.000 -0.000 -0.002    0.000 -0.000 -0.000
 C         -0.042 -0.013  0.050   -0.028  0.007  0.044    0.000 -0.001  0.000
 H          0.252  0.002 -0.356   -0.359 -0.130 -0.229   -0.001 -0.001 -0.001
 H         -0.182 -0.177  0.066    0.519 -0.459 -0.088   -0.003  0.003  0.001
 H         -0.242  0.091  0.139    0.170  0.502 -0.176    0.005  0.012 -0.004
 O         -0.343 -0.140  0.124   -0.000 -0.000  0.000   -0.000  0.000  0.000
 O          0.004  0.001 -0.000    0.000  0.000  0.000   -0.000  0.000  0.000
 H          0.006  0.002 -0.001   -0.000 -0.000 -0.000    0.001 -0.001 -0.001
 TransDip   0.989  0.436 -0.158   -0.034  0.002  0.067   -0.128  0.063 -0.072

 Mode:                43                     44                     45
 Frequency:      3140.51                3141.13                3172.37
 Force Cnst:      6.3841                 6.3817                 6.5469
 Red. Mass:       1.0986                 1.0978                 1.1041
 IR Active:          YES                    YES                    YES
 IR Intens:       14.993                 12.274                 26.012
 Raman Active:       YES                    YES                    YES
               X      Y      Z        X      Y      Z        X      Y      Z
 C         -0.039 -0.012  0.031    0.057  0.017 -0.043    0.001  0.000 -0.001
 C         -0.000 -0.001  0.000    0.001  0.001 -0.000    0.000  0.000  0.000
 O         -0.000  0.000 -0.000    0.000 -0.000  0.000   -0.000 -0.000 -0.000
 O          0.000  0.000 -0.000   -0.000 -0.000  0.000   -0.000 -0.000 -0.000
 C         -0.001 -0.001 -0.001    0.001  0.000  0.001    0.000 -0.001 -0.000
 H          0.265  0.157 -0.428   -0.370 -0.219  0.599   -0.006 -0.004  0.009
 H          0.220 -0.012  0.056   -0.333  0.017 -0.086   -0.009  0.000 -0.003
 O          0.000 -0.000  0.000   -0.000  0.000  0.000    0.000  0.000  0.000
 H         -0.001 -0.000  0.001   -0.001  0.002 -0.007   -0.001 -0.000 -0.002
 H         -0.002  0.008  0.010   -0.001 -0.004 -0.006    0.000  0.007  0.008
 C          0.001 -0.001 -0.000    0.000 -0.001 -0.000   -0.002 -0.001  0.001
 C          0.027 -0.068  0.016    0.021 -0.047  0.012   -0.080 -0.041 -0.025
 H         -0.108 -0.054 -0.073   -0.091 -0.043 -0.061    0.699  0.258  0.463
 H         -0.414  0.353  0.078   -0.291  0.249  0.055    0.146 -0.147 -0.032
 H          0.193  0.516 -0.190    0.135  0.360 -0.133    0.123  0.377 -0.142
 O         -0.000 -0.000  0.000    0.000 -0.000  0.000    0.001  0.000  0.000
 O         -0.000  0.000 -0.000    0.000 -0.000  0.000   -0.000 -0.000  0.000
 H          0.001 -0.001  0.000   -0.001  0.001 -0.000   -0.000  0.000  0.000
 TransDip  -0.020 -0.094  0.078    0.105 -0.023 -0.031   -0.130 -0.074 -0.066

 Mode:                46                     47                     48
 Frequency:      3258.29                3381.82                3839.11
 Force Cnst:      6.5956                 7.5835                 9.2653
 Red. Mass:       1.0544                 1.1254                 1.0670
 IR Active:          YES                    YES                    YES
 IR Intens:       13.861                  0.570                  0.220
 Raman Active:       YES                    YES                    YES
               X      Y      Z        X      Y      Z        X      Y      Z
 C          0.001 -0.003  0.001    0.000  0.001 -0.001   -0.000  0.000  0.000
 C         -0.000 -0.000 -0.001   -0.000  0.001 -0.001    0.000  0.000  0.000
 O          0.000 -0.000  0.000    0.000 -0.000  0.000    0.000 -0.000 -0.000
 O          0.000  0.000  0.000    0.000 -0.000  0.000    0.000 -0.000 -0.000
 C         -0.025  0.060 -0.003   -0.014 -0.021 -0.100   -0.000 -0.001 -0.001
 H          0.002  0.003 -0.006   -0.009 -0.008  0.014   -0.000  0.000 -0.000
 H         -0.002  0.000 -0.001    0.007 -0.002  0.001    0.001 -0.000  0.000
 O          0.000 -0.001  0.000    0.000  0.000  0.001    0.000  0.000  0.000
 H          0.201 -0.147  0.592    0.243 -0.182  0.703    0.000 -0.001  0.002
 H          0.090 -0.511 -0.560   -0.077  0.427  0.463   -0.000  0.005  0.006
 C         -0.000 -0.000  0.000    0.000  0.000 -0.000   -0.000 -0.000 -0.000
 C         -0.000 -0.001  0.000    0.000  0.000 -0.000    0.000 -0.000  0.000
 H          0.004  0.002  0.002   -0.003 -0.001 -0.001   -0.000 -0.000 -0.000
 H          0.002  0.001  0.003   -0.003  0.000 -0.001    0.000 -0.000 -0.000
 H          0.003  0.011 -0.003   -0.001 -0.005  0.002    0.000  0.000 -0.000
 O          0.000  0.000 -0.000    0.000  0.000  0.000    0.000  0.000  0.000
 O         -0.000 -0.001 -0.000   -0.000  0.001  0.001   -0.014 -0.051 -0.034
 H         -0.001  0.004  0.002    0.003 -0.005 -0.005    0.218  0.812  0.537
 TransDip  -0.042  0.106  0.036   -0.020 -0.011 -0.007    0.015  0.000  0.003

 STANDARD THERMODYNAMIC QUANTITIES AT   298.15 K  AND     1.00 ATM

   This Molecule has  1 Imaginary Frequencies
   Zero point vibrational energy:       82.005 kcal/mol

   Atom    1 Element C  Has Mass   12.00000
   Atom    2 Element C  Has Mass   12.00000
   Atom    3 Element O  Has Mass   15.99491
   Atom    4 Element O  Has Mass   15.99491
   Atom    5 Element C  Has Mass   12.00000
   Atom    6 Element H  Has Mass    1.00783
   Atom    7 Element H  Has Mass    1.00783
   Atom    8 Element O  Has Mass   15.99491
   Atom    9 Element H  Has Mass    1.00783
   Atom   10 Element H  Has Mass    1.00783
   Atom   11 Element C  Has Mass   12.00000
   Atom   12 Element C  Has Mass   12.00000
   Atom   13 Element H  Has Mass    1.00783
   Atom   14 Element H  Has Mass    1.00783
   Atom   15 Element H  Has Mass    1.00783
   Atom   16 Element O  Has Mass   15.99491
   Atom   17 Element O  Has Mass   15.99491
   Atom   18 Element H  Has Mass    1.00783
   Molecular Mass:   148.037190 amu
   Principal axes and moments of inertia in amu*Bohr^2:
                             1           2           3
    Eigenvalues --      961.13455  2726.20460  3103.29734
          X               0.63312     0.74906     0.19513
          Y               0.73646    -0.50530    -0.44978
          Z               0.23831    -0.42847     0.87156
   Rotational Symmetry Number is   1
   The Molecule is an Asymmetric Top
   Translational Enthalpy:        0.889 kcal/mol
   Rotational Enthalpy:           0.889 kcal/mol
   Vibrational Enthalpy:         87.696 kcal/mol
   gas constant (RT):             0.592 kcal/mol
   Translational Entropy:        40.887  cal/mol.K
   Rotational Entropy:           30.476  cal/mol.K
   Vibrational Entropy:          39.529  cal/mol.K

   Total Enthalpy:               90.066 kcal/mol
   Total Entropy:               110.892  cal/mol.K
Archival summary:
1\1\c4-84\FREQ\ProcedureUnspecified\BasisUnspecified\558(2-,1)\lmgong\FriMay408:12:412018FriMay408:12:412018\0\\#,FREQ,ProcedureUnspecified,BasisUnspecified,\\-2,1\O\C,1,1.2864\O,2,1.24102,1,122.163\C,2,1.51977,1,118.497,3,-179.419,0\H,4,1.08959,2,109.811,1,-172.087,0\H,4,1.09279,2,111.1,1,-50.5456,0\H,4,1.09449,2,109.605,1,68.2659,0\C,1,1.87192,2,124.156,3,178.645,0\H,8,1.07324,1,87.3884,2,-151.974,0\H,8,1.07577,1,94.1265,2,-33.3209,0\C,8,1.5014,1,99.7313,2,88.3909,0\H,11,1.09097,8,109.384,1,-140.255,0\H,11,1.09463,8,109.951,1,-23.3897,0\C,11,1.53969,8,115.611,1,97.0235,0\O,14,1.25524,11,118.999,8,-13.0011,0\O,14,1.26012,11,115.216,8,168.387,0\O,8,2.10113,1,165.655,2,-103.97,0\H,17,0.963806,8,103.764,1,-117.109,0\\\@

 Total job time:  110455.99s(wall), 421730.66s(cpu) 
 Fri May  4 08:12:41 2018

        *************************************************************
        *                                                           *
        *  Thank you very much for using Q-Chem.  Have a nice day.  *
        *                                                           *
        *************************************************************


