
Running Job 1 of 1 qc-3-tshess.in
qchem qc-3-tshess.in_31779.0 /scratch/lmgong/1164498/qc-3-tshess.d/ 1
/home/leeping/opt/qchem/5.0.2-openmp/exe/qcprog.exe_s qc-3-tshess.in_31779.0 /scratch/lmgong/1164498/qc-3-tshess.d/
Check license passed

                  Welcome to Q-Chem
     A Quantum Leap Into The Future Of Chemistry


 Q-Chem 5.0, Q-Chem, Inc., Pleasanton, CA (2017)

 Yihan Shao,  Zhengting Gan,  E. Epifanovsky,  A. T. B. Gilbert,  M. Wormit,  
 J. Kussmann,  A. W. Lange,  A. Behn,  Jia Deng,  Xintian Feng,  D. Ghosh,  
 M. Goldey,  P. R. Horn,  L. D. Jacobson,  I. Kaliman,  T. Kus,  A. Landau,  
 Jie Liu,  E. I. Proynov,  R. M. Richard,  R. P. Steele,  E. J. Sundstrom,  
 H. L. Woodcock III,  P. M. Zimmerman,  D. Zuev,  B. Albrecht,  E. Alguire,  
 S. A. Baeppler,  D. Barton,  Z. Benda,  Y. A. Bernard,  E. J. Berquist,  
 K. B. Bravaya,  H. Burton,  D. Casanova,  Chun-Min Chang,  Yunqing Chen,  
 A. Chien,  K. D. Closser,  M. P. Coons,  S. Dasgupta,  A. L. Dempwolff,  
 M. Diedenhofen,  Hainam Do,  R. G. Edgar,  Po-Tung Fang,  S. Fatehi,  
 Qingguo Feng,  J. Fosso-Tande,  Qinghui Ge,  A. Ghysels,  G. Gidofalvi,  
 J. Gomes,  J. Gonthier,  A. Gunina,  M. W. D. Hanson-Heine,  
 P. H. P. Harbach,  A. W. Hauser,  J. E. Herr,  E. G. Hohenstein,  
 Z. C. Holden,  Kerwin Hui,  T.-C. Jagau,  Hyunjun Ji,  B. Kaduk,  
 K. Khistyaev,  Jaehoon Kim,  P. Klunzinger,  K. Koh,  D. Kosenkov,  
 L. Koulias,  T. Kowalczyk,  C. M. Krauter,  A. Kunitsa,  Ka Un Lao,  
 A. Laurent,  K. V. Lawler,  Joonho Lee,  D. Lefrancois,  S. Lehtola,  
 D. S. Levine,  Yi-Pei Li,  You-Sheng Lin,  Fenglai Liu,  E. Livshits,  
 A. Luenser,  P. Manohar,  E. Mansoor,  S. F. Manzer,  Shan-Ping Mao,  
 Yuezhi Mao,  N. Mardirossian,  A. V. Marenich,  T. Markovich,  
 L. A. Martinez-Martinez,  S. A. Maurer,  N. J. Mayhall,  S. C. McKenzie,  
 J.-M. Mewes,  A. F. Morrison,  J. W. Mullinax,  K. Nanda,  
 T. S. Nguyen-Beck,  R. Olivares-Amaya,  J. A. Parkhill,  T. M. Perrine,  
 F. Plasser,  S. Prager,  A. Prociuk,  E. Ramos,  D. R. Rehn,  F. Rob,  
 M. Schneider,  N. Sergueev,  S. M. Sharada,  S. Sharma,  D. W. Small,  
 T. Stauch,  T. Stein,  Yu-Chuan Su,  A. J. W. Thom,  A. Tkatchenko,  
 T. Tsuchimochi,  L. Vogt,  O. Vydrov,  M. A. Watson,  J. Wenzel,  
 M. de Wergifosse,  T. A. Wesolowski,  A. White,  J. Witte,  A. Yamada,  
 Jun Yang,  K. Yao,  S. Yeganeh,  S. R. Yost,  Zhi-Qiang You,  A. Zech,  
 Igor Ying Zhang,  Xing Zhang,  Yan Zhao,  Ying Zhu,  B. R. Brooks,  
 G. K. L. Chan,  C. J. Cramer,  M. S. Gordon,  W. J. Hehre,  A. Klamt,  
 M. W. Schmidt,  C. D. Sherrill,  D. G. Truhlar,  A. Aspuru-Guzik,  R. Baer,  
 A. T. Bell,  N. A. Besley,  Jeng-Da Chai,  R. A. DiStasio Jr.,  A. Dreuw,  
 B. D. Dunietz,  T. R. Furlani,  Chao-Ping Hsu,  Yousung Jung,  Jing Kong,  
 D. S. Lambrecht,  WanZhen Liang,  C. Ochsenfeld,  V. A. Rassolov,  
 L. V. Slipchenko,  J. E. Subotnik,  T. Van Voorhis,  J. M. Herbert,  
 A. I. Krylov,  P. M. W. Gill,  M. Head-Gordon

 Contributors to earlier versions of Q-Chem not listed above: 
 R. D. Adamson,  B. Austin,  J. Baker,  G. J. O. Beran,  K. Brandhorst,  
 S. T. Brown,  E. F. C. Byrd,  A. K. Chakraborty,  C.-L. Cheng,  
 Siu Hung Chien,  D. M. Chipman,  D. L. Crittenden,  H. Dachsel,  
 R. J. Doerksen,  A. D. Dutoi,  L. Fusti-Molnar,  W. A. Goddard III,  
 A. Golubeva-Zadorozhnaya,  S. R. Gwaltney,  G. Hawkins,  A. Heyden,  
 S. Hirata,  G. Kedziora,  F. J. Keil,  C. Kelley,  Jihan Kim,  R. A. King,  
 R. Z. Khaliullin,  P. P. Korambath,  W. Kurlancheek,  A. M. Lee,  M. S. Lee,  
 S. V. Levchenko,  Ching Yeh Lin,  D. Liotard,  R. C. Lochan,  I. Lotan,  
 P. E. Maslen,  N. Nair,  D. P. O'Neill,  D. Neuhauser,  E. Neuscamman,  
 C. M. Oana,  R. Olson,  B. Peters,  R. Peverati,  P. A. Pieniazek,  
 Y. M. Rhee,  J. Ritchie,  M. A. Rohrdanz,  E. Rosta,  N. J. Russ,  
 H. F. Schaefer III,  N. E. Schultz,  N. Shenvi,  A. C. Simmonett,  A. Sodt,  
 D. Stuck,  K. S. Thanthiriwatte,  V. Vanovschi,  Tao Wang,  A. Warshel,  
 C. F. Williams,  Q. Wu,  X. Xu,  W. Zhang

 Please cite Q-Chem as follows:
 Y. Shao et al., Mol. Phys. 113, 184-215 (2015)
 DOI: 10.1080/00268976.2014.952696

 Q-Chem 5.0.2 for Intel X86 EM64T Linux

 Parts of Q-Chem use Armadillo 5.200.1 (Boston Tea Smuggler).
 http://arma.sourceforge.net/

 Q-Chem begins on Sun Apr 15 03:07:07 2018  

Host: 
0

     Scratch files written to /scratch/lmgong/1164498/qc-3-tshess.d//
 Dec517 15110_ 26548  26544 5633   
Processing $rem in /home/leeping/opt/qchem/5.0.2-openmp/config/preferences.
 MEM_STATIC 2000
 MEM_TOTAL  8000
 SYMMETRY   OFF
 SYM_IGNORE TRUE 
Symmetry turned off for PCM/SM12/SMD calculation

Checking the input file for inconsistencies... 	...done.

--------------------------------------------------------------
User input:
--------------------------------------------------------------
$molecule
-2 1
C       -0.4145495416   -1.8216165947    0.7743300517
C       -1.5717537952   -2.8305026394    0.7023353861
O       -1.3657228904   -3.9465585792    1.2483796539
O       -2.6284284471   -2.4854512509    0.1144737446
C       -0.7024203578   -0.4869274322    0.1181404703
H        0.4645236757   -2.2850044451    0.3124175116
H       -0.1659257874   -1.6712945434    1.8310915806
O        0.4624326554    0.3289425804    0.2713984245
H       -1.5623951677    0.0025620908    0.5827031853
H       -0.9173283186   -0.6069440670   -0.9486953398
C        0.3925694485    1.5779836538   -0.2874018957
C        1.6282782235    2.3685015968    0.0655864346
H        1.5322833662    2.7059045512    1.1044355165
H        1.7007535708    3.2397038999   -0.5842985117
H        2.5287227881    1.7616291120   -0.0271369878
O       -0.7000668630    2.1093111605   -0.5101233970
O        1.0887732243    1.0912620432   -2.1773382761
H        0.2302542164    0.9484988635   -2.5902975520
$end

$rem
jobtype               freq
method                wb97x-v
basis                 def2-tzvpd
symmetry              off
sym_ignore            true
incdft                false
incfock               0
!scf_algorithm        diis_gdm
scf_convergence       8
thresh                14
!purecart             112
max_scf_cycles        1000
geom_opt_max_cycles   500
geom_opt_dmax         100
geom_opt_tol_gradient 10
solvent_method        pcm
ideriv                1
rpath_tol_displacement 1000
rpath_max_cycles      100
rpath_direction       1
!scf_guess            read
scf_guess             read
$end

$pcm
theory              cosmo
method              iswig
Radii               bondi
vdwScale            1.20
hpoints             110
heavypoints         110
$end

$solvent
dielectric 78.400000
$end

--------------------------------------------------------------
 ----------------------------------------------------------------
             Standard Nuclear Orientation (Angstroms)
    I     Atom           X                Y                Z
 ----------------------------------------------------------------
    1      C      -0.4145495416    -1.8216165947     0.7743300517
    2      C      -1.5717537952    -2.8305026394     0.7023353861
    3      O      -1.3657228904    -3.9465585792     1.2483796539
    4      O      -2.6284284471    -2.4854512509     0.1144737446
    5      C      -0.7024203578    -0.4869274322     0.1181404703
    6      H       0.4645236757    -2.2850044451     0.3124175116
    7      H      -0.1659257874    -1.6712945434     1.8310915806
    8      O       0.4624326554     0.3289425804     0.2713984245
    9      H      -1.5623951677     0.0025620908     0.5827031853
   10      H      -0.9173283186    -0.6069440670    -0.9486953398
   11      C       0.3925694485     1.5779836538    -0.2874018957
   12      C       1.6282782235     2.3685015968     0.0655864346
   13      H       1.5322833662     2.7059045512     1.1044355165
   14      H       1.7007535708     3.2397038999    -0.5842985117
   15      H       2.5287227881     1.7616291120    -0.0271369878
   16      O      -0.7000668630     2.1093111605    -0.5101233970
   17      O       1.0887732243     1.0912620432    -2.1773382761
   18      H       0.2302542164     0.9484988635    -2.5902975520
 ----------------------------------------------------------------
 Nuclear Repulsion Energy =   530.2141547373 hartrees
 There are       40 alpha and       40 beta electrons
 Requested basis set is def2-TZVPD
 There are 175 shells and 457 basis functions

 Total QAlloc Memory Limit   8000 MB
 Mega-Array Size      1956 MB
 MEM_STATIC part      2000 MB
 Discretize the solute cavity surface with Lebedev spheres
	Using 110 Lebedev grid points for each H atom
	Using 110 Lebedev grid points for other atoms
	Atomic van der Waals radii will be scaled by 1.20
 Remove points where switching function is < 1.0e-08
 Keep 1104 surface tesserae and discard 876 interior tesserae
 Molecular Surface Area = 196.204 Angst**2
 A cutoff of  1.0D-14 yielded  13786 shell pairs
 There are     93898 function pairs (    119291 Cartesian)
 
 -------------------------------------------------------
 OpenMP Integral Computing Module                       
 Release: version 1.0, May 2013, Q-Chem Inc. Pittsburgh 
 -------------------------------------------------------
 Integral Job Info:
 Integral job number is                      11
 Integral operator is                         1
 short-range coefficients              16700000
 long-range coefficients              100000000
 Omega coefficients                         300
 if combine SR and LR in K                    1
 Integral screening is                        0
 Integral computing path is                   2
 max size of driver memory is            800000
 size of driver memory is                776718
 size of scratch memory is              4473992
 max col of scratch BK array              10000
 max len of scratch array in speh3          662
 max len of scratch index in speh4           32
 max int batch size is                      520
 min int batch size is                       52
 fixed nKL is                                52
 max L of basis functions is                  3
 order of int derivative is                   0
 number of shells is                        175
 number of basis is                         517
 number of cartesian basis is               517
 number of contracted shell pairs         13786
 number of primitive shell pairs          27840
 maxK2 (contraction) of shell pair           36
 max number of K2 of shell pair               1
 max number of CS2 of shell pair           2292
 max number of PS2 of shell pair           3228
 mem total for path MDJ                  768868
 -------------------------------------------------------
 Smallest overlap matrix eigenvalue = 4.01E-06
 Guess MOs from SCF MO coefficient file
 Reading MOs from coefficient file
 Reading MOs from coefficient file
 Long-range K will be added via erf
 Coulomb attenuation parameter = 0.3 bohr**(-1)
 A restricted hybrid HF-DFT SCF calculation will be
 performed using Pulay DIIS extrapolation
 Polarizable Continuum solvation model will be applied
 Exchange:     0.1670 Hartree-Fock + 1.0000 wB97X-V + LR-HF
 Correlation:  1.0000 wB97X-V
 Using SG-2 standard quadrature grid
 Nonlocal Correlation:  VV10 with C = 0.0100 and b = 6.00
 Grid used for NLC:  SG-1 standard quadrature
 SCF converges when DIIS error is below 1.0E-08
Using Q-Chem read-in guess as SCF_GUESS READ specified.

 using 4 threads for integral computing
 -------------------------------------------------------
 OpenMP Integral computing Module                
 Release: version 1.0, May 2013, Q-Chem Inc. Pittsburgh 
 -------------------------------------------------------
 using 4 threads for integral computing
 -------------------------------------------------------
 OpenMP Integral computing Module                
 Release: version 1.0, May 2013, Q-Chem Inc. Pittsburgh 
 -------------------------------------------------------
 -------------------------------------------------------
 OpenMP BLAS3 based DFT computing Module                
 Release: version 1.0, May 2013, Q-Chem Inc. Pittsburgh 
 -------------------------------------------------------
 -------------------------------------------------------
 OpenMP BLAS3 based DFT computing Module                
 Release: version 1.0, May 2013, Q-Chem Inc. Pittsburgh 
 -------------------------------------------------------
 -------------------------------------------------------
 OpenMP BLAS3 based DFT computing Module                
 Release: version 1.0, May 2013, Q-Chem Inc. Pittsburgh 
 -------------------------------------------------------
 ---------------------------------------
  Cycle       Energy         DIIS Error
 ---------------------------------------
    1    -571.4973923571      3.36E-04
    2    -571.7953410240      3.73E-04
    3    -571.8002882680      1.73E-04
    4    -571.8010835437      1.24E-04
    5    -571.8015803598      9.43E-05
    6    -571.8018372820      7.52E-05
    7    -571.8020102819      5.92E-05
    8    -571.8021241771      4.58E-05
    9    -571.8021990347      3.41E-05
   10    -571.8022354859      2.67E-05
   11    -571.8022636792      1.90E-05
   12    -571.8022771694      1.39E-05
   13    -571.8022837582      1.06E-05
   14    -571.8022872033      8.29E-06
   15    -571.8022888080      6.97E-06
   16    -571.8022901858      5.61E-06
   17    -571.8022927020      3.49E-09 Convergence criterion met
 ---------------------------------------

************** Final PCM Free Energy Summary **************
 G_electrostatic  =      -0.30490032 hartree =    -191.32783657 kcal/mol
 G_cavitation     =       0.00000000 hartree =       0.00000000 kcal/mol
 G_dispersion     =       0.00000000 hartree =       0.00000000 kcal/mol
 G_repulsion      =       0.00000000 hartree =       0.00000000 kcal/mol
 --------------------------------------------------
 Non-electrostatic Free Energy =       0.00000000 hartree =       0.00000000 kcal/mol
 Total                         =      -0.30490032 hartree =    -191.32783657 kcal/mol
 --------------------------------------------------
 SCF Energy (H0 + V/2)                       =    -571.80229270 
 Solute Internal Energy (H0)                 =    -571.49739239 
 Total Free Energy (H0 + V/2 + non-elec)     =    -571.80229270 hartree
                                             = -358811.35421002 kcal/mol
***********************************************************

 SCF time:  CPU 3687.52 s  wall 953.96 s
 SCF   energy in the final basis set = -571.80229270
 Total energy in the final basis set = -571.80229270
 
 --------------------------------------------------------------
 
                    Orbital Energies (a.u.)
 --------------------------------------------------------------
 
 Alpha MOs
 -- Occupied --
-19.218 -19.152 -19.142 -19.139 -19.103 -10.383 -10.344 -10.298
-10.250 -10.246  -1.197  -1.145  -1.102  -1.051  -0.985  -0.894
 -0.844  -0.751  -0.664  -0.606  -0.593  -0.574  -0.559  -0.546
 -0.527  -0.515  -0.507  -0.488  -0.469  -0.461  -0.451  -0.432
 -0.430  -0.380  -0.355  -0.348  -0.336  -0.332  -0.319  -0.308
 -- Virtual --
  0.059   0.072   0.082   0.088   0.100   0.102   0.108   0.116
  0.126   0.129   0.132   0.140   0.144   0.154   0.157   0.163
  0.174   0.177   0.185   0.187   0.193   0.207   0.213   0.220
  0.222   0.236   0.242   0.245   0.254   0.260   0.267   0.268
  0.274   0.289   0.293   0.300   0.304   0.314   0.315   0.322
  0.327   0.339   0.341   0.348   0.355   0.359   0.361   0.371
  0.372   0.384   0.385   0.388   0.393   0.395   0.402   0.407
  0.410   0.415   0.419   0.425   0.434   0.441   0.447   0.448
  0.452   0.456   0.463   0.472   0.478   0.481   0.482   0.490
  0.497   0.500   0.506   0.513   0.515   0.523   0.527   0.536
  0.545   0.551   0.560   0.564   0.569   0.575   0.578   0.585
  0.591   0.599   0.613   0.617   0.621   0.629   0.637   0.641
  0.651   0.654   0.657   0.665   0.668   0.680   0.684   0.689
  0.707   0.712   0.723   0.730   0.742   0.748   0.755   0.768
  0.772   0.778   0.780   0.791   0.792   0.799   0.803   0.815
  0.816   0.819   0.830   0.834   0.845   0.848   0.854   0.862
  0.867   0.879   0.884   0.888   0.893   0.897   0.914   0.924
  0.928   0.942   0.954   0.962   0.967   0.980   1.011   1.030
  1.034   1.043   1.050   1.061   1.073   1.083   1.101   1.105
  1.109   1.127   1.137   1.151   1.163   1.173   1.182   1.200
  1.213   1.219   1.230   1.258   1.272   1.293   1.301   1.311
  1.324   1.336   1.349   1.375   1.387   1.397   1.400   1.416
  1.423   1.451   1.459   1.469   1.481   1.489   1.535   1.560
  1.565   1.610   1.652   1.681   1.707   1.748   1.761   1.806
  1.828   1.847   1.871   1.875   1.898   1.930   1.938   1.945
  1.951   1.958   1.973   1.978   1.982   1.993   1.996   2.005
  2.019   2.026   2.048   2.071   2.104   2.119   2.145   2.165
  2.178   2.195   2.218   2.234   2.242   2.260   2.269   2.294
  2.298   2.317   2.322   2.345   2.358   2.382   2.402   2.409
  2.424   2.452   2.479   2.488   2.501   2.527   2.535   2.562
  2.580   2.616   2.634   2.642   2.663   2.680   2.690   2.713
  2.740   2.748   2.750   2.799   2.821   2.836   2.874   2.882
  2.894   2.921   2.930   2.946   2.972   2.974   3.011   3.028
  3.047   3.073   3.077   3.099   3.113   3.120   3.156   3.184
  3.186   3.222   3.240   3.263   3.284   3.305   3.314   3.327
  3.341   3.361   3.382   3.410   3.414   3.425   3.441   3.446
  3.459   3.475   3.489   3.513   3.531   3.543   3.551   3.553
  3.583   3.607   3.616   3.622   3.644   3.657   3.665   3.678
  3.681   3.700   3.706   3.726   3.747   3.767   3.783   3.798
  3.799   3.829   3.858   3.907   3.957   3.978   3.994   4.065
  4.089   4.103   4.135   4.146   4.173   4.181   4.216   4.258
  4.303   4.331   4.460   4.540   4.601   4.635   4.638   4.705
  4.713   4.729   4.772   4.807   4.828   4.870   4.921   5.053
  5.079   5.137   5.205   5.323   5.345   5.360   5.370   5.376
  5.380   5.406   5.457   5.481   5.501   5.509   5.547   5.584
  5.664   5.682   5.709   5.711   5.730   5.748   5.779   5.931
  5.999   6.036   6.176   6.230   6.247   6.313   6.332   6.425
  6.458   6.493   6.612   6.630   6.639   6.694   6.697   6.724
  6.747   6.748   6.751   6.774   6.811   6.848   6.894   6.930
  6.960   6.966   7.015   7.048   7.144   7.189   7.254   7.284
  7.353   7.363   7.389   7.408   7.413   7.580   7.660  22.697
 22.856  22.913  23.507  23.736  44.097  44.262  44.430  44.477
 44.687
 --------------------------------------------------------------
 
          Ground-State Mulliken Net Atomic Charges

     Atom                 Charge (a.u.)
  ----------------------------------------
      1 C                    -0.055720
      2 C                     0.034194
      3 O                    -0.707920
      4 O                    -0.691203
      5 C                    -0.220994
      6 H                     0.238175
      7 H                     0.240596
      8 O                    -0.204166
      9 H                     0.181841
     10 H                     0.178678
     11 C                     0.666419
     12 C                    -0.930758
     13 H                     0.250502
     14 H                     0.212938
     15 H                     0.196422
     16 O                    -0.643958
     17 O                    -0.956652
     18 H                     0.211606
  ----------------------------------------
  Sum of atomic charges =    -2.000000

 -----------------------------------------------------------------
                    Cartesian Multipole Moments
 -----------------------------------------------------------------
    Charge (ESU x 10^10)
                -9.6064
    Dipole Moment (Debye)
         X       7.3700      Y       8.9055      Z       4.9395
       Tot      12.5707
    Quadrupole Moments (Debye-Ang)
        XX     -98.5070     XY     -31.5064     YY    -138.5224
        XZ      14.7713     YZ      25.8755     ZZ     -85.7310
    Octopole Moments (Debye-Ang^2)
       XXX     127.7305    XXY      90.9264    XYY     141.7882
       YYY     277.8874    XXZ      11.2400    XYZ      -9.9647
       YYZ     -45.0249    XZZ      -4.3469    YZZ      21.3022
       ZZZ      39.6745
    Hexadecapole Moments (Debye-Ang^3)
      XXXX    -956.9752   XXXY    -625.5349   XXYY    -695.0159
      XYYY    -798.1780   YYYY   -2918.8096   XXXZ     137.3375
      XXYZ     128.0393   XYYZ     130.5990   YYYZ     545.7358
      XXZZ    -249.3612   XYZZ    -197.5631   YYZZ    -510.3897
      XZZZ     190.1166   YZZZ     320.5039   ZZZZ    -548.1509
 -----------------------------------------------------------------
 Calculating analytic gradient of the SCF energy
 Gradient of SCF Energy
            1           2           3           4           5           6
    1   0.0645624  -0.0281773  -0.0004866   0.0488968  -0.0966436  -0.0457980
    2   0.0036600  -0.0285548   0.0507678  -0.0097938  -0.0126000   0.0295110
    3   0.0326676  -0.0051849  -0.0219531   0.0239799  -0.0449859   0.0342558
            7           8           9          10          11          12
    1  -0.0043410   0.0040176   0.0554633   0.0096948  -0.0843075   0.0719649
    2  -0.0104132   0.0224198  -0.0319045   0.0019549  -0.0383633   0.0671219
    3  -0.0595638  -0.0018902  -0.0287952   0.0773896   0.0158357  -0.0069777
           13          14          15          16          17          18
    1   0.0042009  -0.0036021  -0.0626405   0.0545085  -0.0423033   0.0549908
    2  -0.0202813  -0.0650485   0.0463416  -0.0079708  -0.0160091   0.0191621
    3  -0.0641946   0.0452926   0.0068145   0.0137346  -0.0474956   0.0310709
 Max gradient component =       9.664E-02
 RMS gradient           =       4.112E-02
 Computing fast CPCM-ISWIG gradient
 Updating gradient with PCM contributions...
 -- total gradient after adding PCM contribution --
---------------------------------------------------
  Atom         X              Y              Z     
---------------------------------------------------
   1      -0.000017       0.000015       0.000027
   2      -0.000017       0.000015       0.000026
   3      -0.000029       0.000030       0.000053
   4      -0.000001       0.000002      -0.000006
   5       0.000000       0.000004      -0.000009
   6      -0.000009       0.000006       0.000056
   7      -0.000038       0.000038       0.000030
   8      -0.000008       0.000007       0.000006
   9      -0.000012       0.000010      -0.000033
  10       0.000020      -0.000018      -0.000006
  11       0.000010      -0.000009      -0.000032
  12      -0.000001       0.000002      -0.000007
  13      -0.000022       0.000023      -0.000024
  14       0.000014      -0.000014      -0.000031
  15       0.000000      -0.000002       0.000019
  16       0.000011      -0.000012      -0.000058
  17       0.000036      -0.000048      -0.000006
  18       0.000062      -0.000049      -0.000005
---------------------------------------------------
 Number of fixed atoms: 0
 Gradient time:  CPU 716.97 s  wall 185.42 s
 ######################################################
 ######################################################
 # Starting finite difference calculation for IDERIV  #
 Finite diff step size:  1.88973e-03 a.u.
 ----------------------------------------------------------------
             Standard Nuclear Orientation (Angstroms)
    I     Atom           X                Y                Z
 ----------------------------------------------------------------
    1      C      -0.4135495416    -1.8216165947     0.7743300517
    2      C      -1.5717537952    -2.8305026394     0.7023353861
    3      O      -1.3657228904    -3.9465585792     1.2483796539
    4      O      -2.6284284471    -2.4854512509     0.1144737446
    5      C      -0.7024203578    -0.4869274322     0.1181404703
    6      H       0.4645236757    -2.2850044451     0.3124175116
    7      H      -0.1659257874    -1.6712945434     1.8310915806
    8      O       0.4624326554     0.3289425804     0.2713984245
    9      H      -1.5623951677     0.0025620908     0.5827031853
   10      H      -0.9173283186    -0.6069440670    -0.9486953398
   11      C       0.3925694485     1.5779836538    -0.2874018957
   12      C       1.6282782235     2.3685015968     0.0655864346
   13      H       1.5322833662     2.7059045512     1.1044355165
   14      H       1.7007535708     3.2397038999    -0.5842985117
   15      H       2.5287227881     1.7616291120    -0.0271369878
   16      O      -0.7000668630     2.1093111605    -0.5101233970
   17      O       1.0887732243     1.0912620432    -2.1773382761
   18      H       0.2302542164     0.9484988635    -2.5902975520
 ----------------------------------------------------------------
 Nuclear Repulsion Energy =   530.2057494476 hartrees
 There are       40 alpha and       40 beta electrons
 Discretize the solute cavity surface with Lebedev spheres
	Using 110 Lebedev grid points for each H atom
	Using 110 Lebedev grid points for other atoms
	Atomic van der Waals radii will be scaled by 1.20
 Remove points where switching function is < 1.0e-08
 Keep 1103 surface tesserae and discard 877 interior tesserae
 Molecular Surface Area = 196.205 Angst**2
 Requested basis set is def2-TZVPD
 There are 175 shells and 457 basis functions
 A cutoff of  1.0D-14 yielded  13786 shell pairs
 There are     93898 function pairs (    119291 Cartesian)
 Smallest overlap matrix eigenvalue = 4.01E-06
 Guess MOs from SCF MO coefficient file
 Reading MOs from coefficient file
 Reading MOs from coefficient file
 Long-range K will be added via erf
 Coulomb attenuation parameter = 0.3 bohr**(-1)
 A restricted hybrid HF-DFT SCF calculation will be
 performed using Pulay DIIS extrapolation
 Polarizable Continuum solvation model will be applied
 Exchange:     0.1670 Hartree-Fock + 1.0000 wB97X-V + LR-HF
 Correlation:  1.0000 wB97X-V
 Using SG-2 standard quadrature grid
 Nonlocal Correlation:  VV10 with C = 0.0100 and b = 6.00
 Grid used for NLC:  SG-1 standard quadrature
 SCF converges when DIIS error is below 1.0E-08
Using Q-Chem read-in guess as SCF_GUESS READ specified.

 using 4 threads for integral computing
 -------------------------------------------------------
 OpenMP Integral computing Module                
 Release: version 1.0, May 2013, Q-Chem Inc. Pittsburgh 
 -------------------------------------------------------
 using 4 threads for integral computing
 -------------------------------------------------------
 OpenMP Integral computing Module                
 Release: version 1.0, May 2013, Q-Chem Inc. Pittsburgh 
 -------------------------------------------------------
 -------------------------------------------------------
 OpenMP BLAS3 based DFT computing Module                
 Release: version 1.0, May 2013, Q-Chem Inc. Pittsburgh 
 -------------------------------------------------------
 -------------------------------------------------------
 OpenMP BLAS3 based DFT computing Module                
 Release: version 1.0, May 2013, Q-Chem Inc. Pittsburgh 
 -------------------------------------------------------
 -------------------------------------------------------
 OpenMP BLAS3 based DFT computing Module                
 Release: version 1.0, May 2013, Q-Chem Inc. Pittsburgh 
 -------------------------------------------------------
 ---------------------------------------
  Cycle       Energy         DIIS Error
 ---------------------------------------
    1    -571.4976751783      3.36E-04
    2    -571.7953388533      3.73E-04
    3    -571.8002882428      1.73E-04
    4    -571.8010844014      1.24E-04
    5    -571.8015849990      9.39E-05
    6    -571.8018556100      7.36E-05
    7    -571.8020608798      5.35E-05
    8    -571.8022003131      3.37E-05
    9    -571.8022736411      1.50E-05
   10    -571.8022894302      5.44E-06
   11    -571.8022917151      9.86E-07
   12    -571.8022917902      1.49E-07
   13    -571.8022917919      1.49E-08
   14    -571.8022917919      1.25E-08
   15    -571.8022917919      5.96E-09 Convergence criterion met
 ---------------------------------------

************** Final PCM Free Energy Summary **************
 G_electrostatic  =      -0.30489874 hartree =    -191.32684399 kcal/mol
 G_cavitation     =       0.00000000 hartree =       0.00000000 kcal/mol
 G_dispersion     =       0.00000000 hartree =       0.00000000 kcal/mol
 G_repulsion      =       0.00000000 hartree =       0.00000000 kcal/mol
 --------------------------------------------------
 Non-electrostatic Free Energy =       0.00000000 hartree =       0.00000000 kcal/mol
 Total                         =      -0.30489874 hartree =    -191.32684399 kcal/mol
 --------------------------------------------------
 SCF Energy (H0 + V/2)                       =    -571.80229179 
 Solute Internal Energy (H0)                 =    -571.49739306 
 Total Free Energy (H0 + V/2 + non-elec)     =    -571.80229179 hartree
                                             = -358811.35363893 kcal/mol
***********************************************************

 SCF time:  CPU 3253.45 s  wall 844.44 s
 SCF   energy in the final basis set = -571.80229179
 Total energy in the final basis set = -571.80229179
 
 --------------------------------------------------------------
 
                    Orbital Energies (a.u.)
 --------------------------------------------------------------
 
 Alpha MOs
 -- Occupied --
-19.218 -19.152 -19.142 -19.139 -19.103 -10.383 -10.344 -10.298
-10.250 -10.246  -1.197  -1.145  -1.102  -1.051  -0.985  -0.894
 -0.844  -0.751  -0.664  -0.606  -0.593  -0.574  -0.559  -0.546
 -0.527  -0.515  -0.506  -0.488  -0.469  -0.461  -0.451  -0.432
 -0.430  -0.380  -0.355  -0.348  -0.336  -0.332  -0.319  -0.308
 -- Virtual --
  0.059   0.072   0.082   0.088   0.100   0.102   0.108   0.116
  0.126   0.129   0.132   0.140   0.144   0.154   0.157   0.163
  0.174   0.177   0.185   0.187   0.193   0.207   0.213   0.220
  0.222   0.236   0.242   0.245   0.254   0.260   0.267   0.268
  0.274   0.289   0.293   0.300   0.304   0.314   0.315   0.322
  0.327   0.339   0.341   0.348   0.355   0.359   0.361   0.371
  0.372   0.384   0.385   0.388   0.393   0.395   0.402   0.407
  0.409   0.415   0.419   0.424   0.434   0.441   0.447   0.448
  0.452   0.455   0.463   0.472   0.478   0.481   0.482   0.490
  0.497   0.500   0.506   0.513   0.515   0.523   0.527   0.536
  0.545   0.551   0.560   0.564   0.569   0.575   0.578   0.585
  0.591   0.598   0.613   0.617   0.621   0.629   0.637   0.641
  0.651   0.654   0.657   0.664   0.668   0.680   0.684   0.689
  0.707   0.712   0.723   0.730   0.742   0.748   0.755   0.768
  0.772   0.778   0.780   0.791   0.792   0.799   0.803   0.815
  0.816   0.819   0.830   0.834   0.845   0.848   0.854   0.862
  0.867   0.879   0.884   0.888   0.893   0.897   0.914   0.924
  0.928   0.942   0.954   0.962   0.967   0.980   1.011   1.030
  1.034   1.043   1.050   1.061   1.073   1.083   1.101   1.105
  1.109   1.127   1.137   1.150   1.163   1.173   1.182   1.200
  1.213   1.219   1.230   1.258   1.272   1.294   1.301   1.311
  1.324   1.336   1.350   1.375   1.387   1.397   1.400   1.416
  1.423   1.451   1.458   1.468   1.481   1.489   1.535   1.559
  1.565   1.609   1.652   1.681   1.707   1.748   1.761   1.806
  1.829   1.847   1.871   1.875   1.898   1.930   1.938   1.944
  1.951   1.958   1.973   1.978   1.982   1.993   1.996   2.005
  2.019   2.026   2.048   2.071   2.104   2.119   2.145   2.165
  2.178   2.195   2.218   2.234   2.242   2.260   2.269   2.294
  2.298   2.317   2.322   2.345   2.358   2.382   2.402   2.409
  2.424   2.452   2.479   2.488   2.501   2.527   2.535   2.562
  2.581   2.616   2.634   2.642   2.663   2.680   2.689   2.712
  2.740   2.748   2.750   2.799   2.821   2.836   2.874   2.882
  2.894   2.921   2.930   2.946   2.972   2.974   3.011   3.028
  3.047   3.073   3.077   3.099   3.113   3.120   3.156   3.184
  3.186   3.222   3.240   3.263   3.284   3.305   3.315   3.327
  3.342   3.361   3.382   3.410   3.414   3.425   3.441   3.445
  3.458   3.475   3.489   3.513   3.531   3.543   3.551   3.553
  3.583   3.607   3.616   3.622   3.644   3.657   3.665   3.678
  3.681   3.700   3.706   3.726   3.746   3.766   3.783   3.797
  3.799   3.829   3.858   3.907   3.957   3.978   3.994   4.065
  4.089   4.103   4.135   4.146   4.173   4.181   4.216   4.258
  4.303   4.331   4.460   4.539   4.601   4.635   4.638   4.705
  4.713   4.729   4.772   4.807   4.828   4.870   4.921   5.053
  5.078   5.136   5.205   5.323   5.345   5.360   5.370   5.376
  5.380   5.406   5.457   5.481   5.501   5.509   5.547   5.584
  5.664   5.682   5.709   5.711   5.729   5.748   5.779   5.931
  5.999   6.035   6.176   6.230   6.247   6.313   6.331   6.425
  6.458   6.493   6.612   6.630   6.639   6.694   6.697   6.724
  6.747   6.748   6.751   6.774   6.811   6.848   6.894   6.930
  6.960   6.966   7.015   7.048   7.144   7.189   7.254   7.284
  7.353   7.363   7.389   7.408   7.413   7.580   7.660  22.697
 22.856  22.913  23.507  23.735  44.097  44.262  44.430  44.477
 44.687
 --------------------------------------------------------------
 
          Ground-State Mulliken Net Atomic Charges

     Atom                 Charge (a.u.)
  ----------------------------------------
      1 C                    -0.056754
      2 C                     0.034864
      3 O                    -0.707860
      4 O                    -0.691128
      5 C                    -0.221066
      6 H                     0.238677
      7 H                     0.240435
      8 O                    -0.204114
      9 H                     0.181919
     10 H                     0.178658
     11 C                     0.666303
     12 C                    -0.930745
     13 H                     0.250486
     14 H                     0.212939
     15 H                     0.196411
     16 O                    -0.643968
     17 O                    -0.956661
     18 H                     0.211605
  ----------------------------------------
  Sum of atomic charges =    -2.000000

 -----------------------------------------------------------------
                    Cartesian Multipole Moments
 -----------------------------------------------------------------
    Charge (ESU x 10^10)
                -9.6064
    Dipole Moment (Debye)
         X       7.3691      Y       8.9042      Z       4.9392
       Tot      12.5691
    Quadrupole Moments (Debye-Ang)
        XX     -98.5047     XY     -31.5060     YY    -138.5191
        XZ      14.7712     YZ      25.8765     ZZ     -85.7311
    Octopole Moments (Debye-Ang^2)
       XXX     127.7071    XXY      90.9188    XYY     141.7788
       YYY     277.8666    XXZ      11.2388    XYZ      -9.9653
       YYZ     -45.0261    XZZ      -4.3533    YZZ      21.3007
       ZZZ      39.6771
    Hexadecapole Moments (Debye-Ang^3)
      XXXX    -956.9250   XXXY    -625.4926   XXYY    -694.9949
      XYYY    -798.1460   YYYY   -2918.7600   XXXZ     137.3312
      XXYZ     128.0450   XYYZ     130.5994   YYYZ     545.7418
      XXZZ    -249.3590   XYZZ    -197.5550   YYZZ    -510.3903
      XZZZ     190.1041   YZZZ     320.5053   ZZZZ    -548.1508
 -----------------------------------------------------------------
 Calculating analytic gradient of the SCF energy
 Gradient of SCF Energy
            1           2           3           4           5           6
    1   0.0653833  -0.0284569  -0.0004634   0.0488730  -0.0967462  -0.0462070
    2   0.0035019  -0.0287075   0.0507641  -0.0098094  -0.0124405   0.0297454
    3   0.0326461  -0.0051803  -0.0219539   0.0239653  -0.0450591   0.0344479
            7           8           9          10          11          12
    1  -0.0043849   0.0040290   0.0554653   0.0097001  -0.0843142   0.0719709
    2  -0.0104073   0.0223752  -0.0319103   0.0019359  -0.0383639   0.0671253
    3  -0.0597118  -0.0018650  -0.0288087   0.0774388   0.0158315  -0.0069729
           13          14          15          16          17          18
    1   0.0041994  -0.0036013  -0.0626456   0.0545109  -0.0423030   0.0549904
    2  -0.0202849  -0.0650508   0.0463421  -0.0079702  -0.0160086   0.0191635
    3  -0.0641977   0.0452925   0.0068176   0.0137350  -0.0474942   0.0310690
 Max gradient component =       9.675E-02
 RMS gradient           =       4.117E-02
 Computing fast CPCM-ISWIG gradient
 Updating gradient with PCM contributions...
 -- total gradient after adding PCM contribution --
---------------------------------------------------
  Atom         X              Y              Z     
---------------------------------------------------
   1       0.000980      -0.000062       0.000029
   2      -0.000258      -0.000066       0.000033
   3      -0.000014       0.000021       0.000047
   4      -0.000072      -0.000031      -0.000042
   5      -0.000170       0.000092      -0.000049
   6      -0.000415       0.000171       0.000233
   7      -0.000142       0.000022      -0.000076
   8      -0.000012      -0.000082       0.000041
   9      -0.000017       0.000050      -0.000056
  10       0.000019      -0.000008      -0.000008
  11      -0.000005      -0.000001      -0.000043
  12       0.000000      -0.000001      -0.000005
  13      -0.000022       0.000023      -0.000024
  14       0.000013      -0.000015      -0.000031
  15       0.000000      -0.000001       0.000019
  16       0.000019      -0.000012      -0.000056
  17       0.000035      -0.000048      -0.000004
  18       0.000062      -0.000049      -0.000005
---------------------------------------------------
 Number of fixed atoms: 0
 Gradient time:  CPU 716.98 s  wall 185.96 s
 ----------------------------------------------------------------
             Standard Nuclear Orientation (Angstroms)
    I     Atom           X                Y                Z
 ----------------------------------------------------------------
    1      C      -0.4155495416    -1.8216165947     0.7743300517
    2      C      -1.5717537952    -2.8305026394     0.7023353861
    3      O      -1.3657228904    -3.9465585792     1.2483796539
    4      O      -2.6284284471    -2.4854512509     0.1144737446
    5      C      -0.7024203578    -0.4869274322     0.1181404703
    6      H       0.4645236757    -2.2850044451     0.3124175116
    7      H      -0.1659257874    -1.6712945434     1.8310915806
    8      O       0.4624326554     0.3289425804     0.2713984245
    9      H      -1.5623951677     0.0025620908     0.5827031853
   10      H      -0.9173283186    -0.6069440670    -0.9486953398
   11      C       0.3925694485     1.5779836538    -0.2874018957
   12      C       1.6282782235     2.3685015968     0.0655864346
   13      H       1.5322833662     2.7059045512     1.1044355165
   14      H       1.7007535708     3.2397038999    -0.5842985117
   15      H       2.5287227881     1.7616291120    -0.0271369878
   16      O      -0.7000668630     2.1093111605    -0.5101233970
   17      O       1.0887732243     1.0912620432    -2.1773382761
   18      H       0.2302542164     0.9484988635    -2.5902975520
 ----------------------------------------------------------------
 Nuclear Repulsion Energy =   530.2225584250 hartrees
 There are       40 alpha and       40 beta electrons
 Discretize the solute cavity surface with Lebedev spheres
	Using 110 Lebedev grid points for each H atom
	Using 110 Lebedev grid points for other atoms
	Atomic van der Waals radii will be scaled by 1.20
 Remove points where switching function is < 1.0e-08
 Keep 1104 surface tesserae and discard 876 interior tesserae
 Molecular Surface Area = 196.203 Angst**2
 Requested basis set is def2-TZVPD
 There are 175 shells and 457 basis functions
 A cutoff of  1.0D-14 yielded  13786 shell pairs
 There are     93898 function pairs (    119291 Cartesian)
 Smallest overlap matrix eigenvalue = 4.01E-06
 Guess MOs from SCF MO coefficient file
 Reading MOs from coefficient file
 Reading MOs from coefficient file
 Long-range K will be added via erf
 Coulomb attenuation parameter = 0.3 bohr**(-1)
 A restricted hybrid HF-DFT SCF calculation will be
 performed using Pulay DIIS extrapolation
 Polarizable Continuum solvation model will be applied
 Exchange:     0.1670 Hartree-Fock + 1.0000 wB97X-V + LR-HF
 Correlation:  1.0000 wB97X-V
 Using SG-2 standard quadrature grid
 Nonlocal Correlation:  VV10 with C = 0.0100 and b = 6.00
 Grid used for NLC:  SG-1 standard quadrature
 SCF converges when DIIS error is below 1.0E-08
Using Q-Chem read-in guess as SCF_GUESS READ specified.

 using 4 threads for integral computing
 -------------------------------------------------------
 OpenMP Integral computing Module                
 Release: version 1.0, May 2013, Q-Chem Inc. Pittsburgh 
 -------------------------------------------------------
 using 4 threads for integral computing
 -------------------------------------------------------
 OpenMP Integral computing Module                
 Release: version 1.0, May 2013, Q-Chem Inc. Pittsburgh 
 -------------------------------------------------------
 -------------------------------------------------------
 OpenMP BLAS3 based DFT computing Module                
 Release: version 1.0, May 2013, Q-Chem Inc. Pittsburgh 
 -------------------------------------------------------
 -------------------------------------------------------
 OpenMP BLAS3 based DFT computing Module                
 Release: version 1.0, May 2013, Q-Chem Inc. Pittsburgh 
 -------------------------------------------------------
 -------------------------------------------------------
 OpenMP BLAS3 based DFT computing Module                
 Release: version 1.0, May 2013, Q-Chem Inc. Pittsburgh 
 -------------------------------------------------------
 ---------------------------------------
  Cycle       Energy         DIIS Error
 ---------------------------------------
    1    -571.4968305598      3.37E-04
    2    -571.7953430849      3.73E-04
    3    -571.8002937290      1.73E-04
    4    -571.8010909919      1.23E-04
    5    -571.8016071390      9.24E-05
    6    -571.8019113147      6.87E-05
    7    -571.8021521097      4.16E-05
    8    -571.8022643964      1.83E-05
    9    -571.8022898264      4.84E-06
   10    -571.8022916122      1.23E-06
   11    -571.8022917265      1.90E-07
   12    -571.8022917293      4.36E-08
   13    -571.8022917295      2.05E-08
   14    -571.8022917295      7.04E-09 Convergence criterion met
 ---------------------------------------

************** Final PCM Free Energy Summary **************
 G_electrostatic  =      -0.30490200 hartree =    -191.32889297 kcal/mol
 G_cavitation     =       0.00000000 hartree =       0.00000000 kcal/mol
 G_dispersion     =       0.00000000 hartree =       0.00000000 kcal/mol
 G_repulsion      =       0.00000000 hartree =       0.00000000 kcal/mol
 --------------------------------------------------
 Non-electrostatic Free Energy =       0.00000000 hartree =       0.00000000 kcal/mol
 Total                         =      -0.30490200 hartree =    -191.32889297 kcal/mol
 --------------------------------------------------
 SCF Energy (H0 + V/2)                       =    -571.80229173 
 Solute Internal Energy (H0)                 =    -571.49738973 
 Total Free Energy (H0 + V/2 + non-elec)     =    -571.80229173 hartree
                                             = -358811.35359977 kcal/mol
***********************************************************

 SCF time:  CPU 3033.57 s  wall 784.70 s
 SCF   energy in the final basis set = -571.80229173
 Total energy in the final basis set = -571.80229173
 
 --------------------------------------------------------------
 
                    Orbital Energies (a.u.)
 --------------------------------------------------------------
 
 Alpha MOs
 -- Occupied --
-19.218 -19.152 -19.142 -19.139 -19.103 -10.383 -10.344 -10.298
-10.250 -10.246  -1.197  -1.145  -1.102  -1.051  -0.985  -0.894
 -0.844  -0.751  -0.664  -0.606  -0.593  -0.574  -0.559  -0.546
 -0.527  -0.515  -0.507  -0.488  -0.469  -0.461  -0.451  -0.432
 -0.430  -0.380  -0.355  -0.348  -0.336  -0.332  -0.319  -0.308
 -- Virtual --
  0.059   0.072   0.082   0.088   0.100   0.102   0.108   0.116
  0.126   0.129   0.132   0.140   0.144   0.154   0.157   0.163
  0.174   0.177   0.185   0.187   0.193   0.207   0.213   0.220
  0.222   0.236   0.242   0.245   0.254   0.260   0.267   0.268
  0.274   0.289   0.293   0.300   0.304   0.314   0.315   0.322
  0.327   0.339   0.341   0.348   0.355   0.359   0.361   0.371
  0.372   0.384   0.385   0.388   0.393   0.395   0.402   0.407
  0.410   0.415   0.419   0.425   0.434   0.441   0.448   0.448
  0.452   0.456   0.463   0.472   0.478   0.481   0.482   0.490
  0.497   0.500   0.506   0.513   0.515   0.523   0.527   0.536
  0.545   0.551   0.560   0.564   0.569   0.575   0.578   0.585
  0.591   0.599   0.613   0.617   0.621   0.629   0.637   0.641
  0.651   0.654   0.657   0.665   0.668   0.680   0.684   0.689
  0.708   0.712   0.723   0.730   0.742   0.748   0.755   0.769
  0.772   0.778   0.780   0.791   0.792   0.799   0.803   0.815
  0.816   0.819   0.829   0.834   0.844   0.848   0.854   0.862
  0.867   0.879   0.884   0.888   0.893   0.897   0.914   0.924
  0.928   0.942   0.954   0.962   0.967   0.980   1.011   1.030
  1.034   1.043   1.050   1.061   1.073   1.083   1.101   1.105
  1.109   1.127   1.137   1.151   1.163   1.173   1.182   1.200
  1.213   1.219   1.230   1.258   1.272   1.293   1.301   1.311
  1.324   1.336   1.349   1.375   1.387   1.397   1.400   1.416
  1.424   1.451   1.459   1.469   1.481   1.489   1.535   1.560
  1.565   1.610   1.652   1.681   1.707   1.748   1.761   1.806
  1.828   1.847   1.871   1.875   1.898   1.930   1.938   1.945
  1.951   1.958   1.973   1.977   1.982   1.993   1.996   2.005
  2.019   2.026   2.048   2.071   2.104   2.119   2.145   2.165
  2.178   2.195   2.218   2.234   2.242   2.261   2.270   2.294
  2.298   2.317   2.322   2.345   2.358   2.382   2.402   2.409
  2.424   2.452   2.479   2.488   2.501   2.527   2.535   2.562
  2.580   2.616   2.634   2.642   2.663   2.681   2.690   2.713
  2.740   2.747   2.750   2.799   2.821   2.836   2.874   2.883
  2.894   2.921   2.930   2.946   2.971   2.974   3.011   3.028
  3.047   3.073   3.078   3.099   3.113   3.120   3.156   3.184
  3.186   3.222   3.240   3.263   3.284   3.305   3.314   3.327
  3.341   3.361   3.382   3.410   3.415   3.425   3.441   3.446
  3.459   3.476   3.489   3.513   3.531   3.543   3.551   3.553
  3.583   3.607   3.615   3.622   3.644   3.657   3.665   3.678
  3.681   3.700   3.706   3.726   3.747   3.767   3.783   3.798
  3.799   3.829   3.858   3.907   3.957   3.978   3.994   4.065
  4.089   4.103   4.135   4.146   4.173   4.181   4.216   4.258
  4.303   4.331   4.461   4.540   4.601   4.635   4.638   4.704
  4.713   4.729   4.772   4.806   4.828   4.870   4.921   5.053
  5.079   5.137   5.205   5.323   5.345   5.360   5.370   5.376
  5.380   5.406   5.457   5.481   5.501   5.509   5.547   5.584
  5.664   5.682   5.709   5.711   5.730   5.748   5.779   5.931
  5.999   6.036   6.176   6.230   6.248   6.313   6.332   6.425
  6.458   6.493   6.612   6.630   6.639   6.694   6.697   6.724
  6.747   6.748   6.751   6.774   6.811   6.848   6.894   6.930
  6.961   6.966   7.015   7.048   7.144   7.189   7.254   7.284
  7.353   7.363   7.389   7.409   7.413   7.580   7.660  22.697
 22.856  22.913  23.507  23.736  44.097  44.262  44.430  44.477
 44.687
 --------------------------------------------------------------
 
          Ground-State Mulliken Net Atomic Charges

     Atom                 Charge (a.u.)
  ----------------------------------------
      1 C                    -0.054697
      2 C                     0.033524
      3 O                    -0.707979
      4 O                    -0.691278
      5 C                    -0.220921
      6 H                     0.237677
      7 H                     0.240760
      8 O                    -0.204218
      9 H                     0.181765
     10 H                     0.178699
     11 C                     0.666535
     12 C                    -0.930771
     13 H                     0.250518
     14 H                     0.212937
     15 H                     0.196434
     16 O                    -0.643948
     17 O                    -0.956643
     18 H                     0.211608
  ----------------------------------------
  Sum of atomic charges =    -2.000000

 -----------------------------------------------------------------
                    Cartesian Multipole Moments
 -----------------------------------------------------------------
    Charge (ESU x 10^10)
                -9.6064
    Dipole Moment (Debye)
         X       7.3709      Y       8.9068      Z       4.9397
       Tot      12.5723
    Quadrupole Moments (Debye-Ang)
        XX     -98.5092     XY     -31.5068     YY    -138.5258
        XZ      14.7714     YZ      25.8745     ZZ     -85.7308
    Octopole Moments (Debye-Ang^2)
       XXX     127.7540    XXY      90.9341    XYY     141.7977
       YYY     277.9084    XXZ      11.2412    XYZ      -9.9642
       YYZ     -45.0238    XZZ      -4.3403    YZZ      21.3039
       ZZZ      39.6719
    Hexadecapole Moments (Debye-Ang^3)
      XXXX    -957.0257   XXXY    -625.5774   XXYY    -695.0371
      XYYY    -798.2105   YYYY   -2918.8594   XXXZ     137.3437
      XXYZ     128.0336   XYYZ     130.5986   YYYZ     545.7297
      XXZZ    -249.3634   XYZZ    -197.5711   YYZZ    -510.3889
      XZZZ     190.1289   YZZZ     320.5021   ZZZZ    -548.1500
 -----------------------------------------------------------------
 Calculating analytic gradient of the SCF energy
 Gradient of SCF Energy
            1           2           3           4           5           6
    1   0.0637419  -0.0278976  -0.0005095   0.0489212  -0.0965414  -0.0453908
    2   0.0038156  -0.0284014   0.0507720  -0.0097781  -0.0127598   0.0292778
    3   0.0326876  -0.0051891  -0.0219525   0.0239946  -0.0449125   0.0340648
            7           8           9          10          11          12
    1  -0.0042970   0.0040061   0.0554616   0.0096896  -0.0843016   0.0719596
    2  -0.0104192   0.0224646  -0.0318987   0.0019741  -0.0383628   0.0671189
    3  -0.0594160  -0.0019155  -0.0287821   0.0773407   0.0158403  -0.0069825
           13          14          15          16          17          18
    1   0.0042024  -0.0036030  -0.0626358   0.0545066  -0.0423038   0.0549915
    2  -0.0202778  -0.0650465   0.0463414  -0.0079713  -0.0160097   0.0191608
    3  -0.0641922   0.0452930   0.0068114   0.0137344  -0.0474974   0.0310730
 Max gradient component =       9.654E-02
 RMS gradient           =       4.106E-02
 Computing fast CPCM-ISWIG gradient
 Updating gradient with PCM contributions...
 -- total gradient after adding PCM contribution --
---------------------------------------------------
  Atom         X              Y              Z     
---------------------------------------------------
   1      -0.001012       0.000089       0.000025
   2       0.000224       0.000098       0.000019
   3      -0.000043       0.000039       0.000059
   4       0.000071       0.000035       0.000031
   5       0.000170      -0.000084       0.000031
   6       0.000396      -0.000158      -0.000119
   7       0.000066       0.000054       0.000135
   8      -0.000004       0.000097      -0.000028
   9      -0.000006      -0.000030      -0.000010
  10       0.000020      -0.000027      -0.000005
  11       0.000025      -0.000017      -0.000021
  12      -0.000001       0.000005      -0.000009
  13      -0.000022       0.000023      -0.000024
  14       0.000015      -0.000013      -0.000031
  15       0.000000      -0.000002       0.000019
  16       0.000004      -0.000012      -0.000059
  17       0.000036      -0.000048      -0.000009
  18       0.000062      -0.000049      -0.000005
---------------------------------------------------
 Number of fixed atoms: 0
 Gradient time:  CPU 716.48 s  wall 185.25 s
 ----------------------------------------------------------------
             Standard Nuclear Orientation (Angstroms)
    I     Atom           X                Y                Z
 ----------------------------------------------------------------
    1      C      -0.4145495416    -1.8206165947     0.7743300517
    2      C      -1.5717537952    -2.8305026394     0.7023353861
    3      O      -1.3657228904    -3.9465585792     1.2483796539
    4      O      -2.6284284471    -2.4854512509     0.1144737446
    5      C      -0.7024203578    -0.4869274322     0.1181404703
    6      H       0.4645236757    -2.2850044451     0.3124175116
    7      H      -0.1659257874    -1.6712945434     1.8310915806
    8      O       0.4624326554     0.3289425804     0.2713984245
    9      H      -1.5623951677     0.0025620908     0.5827031853
   10      H      -0.9173283186    -0.6069440670    -0.9486953398
   11      C       0.3925694485     1.5779836538    -0.2874018957
   12      C       1.6282782235     2.3685015968     0.0655864346
   13      H       1.5322833662     2.7059045512     1.1044355165
   14      H       1.7007535708     3.2397038999    -0.5842985117
   15      H       2.5287227881     1.7616291120    -0.0271369878
   16      O      -0.7000668630     2.1093111605    -0.5101233970
   17      O       1.0887732243     1.0912620432    -2.1773382761
   18      H       0.2302542164     0.9484988635    -2.5902975520
 ----------------------------------------------------------------
 Nuclear Repulsion Energy =   530.2199829473 hartrees
 There are       40 alpha and       40 beta electrons
 Discretize the solute cavity surface with Lebedev spheres
	Using 110 Lebedev grid points for each H atom
	Using 110 Lebedev grid points for other atoms
	Atomic van der Waals radii will be scaled by 1.20
 Remove points where switching function is < 1.0e-08
 Keep 1104 surface tesserae and discard 876 interior tesserae
 Molecular Surface Area = 196.210 Angst**2
 Requested basis set is def2-TZVPD
 There are 175 shells and 457 basis functions
 A cutoff of  1.0D-14 yielded  13786 shell pairs
 There are     93898 function pairs (    119291 Cartesian)
 Smallest overlap matrix eigenvalue = 4.00E-06
 Guess MOs from SCF MO coefficient file
 Reading MOs from coefficient file
 Reading MOs from coefficient file
 Long-range K will be added via erf
 Coulomb attenuation parameter = 0.3 bohr**(-1)
 A restricted hybrid HF-DFT SCF calculation will be
 performed using Pulay DIIS extrapolation
 Polarizable Continuum solvation model will be applied
 Exchange:     0.1670 Hartree-Fock + 1.0000 wB97X-V + LR-HF
 Correlation:  1.0000 wB97X-V
 Using SG-2 standard quadrature grid
 Nonlocal Correlation:  VV10 with C = 0.0100 and b = 6.00
 Grid used for NLC:  SG-1 standard quadrature
 SCF converges when DIIS error is below 1.0E-08
Using Q-Chem read-in guess as SCF_GUESS READ specified.

 using 4 threads for integral computing
 -------------------------------------------------------
 OpenMP Integral computing Module                
 Release: version 1.0, May 2013, Q-Chem Inc. Pittsburgh 
 -------------------------------------------------------
 using 4 threads for integral computing
 -------------------------------------------------------
 OpenMP Integral computing Module                
 Release: version 1.0, May 2013, Q-Chem Inc. Pittsburgh 
 -------------------------------------------------------
 -------------------------------------------------------
 OpenMP BLAS3 based DFT computing Module                
 Release: version 1.0, May 2013, Q-Chem Inc. Pittsburgh 
 -------------------------------------------------------
 -------------------------------------------------------
 OpenMP BLAS3 based DFT computing Module                
 Release: version 1.0, May 2013, Q-Chem Inc. Pittsburgh 
 -------------------------------------------------------
 -------------------------------------------------------
 OpenMP BLAS3 based DFT computing Module                
 Release: version 1.0, May 2013, Q-Chem Inc. Pittsburgh 
 -------------------------------------------------------
 ---------------------------------------
  Cycle       Energy         DIIS Error
 ---------------------------------------
    1    -571.4975449083      3.36E-04
    2    -571.7953356662      3.73E-04
    3    -571.8002891975      1.73E-04
    4    -571.8010865591      1.23E-04
    5    -571.8015920512      9.35E-05
    6    -571.8018756000      7.19E-05
    7    -571.8021012161      4.86E-05
    8    -571.8022364925      2.61E-05
    9    -571.8022853383      8.92E-06
   10    -571.8022912307      2.57E-06
   11    -571.8022917433      3.63E-07
   12    -571.8022917535      5.63E-08
   13    -571.8022917537      2.33E-08
   14    -571.8022917537      9.20E-09 Convergence criterion met
 ---------------------------------------

************** Final PCM Free Energy Summary **************
 G_electrostatic  =      -0.30489605 hartree =    -191.32515732 kcal/mol
 G_cavitation     =       0.00000000 hartree =       0.00000000 kcal/mol
 G_dispersion     =       0.00000000 hartree =       0.00000000 kcal/mol
 G_repulsion      =       0.00000000 hartree =       0.00000000 kcal/mol
 --------------------------------------------------
 Non-electrostatic Free Energy =       0.00000000 hartree =       0.00000000 kcal/mol
 Total                         =      -0.30489605 hartree =    -191.32515732 kcal/mol
 --------------------------------------------------
 SCF Energy (H0 + V/2)                       =    -571.80229175 
 Solute Internal Energy (H0)                 =    -571.49739571 
 Total Free Energy (H0 + V/2 + non-elec)     =    -571.80229175 hartree
                                             = -358811.35361497 kcal/mol
***********************************************************

 SCF time:  CPU 3033.97 s  wall 784.80 s
 SCF   energy in the final basis set = -571.80229175
 Total energy in the final basis set = -571.80229175
 
 --------------------------------------------------------------
 
                    Orbital Energies (a.u.)
 --------------------------------------------------------------
 
 Alpha MOs
 -- Occupied --
-19.218 -19.152 -19.142 -19.139 -19.103 -10.383 -10.344 -10.298
-10.250 -10.246  -1.197  -1.145  -1.102  -1.051  -0.985  -0.894
 -0.844  -0.751  -0.664  -0.606  -0.593  -0.574  -0.559  -0.546
 -0.527  -0.515  -0.506  -0.488  -0.469  -0.461  -0.451  -0.432
 -0.430  -0.380  -0.355  -0.348  -0.336  -0.332  -0.319  -0.308
 -- Virtual --
  0.059   0.072   0.082   0.088   0.100   0.102   0.108   0.116
  0.126   0.129   0.132   0.140   0.144   0.154   0.157   0.163
  0.174   0.177   0.185   0.187   0.193   0.207   0.213   0.220
  0.222   0.236   0.242   0.245   0.254   0.260   0.267   0.268
  0.274   0.289   0.293   0.300   0.304   0.314   0.315   0.322
  0.327   0.339   0.341   0.348   0.355   0.359   0.361   0.371
  0.372   0.384   0.385   0.388   0.393   0.396   0.402   0.407
  0.410   0.415   0.419   0.424   0.434   0.441   0.447   0.448
  0.452   0.455   0.463   0.472   0.478   0.481   0.482   0.490
  0.497   0.500   0.506   0.513   0.515   0.523   0.527   0.536
  0.545   0.551   0.560   0.564   0.569   0.575   0.578   0.585
  0.592   0.599   0.613   0.617   0.621   0.629   0.637   0.641
  0.650   0.654   0.657   0.665   0.668   0.680   0.684   0.689
  0.707   0.712   0.723   0.730   0.742   0.748   0.755   0.768
  0.772   0.778   0.780   0.791   0.792   0.799   0.803   0.815
  0.816   0.819   0.829   0.834   0.844   0.848   0.854   0.862
  0.867   0.879   0.884   0.888   0.893   0.897   0.914   0.924
  0.928   0.942   0.954   0.962   0.967   0.980   1.011   1.030
  1.034   1.043   1.050   1.061   1.073   1.083   1.101   1.105
  1.109   1.127   1.137   1.150   1.163   1.173   1.182   1.200
  1.213   1.219   1.230   1.258   1.272   1.294   1.301   1.311
  1.324   1.336   1.350   1.375   1.387   1.397   1.400   1.416
  1.424   1.451   1.459   1.469   1.481   1.490   1.535   1.560
  1.565   1.610   1.652   1.681   1.707   1.748   1.761   1.806
  1.828   1.847   1.871   1.875   1.898   1.930   1.938   1.945
  1.951   1.958   1.973   1.978   1.982   1.993   1.996   2.005
  2.019   2.026   2.048   2.071   2.104   2.119   2.145   2.165
  2.178   2.195   2.218   2.234   2.242   2.260   2.269   2.294
  2.298   2.317   2.322   2.345   2.358   2.382   2.402   2.409
  2.424   2.452   2.479   2.488   2.501   2.527   2.535   2.562
  2.580   2.616   2.634   2.642   2.663   2.681   2.690   2.713
  2.740   2.748   2.750   2.799   2.821   2.836   2.874   2.883
  2.894   2.921   2.930   2.946   2.972   2.974   3.011   3.028
  3.047   3.073   3.078   3.099   3.113   3.120   3.156   3.184
  3.186   3.222   3.240   3.263   3.284   3.305   3.314   3.327
  3.341   3.361   3.382   3.410   3.414   3.425   3.441   3.446
  3.458   3.476   3.489   3.513   3.531   3.543   3.550   3.553
  3.583   3.607   3.616   3.622   3.644   3.657   3.665   3.678
  3.681   3.701   3.706   3.726   3.747   3.766   3.783   3.798
  3.799   3.829   3.858   3.907   3.957   3.978   3.994   4.065
  4.089   4.103   4.135   4.146   4.174   4.181   4.216   4.258
  4.303   4.331   4.460   4.540   4.602   4.635   4.638   4.705
  4.713   4.729   4.772   4.807   4.828   4.870   4.921   5.053
  5.079   5.137   5.205   5.323   5.345   5.360   5.370   5.376
  5.380   5.406   5.457   5.481   5.501   5.509   5.547   5.584
  5.664   5.682   5.709   5.711   5.729   5.748   5.779   5.931
  5.999   6.036   6.176   6.231   6.247   6.313   6.332   6.425
  6.458   6.493   6.612   6.630   6.639   6.694   6.697   6.724
  6.747   6.748   6.751   6.774   6.811   6.848   6.894   6.930
  6.960   6.966   7.015   7.048   7.144   7.189   7.254   7.284
  7.353   7.363   7.389   7.408   7.413   7.580   7.661  22.697
 22.856  22.913  23.507  23.735  44.097  44.262  44.430  44.477
 44.687
 --------------------------------------------------------------
 
          Ground-State Mulliken Net Atomic Charges

     Atom                 Charge (a.u.)
  ----------------------------------------
      1 C                    -0.056082
      2 C                     0.034160
      3 O                    -0.707908
      4 O                    -0.691161
      5 C                    -0.220189
      6 H                     0.237883
      7 H                     0.240942
      8 O                    -0.204144
      9 H                     0.181540
     10 H                     0.178514
     11 C                     0.666300
     12 C                    -0.930722
     13 H                     0.250509
     14 H                     0.212939
     15 H                     0.196425
     16 O                    -0.643964
     17 O                    -0.956647
     18 H                     0.211605
  ----------------------------------------
  Sum of atomic charges =    -2.000000

 -----------------------------------------------------------------
                    Cartesian Multipole Moments
 -----------------------------------------------------------------
    Charge (ESU x 10^10)
                -9.6064
    Dipole Moment (Debye)
         X       7.3687      Y       8.9050      Z       4.9396
       Tot      12.5696
    Quadrupole Moments (Debye-Ang)
        XX     -98.5064     XY     -31.5032     YY    -138.5180
        XZ      14.7704     YZ      25.8729     ZZ     -85.7301
    Octopole Moments (Debye-Ang^2)
       XXX     127.7267    XXY      90.9184    XYY     141.7753
       YYY     277.8458    XXZ      11.2421    XYZ      -9.9602
       YYZ     -45.0122    XZZ      -4.3487    YZZ      21.2932
       ZZZ      39.6754
    Hexadecapole Moments (Debye-Ang^3)
      XXXX    -956.9735   XXXY    -625.5168   XXYY    -694.9782
      XYYY    -798.1126   YYYY   -2918.5630   XXXZ     137.3304
      XXYZ     128.0245   XYYZ     130.5777   YYYZ     545.6670
      XXZZ    -249.3578   XYZZ    -197.5545   YYZZ    -510.3512
      XZZZ     190.1141   YZZZ     320.4811   ZZZZ    -548.1442
 -----------------------------------------------------------------
 Calculating analytic gradient of the SCF energy
 Gradient of SCF Energy
            1           2           3           4           5           6
    1   0.0645321  -0.0282843  -0.0005129   0.0488914  -0.0967065  -0.0455542
    2   0.0042257  -0.0287499   0.0507382  -0.0097716  -0.0128448   0.0294501
    3   0.0328546  -0.0051906  -0.0219413   0.0239789  -0.0449817   0.0341497
            7           8           9          10          11          12
    1  -0.0043204   0.0039983   0.0554632   0.0096936  -0.0843269   0.0719726
    2  -0.0103879   0.0223768  -0.0319226   0.0019242  -0.0383630   0.0671341
    3  -0.0596539  -0.0018913  -0.0287519   0.0773457   0.0158415  -0.0069837
           13          14          15          16          17          18
    1   0.0042007  -0.0036019  -0.0626427   0.0545093  -0.0423024   0.0549911
    2  -0.0202815  -0.0650527   0.0463428  -0.0079702  -0.0160087   0.0191610
    3  -0.0641969   0.0452961   0.0068138   0.0137345  -0.0474967   0.0310732
 Max gradient component =       9.671E-02
 RMS gradient           =       4.112E-02
 Computing fast CPCM-ISWIG gradient
 Updating gradient with PCM contributions...
 -- total gradient after adding PCM contribution --
---------------------------------------------------
  Atom         X              Y              Z     
---------------------------------------------------
   1      -0.000092       0.000989       0.000033
   2      -0.000094      -0.000203       0.000010
   3      -0.000086      -0.000054       0.000079
   4       0.000002       0.000023       0.000006
   5       0.000056      -0.000337       0.000086
   6       0.000161      -0.000168      -0.000031
   7      -0.000055      -0.000063      -0.000040
   8      -0.000016      -0.000051       0.000028
   9      -0.000004      -0.000015      -0.000018
  10       0.000021      -0.000010      -0.000008
  11       0.000005      -0.000010      -0.000034
  12      -0.000000       0.000002      -0.000007
  13      -0.000022       0.000023      -0.000024
  14       0.000014      -0.000014      -0.000031
  15      -0.000000      -0.000001       0.000019
  16       0.000012      -0.000011      -0.000057
  17       0.000035      -0.000048      -0.000007
  18       0.000062      -0.000049      -0.000005
---------------------------------------------------
 Number of fixed atoms: 0
 Gradient time:  CPU 716.05 s  wall 185.24 s
 ----------------------------------------------------------------
             Standard Nuclear Orientation (Angstroms)
    I     Atom           X                Y                Z
 ----------------------------------------------------------------
    1      C      -0.4145495416    -1.8226165947     0.7743300517
    2      C      -1.5717537952    -2.8305026394     0.7023353861
    3      O      -1.3657228904    -3.9465585792     1.2483796539
    4      O      -2.6284284471    -2.4854512509     0.1144737446
    5      C      -0.7024203578    -0.4869274322     0.1181404703
    6      H       0.4645236757    -2.2850044451     0.3124175116
    7      H      -0.1659257874    -1.6712945434     1.8310915806
    8      O       0.4624326554     0.3289425804     0.2713984245
    9      H      -1.5623951677     0.0025620908     0.5827031853
   10      H      -0.9173283186    -0.6069440670    -0.9486953398
   11      C       0.3925694485     1.5779836538    -0.2874018957
   12      C       1.6282782235     2.3685015968     0.0655864346
   13      H       1.5322833662     2.7059045512     1.1044355165
   14      H       1.7007535708     3.2397038999    -0.5842985117
   15      H       2.5287227881     1.7616291120    -0.0271369878
   16      O      -0.7000668630     2.1093111605    -0.5101233970
   17      O       1.0887732243     1.0912620432    -2.1773382761
   18      H       0.2302542164     0.9484988635    -2.5902975520
 ----------------------------------------------------------------
 Nuclear Repulsion Energy =   530.2083379512 hartrees
 There are       40 alpha and       40 beta electrons
 Discretize the solute cavity surface with Lebedev spheres
	Using 110 Lebedev grid points for each H atom
	Using 110 Lebedev grid points for other atoms
	Atomic van der Waals radii will be scaled by 1.20
 Remove points where switching function is < 1.0e-08
 Keep 1103 surface tesserae and discard 877 interior tesserae
 Molecular Surface Area = 196.199 Angst**2
 Requested basis set is def2-TZVPD
 There are 175 shells and 457 basis functions
 A cutoff of  1.0D-14 yielded  13786 shell pairs
 There are     93898 function pairs (    119291 Cartesian)
 Smallest overlap matrix eigenvalue = 4.02E-06
 Guess MOs from SCF MO coefficient file
 Reading MOs from coefficient file
 Reading MOs from coefficient file
 Long-range K will be added via erf
 Coulomb attenuation parameter = 0.3 bohr**(-1)
 A restricted hybrid HF-DFT SCF calculation will be
 performed using Pulay DIIS extrapolation
 Polarizable Continuum solvation model will be applied
 Exchange:     0.1670 Hartree-Fock + 1.0000 wB97X-V + LR-HF
 Correlation:  1.0000 wB97X-V
 Using SG-2 standard quadrature grid
 Nonlocal Correlation:  VV10 with C = 0.0100 and b = 6.00
 Grid used for NLC:  SG-1 standard quadrature
 SCF converges when DIIS error is below 1.0E-08
Using Q-Chem read-in guess as SCF_GUESS READ specified.

 using 4 threads for integral computing
 -------------------------------------------------------
 OpenMP Integral computing Module                
 Release: version 1.0, May 2013, Q-Chem Inc. Pittsburgh 
 -------------------------------------------------------
 using 4 threads for integral computing
 -------------------------------------------------------
 OpenMP Integral computing Module                
 Release: version 1.0, May 2013, Q-Chem Inc. Pittsburgh 
 -------------------------------------------------------
 -------------------------------------------------------
 OpenMP BLAS3 based DFT computing Module                
 Release: version 1.0, May 2013, Q-Chem Inc. Pittsburgh 
 -------------------------------------------------------
 -------------------------------------------------------
 OpenMP BLAS3 based DFT computing Module                
 Release: version 1.0, May 2013, Q-Chem Inc. Pittsburgh 
 -------------------------------------------------------
 -------------------------------------------------------
 OpenMP BLAS3 based DFT computing Module                
 Release: version 1.0, May 2013, Q-Chem Inc. Pittsburgh 
 -------------------------------------------------------
 ---------------------------------------
  Cycle       Energy         DIIS Error
 ---------------------------------------
    1    -571.4976673966      3.37E-04
    2    -571.7953453132      3.73E-04
    3    -571.8002935538      1.73E-04
    4    -571.8010906057      1.23E-04
    5    -571.8016060957      9.25E-05
    6    -571.8019134019      6.85E-05
    7    -571.8021569297      4.09E-05
    8    -571.8022666407      1.76E-05
    9    -571.8022901439      4.52E-06
   10    -571.8022917035      1.18E-06
   11    -571.8022918082      1.72E-07
   12    -571.8022918106      4.31E-08
   13    -571.8022918107      1.70E-08
   14    -571.8022918107      6.49E-09 Convergence criterion met
 ---------------------------------------

************** Final PCM Free Energy Summary **************
 G_electrostatic  =      -0.30490475 hartree =    -191.33061650 kcal/mol
 G_cavitation     =       0.00000000 hartree =       0.00000000 kcal/mol
 G_dispersion     =       0.00000000 hartree =       0.00000000 kcal/mol
 G_repulsion      =       0.00000000 hartree =       0.00000000 kcal/mol
 --------------------------------------------------
 Non-electrostatic Free Energy =       0.00000000 hartree =       0.00000000 kcal/mol
 Total                         =      -0.30490475 hartree =    -191.33061650 kcal/mol
 --------------------------------------------------
 SCF Energy (H0 + V/2)                       =    -571.80229181 
 Solute Internal Energy (H0)                 =    -571.49738706 
 Total Free Energy (H0 + V/2 + non-elec)     =    -571.80229181 hartree
                                             = -358811.35365074 kcal/mol
***********************************************************

 SCF time:  CPU 3038.28 s  wall 788.18 s
 SCF   energy in the final basis set = -571.80229181
 Total energy in the final basis set = -571.80229181
 
 --------------------------------------------------------------
 
                    Orbital Energies (a.u.)
 --------------------------------------------------------------
 
 Alpha MOs
 -- Occupied --
-19.218 -19.152 -19.142 -19.139 -19.103 -10.383 -10.344 -10.298
-10.250 -10.246  -1.197  -1.145  -1.102  -1.051  -0.985  -0.894
 -0.844  -0.751  -0.664  -0.606  -0.593  -0.574  -0.559  -0.546
 -0.527  -0.515  -0.507  -0.488  -0.469  -0.461  -0.451  -0.432
 -0.430  -0.380  -0.355  -0.348  -0.336  -0.332  -0.319  -0.308
 -- Virtual --
  0.059   0.072   0.082   0.088   0.100   0.102   0.108   0.116
  0.126   0.129   0.132   0.140   0.144   0.154   0.157   0.163
  0.174   0.177   0.185   0.187   0.193   0.207   0.213   0.220
  0.222   0.236   0.242   0.245   0.254   0.260   0.267   0.268
  0.274   0.289   0.293   0.300   0.304   0.314   0.315   0.322
  0.327   0.339   0.341   0.348   0.355   0.359   0.361   0.371
  0.372   0.384   0.384   0.388   0.393   0.395   0.402   0.407
  0.410   0.415   0.419   0.425   0.434   0.441   0.447   0.448
  0.452   0.456   0.463   0.472   0.478   0.481   0.482   0.490
  0.497   0.500   0.506   0.513   0.515   0.523   0.527   0.536
  0.545   0.551   0.560   0.564   0.569   0.575   0.578   0.585
  0.591   0.598   0.613   0.617   0.621   0.629   0.637   0.641
  0.651   0.654   0.657   0.664   0.668   0.680   0.684   0.689
  0.707   0.712   0.723   0.730   0.742   0.748   0.755   0.768
  0.772   0.778   0.780   0.791   0.792   0.799   0.803   0.815
  0.816   0.819   0.830   0.834   0.845   0.848   0.854   0.862
  0.867   0.879   0.884   0.888   0.893   0.897   0.914   0.924
  0.928   0.942   0.954   0.962   0.967   0.980   1.011   1.030
  1.034   1.043   1.050   1.061   1.073   1.083   1.101   1.105
  1.109   1.127   1.137   1.151   1.163   1.173   1.182   1.200
  1.213   1.219   1.230   1.257   1.272   1.293   1.301   1.311
  1.324   1.336   1.349   1.375   1.387   1.397   1.400   1.416
  1.423   1.451   1.458   1.469   1.481   1.489   1.535   1.559
  1.565   1.609   1.652   1.681   1.707   1.748   1.761   1.806
  1.828   1.847   1.871   1.875   1.898   1.930   1.938   1.944
  1.951   1.958   1.973   1.978   1.982   1.993   1.996   2.005
  2.019   2.026   2.048   2.071   2.104   2.119   2.145   2.165
  2.178   2.195   2.218   2.234   2.242   2.260   2.269   2.294
  2.298   2.317   2.322   2.345   2.358   2.382   2.402   2.409
  2.424   2.452   2.479   2.488   2.501   2.527   2.535   2.562
  2.581   2.616   2.634   2.642   2.663   2.680   2.689   2.713
  2.740   2.748   2.750   2.799   2.821   2.836   2.874   2.882
  2.894   2.921   2.930   2.946   2.971   2.974   3.011   3.028
  3.047   3.073   3.077   3.099   3.113   3.120   3.156   3.184
  3.186   3.222   3.240   3.263   3.284   3.305   3.314   3.327
  3.341   3.361   3.382   3.410   3.415   3.425   3.441   3.446
  3.459   3.475   3.489   3.513   3.531   3.543   3.551   3.553
  3.583   3.607   3.615   3.622   3.643   3.657   3.665   3.678
  3.681   3.700   3.706   3.726   3.747   3.767   3.783   3.798
  3.799   3.829   3.858   3.907   3.957   3.978   3.994   4.065
  4.089   4.103   4.135   4.146   4.173   4.181   4.216   4.258
  4.303   4.331   4.460   4.540   4.600   4.635   4.638   4.705
  4.713   4.729   4.772   4.807   4.828   4.870   4.921   5.053
  5.079   5.137   5.205   5.323   5.345   5.360   5.370   5.376
  5.380   5.406   5.457   5.481   5.501   5.509   5.547   5.584
  5.664   5.682   5.709   5.711   5.730   5.748   5.779   5.931
  5.999   6.036   6.176   6.230   6.248   6.313   6.332   6.425
  6.458   6.493   6.612   6.630   6.639   6.694   6.697   6.724
  6.747   6.748   6.751   6.774   6.811   6.848   6.894   6.930
  6.960   6.966   7.015   7.048   7.144   7.189   7.254   7.284
  7.353   7.363   7.389   7.409   7.413   7.580   7.660  22.697
 22.856  22.913  23.507  23.736  44.097  44.262  44.430  44.477
 44.687
 --------------------------------------------------------------
 
          Ground-State Mulliken Net Atomic Charges

     Atom                 Charge (a.u.)
  ----------------------------------------
      1 C                    -0.055369
      2 C                     0.034232
      3 O                    -0.707931
      4 O                    -0.691245
      5 C                    -0.221800
      6 H                     0.238469
      7 H                     0.240253
      8 O                    -0.204189
      9 H                     0.182143
     10 H                     0.178842
     11 C                     0.666536
     12 C                    -0.930794
     13 H                     0.250496
     14 H                     0.212937
     15 H                     0.196420
     16 O                    -0.643952
     17 O                    -0.956657
     18 H                     0.211608
  ----------------------------------------
  Sum of atomic charges =    -2.000000

 -----------------------------------------------------------------
                    Cartesian Multipole Moments
 -----------------------------------------------------------------
    Charge (ESU x 10^10)
                -9.6064
    Dipole Moment (Debye)
         X       7.3713      Y       8.9060      Z       4.9394
       Tot      12.5718
    Quadrupole Moments (Debye-Ang)
        XX     -98.5075     XY     -31.5096     YY    -138.5269
        XZ      14.7722     YZ      25.8781     ZZ     -85.7318
    Octopole Moments (Debye-Ang^2)
       XXX     127.7344    XXY      90.9345    XYY     141.8013
       YYY     277.9291    XXZ      11.2379    XYZ      -9.9692
       YYZ     -45.0377    XZZ      -4.3450    YZZ      21.3113
       ZZZ      39.6735
    Hexadecapole Moments (Debye-Ang^3)
      XXXX    -956.9772   XXXY    -625.5532   XXYY    -695.0539
      XYYY    -798.2439   YYYY   -2919.0562   XXXZ     137.3445
      XXYZ     128.0541   XYYZ     130.6203   YYYZ     545.8045
      XXZZ    -249.3646   XYZZ    -197.5717   YYZZ    -510.4280
      XZZZ     190.1189   YZZZ     320.5263   ZZZZ    -548.1563
 -----------------------------------------------------------------
 Calculating analytic gradient of the SCF energy
 Gradient of SCF Energy
            1           2           3           4           5           6
    1   0.0645927  -0.0280704  -0.0004599   0.0489029  -0.0965817  -0.0460426
    2   0.0030960  -0.0283598   0.0507983  -0.0098160  -0.0123575   0.0295717
    3   0.0324794  -0.0051789  -0.0219652   0.0239810  -0.0449898   0.0343624
            7           8           9          10          11          12
    1  -0.0043616   0.0040369   0.0554640   0.0096963  -0.0842893   0.0719582
    2  -0.0104385   0.0224629  -0.0318867   0.0019857  -0.0383637   0.0671104
    3  -0.0594740  -0.0018891  -0.0288390   0.0774343   0.0158303  -0.0069717
           13          14          15          16          17          18
    1   0.0042011  -0.0036025  -0.0626390   0.0545085  -0.0423047   0.0549910
    2  -0.0202813  -0.0650450   0.0463409  -0.0079714  -0.0160097   0.0191634
    3  -0.0641933   0.0452895   0.0068153   0.0137350  -0.0474951   0.0310690
 Max gradient component =       9.658E-02
 RMS gradient           =       4.111E-02
 Computing fast CPCM-ISWIG gradient
 Updating gradient with PCM contributions...
 -- total gradient after adding PCM contribution --
---------------------------------------------------
  Atom         X              Y              Z     
---------------------------------------------------
   1       0.000059      -0.000958       0.000020
   2       0.000060       0.000234       0.000041
   3       0.000028       0.000114       0.000027
   4      -0.000003      -0.000020      -0.000017
   5      -0.000057       0.000342      -0.000104
[...]
 H          0.199  0.078  0.045    0.461  0.215  0.184    0.010 -0.239 -0.265
 H         -0.031 -0.043 -0.007   -0.453 -0.452  0.045   -0.404 -0.326 -0.379
 O         -0.059  0.060 -0.019    0.098 -0.049  0.014    0.043 -0.013  0.031
 O          0.010 -0.003 -0.016   -0.012  0.003  0.021    0.002 -0.007 -0.021
 H         -0.009  0.008  0.019    0.016 -0.004 -0.035    0.008 -0.011 -0.033
 TransDip  -0.042 -0.024 -0.087   -0.143  0.068  0.133    0.107  0.044 -0.306

 Mode:                25                     26                     27
 Frequency:      1087.46                1094.35                1122.10
 Force Cnst:      1.3759                 3.2954                 1.9919
 Red. Mass:       1.9747                 4.6703                 2.6851
 IR Active:          YES                    YES                    YES
 IR Intens:       15.462                192.268                 17.553
 Raman Active:       YES                    YES                    YES
               X      Y      Z        X      Y      Z        X      Y      Z
 C          0.059 -0.053 -0.153    0.039 -0.072  0.011    0.137 -0.187  0.131
 C         -0.066  0.063  0.154   -0.009  0.008  0.029    0.006  0.014 -0.001
 O          0.012 -0.015 -0.026    0.001  0.033 -0.020    0.011  0.025 -0.006
 O          0.013 -0.012 -0.029   -0.007 -0.007 -0.007   -0.024 -0.004 -0.009
 C         -0.027  0.058  0.126   -0.317 -0.158 -0.039   -0.106  0.207 -0.124
 H          0.390  0.283  0.161    0.139  0.166 -0.020    0.064 -0.399  0.195
 H         -0.468 -0.226  0.005   -0.028  0.085  0.001    0.064 -0.402  0.182
 O         -0.006 -0.029 -0.035    0.279  0.204  0.027    0.004 -0.069  0.027
 H         -0.249  0.086 -0.326   -0.257 -0.052 -0.090   -0.038  0.421 -0.206
 H          0.406 -0.193  0.059   -0.108 -0.127 -0.064   -0.025  0.439 -0.177
 C         -0.006 -0.002  0.009    0.040  0.009 -0.042   -0.012 -0.018 -0.006
 C          0.003  0.010 -0.009   -0.006 -0.124  0.093    0.011  0.008 -0.001
 H         -0.013 -0.024  0.002    0.094  0.240 -0.026    0.019  0.008  0.001
 H          0.042  0.030  0.023   -0.503 -0.313 -0.224    0.033  0.020  0.016
 H         -0.007 -0.009  0.018    0.168  0.178 -0.140    0.024  0.022  0.012
 O          0.003 -0.000 -0.003   -0.052  0.018 -0.002   -0.030  0.022 -0.009
 O         -0.001  0.000  0.002    0.000 -0.006 -0.002    0.003 -0.000 -0.005
 H         -0.000  0.002  0.002    0.008 -0.009 -0.015   -0.005  0.000  0.013
 TransDip  -0.024  0.074  0.099   -0.180 -0.406  0.006    0.094  0.087 -0.038

 Mode:                28                     29                     30
 Frequency:      1222.91                1227.37                1287.04
 Force Cnst:      1.0788                 2.9394                 1.4946
 Red. Mass:       1.2243                 3.3118                 1.5314
 IR Active:          YES                    YES                    YES
 IR Intens:       21.265                636.306                 15.375
 Raman Active:       YES                    YES                    YES
               X      Y      Z        X      Y      Z        X      Y      Z
 C         -0.004  0.000  0.003    0.009  0.017 -0.002    0.059  0.155 -0.036
 C          0.018 -0.021 -0.046    0.017  0.012 -0.012    0.020  0.042 -0.009
 O         -0.003  0.005  0.006    0.003 -0.019  0.011    0.003 -0.067  0.029
 O         -0.002  0.002  0.008   -0.013  0.006 -0.006   -0.016  0.007 -0.010
 C         -0.039  0.030  0.093    0.015  0.065  0.013   -0.030  0.032 -0.027
 H         -0.146 -0.358  0.098   -0.048 -0.160  0.063   -0.258 -0.521  0.049
 H          0.139  0.391 -0.084    0.026 -0.004  0.001   -0.292 -0.506  0.136
 O          0.021 -0.005 -0.048   -0.018 -0.145  0.031    0.040  0.006  0.014
 H         -0.378 -0.368 -0.104   -0.258 -0.347 -0.018   -0.162 -0.311  0.084
 H          0.480  0.340 -0.040   -0.032 -0.121  0.030   -0.141 -0.304  0.037
 C         -0.013 -0.037  0.004    0.114  0.375 -0.036   -0.019 -0.051  0.006
 C          0.000  0.012  0.000    0.001 -0.114  0.020   -0.003  0.008 -0.003
 H          0.043 -0.005  0.010   -0.376  0.064 -0.084    0.067  0.002  0.008
 H          0.055  0.016  0.011   -0.579 -0.188 -0.140    0.074  0.020  0.022
 H         -0.002  0.003  0.012    0.029 -0.006 -0.136    0.018  0.027  0.028
 O          0.001  0.007 -0.003   -0.007 -0.052  0.001   -0.005  0.014 -0.003
 O          0.000  0.001  0.002   -0.005 -0.010 -0.003    0.001  0.001 -0.001
 H         -0.003 -0.001  0.011    0.015  0.002 -0.046   -0.001  0.000  0.003
 TransDip  -0.042 -0.113  0.085    0.156  0.767 -0.201   -0.093  0.039 -0.075

 Mode:                31                     32                     33
 Frequency:      1299.92                1390.71                1411.19
 Force Cnst:      1.0954                 1.5512                 1.9620
 Red. Mass:       1.1002                 1.3613                 1.6721
 IR Active:          YES                    YES                    YES
 IR Intens:        0.855                 46.472                 90.001
 Raman Active:       YES                    YES                    YES
               X      Y      Z        X      Y      Z        X      Y      Z
 C         -0.024  0.019  0.055   -0.024 -0.040  0.005    0.041  0.054 -0.004
 C         -0.012  0.009  0.025   -0.011 -0.019  0.003    0.059  0.072 -0.005
 O          0.001  0.000 -0.004   -0.000  0.020 -0.008    0.002 -0.061  0.026
 O          0.002 -0.002 -0.002    0.009 -0.001  0.004   -0.040  0.006 -0.020
 C          0.021 -0.019 -0.047    0.017  0.065 -0.018   -0.031 -0.140  0.044
 H          0.076  0.446 -0.184    0.083  0.092  0.066   -0.162 -0.134 -0.178
 H         -0.044 -0.444  0.126    0.126  0.058 -0.040   -0.265 -0.037  0.070
 O          0.007 -0.007 -0.018    0.013 -0.006  0.008   -0.030 -0.007 -0.009
 H         -0.138 -0.474  0.153   -0.126 -0.218  0.026    0.243  0.465 -0.096
 H          0.131  0.489 -0.123   -0.134 -0.226  0.041    0.240  0.483 -0.079
 C         -0.002 -0.003 -0.001   -0.015  0.037 -0.009    0.021  0.075 -0.014
 C         -0.001  0.001  0.001   -0.109 -0.088 -0.032   -0.059 -0.063 -0.014
 H          0.008  0.002  0.001    0.455  0.309 -0.101    0.168  0.243 -0.090
 H          0.006  0.001  0.001    0.358  0.144  0.318    0.146  0.095  0.210
 H          0.002  0.003  0.002    0.237  0.389  0.149    0.099  0.172  0.011
 O          0.000  0.001 -0.000    0.024 -0.013  0.006    0.016 -0.018  0.006
 O          0.000  0.000  0.000    0.000 -0.000  0.000   -0.001 -0.001  0.002
 H         -0.002 -0.002  0.007   -0.000  0.003 -0.002    0.000 -0.001 -0.001
 TransDip  -0.009 -0.008  0.027    0.046  0.213  0.005    0.079  0.291 -0.038

 Mode:                34                     35                     36
 Frequency:      1434.69                1457.30                1460.71
 Force Cnst:      5.0522                 1.3675                 1.6018
 Red. Mass:       4.1659                 1.0929                 1.2741
 IR Active:          YES                    YES                    YES
 IR Intens:      310.188                 15.199                 22.441
 Raman Active:       YES                    YES                    YES
               X      Y      Z        X      Y      Z        X      Y      Z
 C         -0.145 -0.101 -0.019   -0.021  0.035 -0.023   -0.024  0.084 -0.044
 C          0.291  0.254  0.019   -0.016 -0.021  0.002   -0.044 -0.049  0.001
 O          0.007 -0.169  0.072   -0.001  0.012 -0.006   -0.003  0.028 -0.013
 O         -0.181  0.028 -0.088    0.008 -0.001  0.004    0.025 -0.003  0.012
 C          0.014  0.025 -0.005   -0.005 -0.018  0.006   -0.009 -0.067  0.023
 H          0.282  0.208  0.463    0.115 -0.042  0.298    0.183 -0.109  0.518
 H          0.550 -0.057 -0.180    0.261 -0.183 -0.050    0.432 -0.351 -0.077
 O          0.011  0.026 -0.006    0.002  0.007 -0.001   -0.006 -0.005 -0.001
 H         -0.049 -0.117  0.022   -0.004  0.028 -0.043    0.017  0.146 -0.148
 H         -0.051 -0.111  0.028   -0.019  0.051  0.001   -0.042  0.208 -0.004
 C         -0.017 -0.031  0.006   -0.020 -0.025 -0.001    0.021  0.032 -0.002
 C          0.011  0.023  0.001    0.040 -0.028  0.016   -0.031  0.009 -0.010
 H          0.010 -0.126  0.049   -0.316  0.514 -0.191    0.192 -0.284  0.104
 H         -0.024 -0.046 -0.091   -0.005  0.240  0.351    0.021 -0.141 -0.195
 H         -0.005 -0.016  0.054   -0.133 -0.203 -0.374    0.089  0.142  0.209
 O          0.003  0.003 -0.000    0.013 -0.001  0.002   -0.007 -0.002 -0.000
 O          0.001  0.001 -0.000   -0.000  0.001  0.001   -0.000 -0.001 -0.000
 H         -0.002  0.001  0.005   -0.001  0.001  0.003    0.001 -0.002 -0.002
 TransDip   0.456  0.327  0.058   -0.112 -0.050  0.025    0.033 -0.140  0.048

 Mode:                37                     38                     39
 Frequency:      1467.21                1502.07                1589.91
 Force Cnst:      1.3251                 1.4571                15.5835
 Red. Mass:       1.0447                 1.0961                10.4633
 IR Active:          YES                    YES                    YES
 IR Intens:        3.081                 23.861               1233.216
 Raman Active:       YES                    YES                    YES
               X      Y      Z        X      Y      Z        X      Y      Z
 C         -0.000  0.001 -0.001   -0.008  0.006 -0.006    0.010 -0.063  0.030
 C         -0.001 -0.001 -0.000   -0.002 -0.016  0.006   -0.458  0.493 -0.396
 O         -0.000  0.001 -0.000   -0.001  0.010 -0.005    0.060 -0.248  0.128
 O          0.001 -0.000  0.000    0.001  0.001  0.000    0.257 -0.096  0.148
 C         -0.001 -0.001  0.001   -0.068  0.023 -0.039   -0.026  0.003 -0.012
 H          0.003 -0.002  0.007    0.039 -0.021  0.105    0.194  0.202  0.131
 H          0.006 -0.005 -0.001    0.089 -0.071 -0.015    0.279  0.126 -0.069
 O          0.000  0.002  0.001   -0.012 -0.008 -0.001    0.004 -0.000  0.002
 H         -0.002  0.001 -0.004    0.323  0.041  0.622    0.016  0.016  0.071
 H         -0.002  0.005  0.000    0.624 -0.260 -0.126    0.056 -0.029 -0.033
 C          0.010 -0.007 -0.016    0.017  0.013 -0.001    0.020 -0.006  0.006
 C          0.025  0.002 -0.047   -0.007 -0.004 -0.001   -0.004 -0.002 -0.001
 H          0.350  0.114 -0.038    0.019 -0.004  0.001    0.000  0.007 -0.003
 H         -0.535  0.253  0.238    0.002 -0.006 -0.003    0.006  0.003  0.007
 H         -0.160 -0.357  0.547    0.006  0.013  0.011   -0.004 -0.002 -0.005
 O         -0.005  0.002  0.001   -0.007 -0.000 -0.001   -0.012  0.006 -0.003
 O          0.001 -0.000 -0.002   -0.000  0.000 -0.000   -0.000 -0.000 -0.001
 H          0.000  0.001 -0.003    0.001 -0.002 -0.001    0.001 -0.002 -0.003
 TransDip   0.005 -0.027  0.049    0.102 -0.102  0.060   -0.617  0.740 -0.580

 Mode:                40                     41                     42
 Frequency:      1632.08                3060.35                3061.03
 Force Cnst:     15.9575                 5.7983                 5.8262
 Red. Mass:      10.1679                 1.0508                 1.0554
 IR Active:          YES                    YES                    YES
 IR Intens:      756.265                 18.468                 31.428
 Raman Active:       YES                    YES                    YES
               X      Y      Z        X      Y      Z        X      Y      Z
 C         -0.019 -0.005 -0.005    0.035 -0.010  0.020   -0.046  0.013 -0.025
 C          0.023 -0.004  0.011   -0.000 -0.001  0.000    0.000  0.002 -0.000
 O         -0.002 -0.000 -0.001   -0.000  0.000 -0.000    0.000 -0.000  0.000
 O         -0.011  0.003 -0.006   -0.000  0.000 -0.000    0.000 -0.000  0.000
 C          0.044  0.004  0.018   -0.005  0.003 -0.005    0.006 -0.003  0.008
 H         -0.005  0.034 -0.015   -0.320  0.173  0.179    0.430 -0.232 -0.240
 H         -0.003  0.028 -0.015   -0.089 -0.061 -0.415    0.115  0.080  0.539
 O         -0.056 -0.013 -0.019   -0.000 -0.001  0.000    0.000  0.001 -0.000
 H         -0.045 -0.096 -0.081    0.050 -0.030 -0.030   -0.058  0.034  0.034
 H         -0.097 -0.022  0.062    0.015  0.010  0.086   -0.023 -0.014 -0.124
 C          0.692 -0.168  0.211    0.002  0.002 -0.000    0.002  0.000  0.000
 C         -0.120 -0.040 -0.036   -0.018 -0.023 -0.036   -0.014 -0.017 -0.027
 H          0.008  0.152 -0.102   -0.062  0.208  0.643   -0.048  0.158  0.489
 H          0.243  0.083  0.209    0.017  0.225 -0.180    0.013  0.172 -0.137
 H         -0.141 -0.051 -0.149    0.247 -0.173 -0.035    0.188 -0.132 -0.027
 O         -0.389  0.167 -0.090   -0.000 -0.000  0.000   -0.000  0.000 -0.000
 O         -0.007 -0.003 -0.022   -0.000 -0.000 -0.000   -0.000 -0.000 -0.000
 H          0.043 -0.040 -0.108    0.000 -0.001 -0.001   -0.000 -0.000 -0.001
 TransDip   0.775 -0.415  0.054    0.027 -0.113 -0.073   -0.103  0.017 -0.146

 Mode:                43                     44                     45
 Frequency:      3069.36                3097.52                3123.23
 Force Cnst:      5.8745                 6.2271                 6.3596
 Red. Mass:       1.0583                 1.1016                 1.1065
 IR Active:          YES                    YES                    YES
 IR Intens:       60.944                  4.507                 76.785
 Raman Active:       YES                    YES                    YES
               X      Y      Z        X      Y      Z        X      Y      Z
 C         -0.012  0.003 -0.002    0.031 -0.029 -0.071   -0.015  0.014  0.035
 C         -0.001  0.001 -0.001    0.000 -0.000 -0.001   -0.000  0.000  0.000
 O          0.000  0.000  0.000   -0.000  0.000  0.000    0.000  0.000 -0.000
 O          0.000 -0.001  0.000    0.000 -0.000 -0.000    0.000 -0.000 -0.000
 C         -0.046  0.015 -0.046   -0.021  0.016  0.030   -0.040  0.033  0.068
 H          0.128 -0.068 -0.069   -0.517  0.268  0.264    0.248 -0.133 -0.126
 H          0.020  0.013  0.099    0.149  0.085  0.602   -0.071 -0.038 -0.296
 O         -0.002 -0.002  0.000   -0.000 -0.000  0.000   -0.000 -0.000 -0.000
 H          0.422 -0.244 -0.248    0.304 -0.175 -0.163    0.577 -0.339 -0.310
 H          0.145  0.096  0.794   -0.045 -0.020 -0.199   -0.103 -0.047 -0.495
 C         -0.001  0.002 -0.001   -0.000  0.000 -0.000   -0.000  0.000 -0.000
 C          0.000 -0.001  0.000    0.000 -0.000 -0.000   -0.001  0.000  0.002
 H          0.000  0.001  0.002   -0.000  0.001  0.004    0.002 -0.006 -0.020
 H         -0.001  0.001 -0.002   -0.000  0.001 -0.001    0.000  0.008 -0.006
 H         -0.002  0.001  0.000   -0.000  0.000  0.000    0.005 -0.003 -0.000
 O          0.001 -0.000  0.000    0.000  0.000 -0.000    0.000  0.000 -0.000
 O          0.000  0.000  0.000   -0.000 -0.000 -0.000   -0.000 -0.000 -0.000
 H         -0.001 -0.001 -0.000    0.001  0.000  0.000    0.001  0.001  0.000
 TransDip  -0.222  0.000 -0.116   -0.001 -0.030 -0.061   -0.125  0.089  0.235

 Mode:                46                     47                     48
 Frequency:      3144.87                3182.98                3844.36
 Force Cnst:      6.3578                 6.5980                 9.2909
 Red. Mass:       1.0911                 1.1053                 1.0670
 IR Active:          YES                    YES                    YES
 IR Intens:       25.942                 25.286                  0.229
 Raman Active:       YES                    YES                    YES
               X      Y      Z        X      Y      Z        X      Y      Z
 C          0.000 -0.000 -0.001    0.000 -0.000 -0.000   -0.000  0.000  0.000
 C          0.000 -0.000 -0.000    0.000  0.000  0.000    0.000  0.000 -0.000
 O         -0.000 -0.000 -0.000   -0.000 -0.000 -0.000   -0.000 -0.000  0.000
 O          0.000 -0.000  0.000   -0.000 -0.000  0.000   -0.000 -0.000 -0.000
 C          0.001 -0.001 -0.001    0.000  0.000 -0.000    0.000 -0.000 -0.000
 H         -0.006  0.003  0.003   -0.001  0.001  0.000    0.000 -0.000 -0.000
 H          0.002  0.001  0.006    0.000  0.000  0.000    0.000 -0.000  0.000
 O         -0.000 -0.000 -0.000   -0.000  0.000 -0.000   -0.000 -0.000  0.000
 H         -0.010  0.006  0.005   -0.004  0.002  0.002   -0.000  0.000  0.000
 H          0.002  0.001  0.011   -0.000 -0.000  0.000    0.000  0.000  0.001
 C          0.001  0.001  0.002    0.001 -0.002  0.001   -0.000 -0.000 -0.000
 C         -0.052  0.006  0.069    0.039 -0.078  0.034   -0.000  0.000 -0.000
 H          0.038 -0.156 -0.475    0.008 -0.020 -0.023    0.001 -0.000 -0.000
 H          0.028  0.446 -0.322    0.054  0.599 -0.456    0.000  0.001 -0.000
 H          0.543 -0.375 -0.048   -0.535  0.360  0.065    0.002 -0.001  0.000
 O         -0.000 -0.000 -0.000   -0.000  0.000 -0.000   -0.000  0.000  0.000
 O          0.000  0.000  0.000   -0.000  0.000 -0.000   -0.056 -0.009 -0.027
 H         -0.002  0.001  0.000    0.001  0.001 -0.000    0.891  0.145  0.425
 TransDip  -0.107  0.006  0.123    0.077 -0.128  0.061   -0.010 -0.008  0.008

 STANDARD THERMODYNAMIC QUANTITIES AT   298.15 K  AND     1.00 ATM

   This Molecule has  1 Imaginary Frequencies
   Zero point vibrational energy:       82.740 kcal/mol

   Atom    1 Element C  Has Mass   12.00000
   Atom    2 Element C  Has Mass   12.00000
   Atom    3 Element O  Has Mass   15.99491
   Atom    4 Element O  Has Mass   15.99491
   Atom    5 Element C  Has Mass   12.00000
   Atom    6 Element H  Has Mass    1.00783
   Atom    7 Element H  Has Mass    1.00783
   Atom    8 Element O  Has Mass   15.99491
   Atom    9 Element H  Has Mass    1.00783
   Atom   10 Element H  Has Mass    1.00783
   Atom   11 Element C  Has Mass   12.00000
   Atom   12 Element C  Has Mass   12.00000
   Atom   13 Element H  Has Mass    1.00783
   Atom   14 Element H  Has Mass    1.00783
   Atom   15 Element H  Has Mass    1.00783
   Atom   16 Element O  Has Mass   15.99491
   Atom   17 Element O  Has Mass   15.99491
   Atom   18 Element H  Has Mass    1.00783
   Molecular Mass:   148.037190 amu
   Principal axes and moments of inertia in amu*Bohr^2:
                             1           2           3
    Eigenvalues --      585.51736  3434.01953  3519.13713
          X               0.43111     0.77766    -0.45759
          Y               0.86422    -0.21011     0.45714
          Z              -0.25936     0.59254     0.76265
   Rotational Symmetry Number is   1
   The Molecule is an Asymmetric Top
   Translational Enthalpy:        0.889 kcal/mol
   Rotational Enthalpy:           0.889 kcal/mol
   Vibrational Enthalpy:         88.097 kcal/mol
   gas constant (RT):             0.592 kcal/mol
   Translational Entropy:        40.887  cal/mol.K
   Rotational Entropy:           30.337  cal/mol.K
   Vibrational Entropy:          35.913  cal/mol.K

   Total Enthalpy:               90.467 kcal/mol
   Total Entropy:               107.138  cal/mol.K
Archival summary:
1\1\c5-81\FREQ\ProcedureUnspecified\BasisUnspecified\558(2-,1)\lmgong\MonApr1610:38:382018MonApr1610:38:382018\0\\#,FREQ,ProcedureUnspecified,BasisUnspecified,\\-2,1\O\C,1,1.37012\O,2,1.23522,1,120.716\C,1,1.43039,2,115.77,3,22.2847,0\H,4,1.09315,1,109.859,2,-60.0632,0\H,4,1.09486,1,109.073,2,58.1167,0\C,2,1.50881,1,109.905,3,152.218,0\H,7,1.08931,2,109.508,1,164.813,0\H,7,1.08981,2,111.409,1,43.0826,0\H,7,1.09648,2,108.13,1,-76.5814,0\C,4,1.51488,1,107.54,2,178.905,0\H,11,1.09584,4,110.024,1,-58.3478,0\H,11,1.09597,4,109.873,1,58.4856,0\C,11,1.53693,4,114.518,1,179.985,0\O,14,1.25746,11,118.326,4,0.555927,0\O,14,1.25944,11,115.99,4,-179.488,0\O,2,2.07207,1,98.0899,3,-111.046,0\H,17,0.963313,2,97.2601,1,93.9348,0\\\@

 Total job time:  113490.75s(wall), 438546.43s(cpu) 
 Mon Apr 16 10:38:38 2018

        *************************************************************
        *                                                           *
        *  Thank you very much for using Q-Chem.  Have a nice day.  *
        *                                                           *
        *************************************************************


