
Running Job 1 of 1 qc-freq1.in
qchem qc-freq1.in_12343.0 /scratch/lmgong/1862649/qc-freq1.d/ 1
/home/leeping/opt/qchem/5.0.2-openmp/exe/qcprog.exe_s qc-freq1.in_12343.0 /scratch/lmgong/1862649/qc-freq1.d/
Check license passed

                  Welcome to Q-Chem
     A Quantum Leap Into The Future Of Chemistry


 Q-Chem 5.0, Q-Chem, Inc., Pleasanton, CA (2017)

 Yihan Shao,  Zhengting Gan,  E. Epifanovsky,  A. T. B. Gilbert,  M. Wormit,  
 J. Kussmann,  A. W. Lange,  A. Behn,  Jia Deng,  Xintian Feng,  D. Ghosh,  
 M. Goldey,  P. R. Horn,  L. D. Jacobson,  I. Kaliman,  T. Kus,  A. Landau,  
 Jie Liu,  E. I. Proynov,  R. M. Richard,  R. P. Steele,  E. J. Sundstrom,  
 H. L. Woodcock III,  P. M. Zimmerman,  D. Zuev,  B. Albrecht,  E. Alguire,  
 S. A. Baeppler,  D. Barton,  Z. Benda,  Y. A. Bernard,  E. J. Berquist,  
 K. B. Bravaya,  H. Burton,  D. Casanova,  Chun-Min Chang,  Yunqing Chen,  
 A. Chien,  K. D. Closser,  M. P. Coons,  S. Dasgupta,  A. L. Dempwolff,  
 M. Diedenhofen,  Hainam Do,  R. G. Edgar,  Po-Tung Fang,  S. Fatehi,  
 Qingguo Feng,  J. Fosso-Tande,  Qinghui Ge,  A. Ghysels,  G. Gidofalvi,  
 J. Gomes,  J. Gonthier,  A. Gunina,  M. W. D. Hanson-Heine,  
 P. H. P. Harbach,  A. W. Hauser,  J. E. Herr,  E. G. Hohenstein,  
 Z. C. Holden,  Kerwin Hui,  T.-C. Jagau,  Hyunjun Ji,  B. Kaduk,  
 K. Khistyaev,  Jaehoon Kim,  P. Klunzinger,  K. Koh,  D. Kosenkov,  
 L. Koulias,  T. Kowalczyk,  C. M. Krauter,  A. Kunitsa,  Ka Un Lao,  
 A. Laurent,  K. V. Lawler,  Joonho Lee,  D. Lefrancois,  S. Lehtola,  
 D. S. Levine,  Yi-Pei Li,  You-Sheng Lin,  Fenglai Liu,  E. Livshits,  
 A. Luenser,  P. Manohar,  E. Mansoor,  S. F. Manzer,  Shan-Ping Mao,  
 Yuezhi Mao,  N. Mardirossian,  A. V. Marenich,  T. Markovich,  
 L. A. Martinez-Martinez,  S. A. Maurer,  N. J. Mayhall,  S. C. McKenzie,  
 J.-M. Mewes,  A. F. Morrison,  J. W. Mullinax,  K. Nanda,  
 T. S. Nguyen-Beck,  R. Olivares-Amaya,  J. A. Parkhill,  T. M. Perrine,  
 F. Plasser,  S. Prager,  A. Prociuk,  E. Ramos,  D. R. Rehn,  F. Rob,  
 M. Schneider,  N. Sergueev,  S. M. Sharada,  S. Sharma,  D. W. Small,  
 T. Stauch,  T. Stein,  Yu-Chuan Su,  A. J. W. Thom,  A. Tkatchenko,  
 T. Tsuchimochi,  L. Vogt,  O. Vydrov,  M. A. Watson,  J. Wenzel,  
 M. de Wergifosse,  T. A. Wesolowski,  A. White,  J. Witte,  A. Yamada,  
 Jun Yang,  K. Yao,  S. Yeganeh,  S. R. Yost,  Zhi-Qiang You,  A. Zech,  
 Igor Ying Zhang,  Xing Zhang,  Yan Zhao,  Ying Zhu,  B. R. Brooks,  
 G. K. L. Chan,  C. J. Cramer,  M. S. Gordon,  W. J. Hehre,  A. Klamt,  
 M. W. Schmidt,  C. D. Sherrill,  D. G. Truhlar,  A. Aspuru-Guzik,  R. Baer,  
 A. T. Bell,  N. A. Besley,  Jeng-Da Chai,  R. A. DiStasio Jr.,  A. Dreuw,  
 B. D. Dunietz,  T. R. Furlani,  Chao-Ping Hsu,  Yousung Jung,  Jing Kong,  
 D. S. Lambrecht,  WanZhen Liang,  C. Ochsenfeld,  V. A. Rassolov,  
 L. V. Slipchenko,  J. E. Subotnik,  T. Van Voorhis,  J. M. Herbert,  
 A. I. Krylov,  P. M. W. Gill,  M. Head-Gordon

 Contributors to earlier versions of Q-Chem not listed above: 
 R. D. Adamson,  B. Austin,  J. Baker,  G. J. O. Beran,  K. Brandhorst,  
 S. T. Brown,  E. F. C. Byrd,  A. K. Chakraborty,  C.-L. Cheng,  
 Siu Hung Chien,  D. M. Chipman,  D. L. Crittenden,  H. Dachsel,  
 R. J. Doerksen,  A. D. Dutoi,  L. Fusti-Molnar,  W. A. Goddard III,  
 A. Golubeva-Zadorozhnaya,  S. R. Gwaltney,  G. Hawkins,  A. Heyden,  
 S. Hirata,  G. Kedziora,  F. J. Keil,  C. Kelley,  Jihan Kim,  R. A. King,  
 R. Z. Khaliullin,  P. P. Korambath,  W. Kurlancheek,  A. M. Lee,  M. S. Lee,  
 S. V. Levchenko,  Ching Yeh Lin,  D. Liotard,  R. C. Lochan,  I. Lotan,  
 P. E. Maslen,  N. Nair,  D. P. O'Neill,  D. Neuhauser,  E. Neuscamman,  
 C. M. Oana,  R. Olson,  B. Peters,  R. Peverati,  P. A. Pieniazek,  
 Y. M. Rhee,  J. Ritchie,  M. A. Rohrdanz,  E. Rosta,  N. J. Russ,  
 H. F. Schaefer III,  N. E. Schultz,  N. Shenvi,  A. C. Simmonett,  A. Sodt,  
 D. Stuck,  K. S. Thanthiriwatte,  V. Vanovschi,  Tao Wang,  A. Warshel,  
 C. F. Williams,  Q. Wu,  X. Xu,  W. Zhang

 Please cite Q-Chem as follows:
 Y. Shao et al., Mol. Phys. 113, 184-215 (2015)
 DOI: 10.1080/00268976.2014.952696

 Q-Chem 5.0.2 for Intel X86 EM64T Linux

 Parts of Q-Chem use Armadillo 5.200.1 (Boston Tea Smuggler).
 http://arma.sourceforge.net/

 Q-Chem begins on Fri Mar 20 12:07:38 2020  

Host: 
0

     Scratch files written to /scratch/lmgong/1862649/qc-freq1.d//
 Dec517 15110_ 26548  26544 5633   
Processing $rem in /home/leeping/opt/qchem/5.0.2-openmp/config/preferences.
 MEM_STATIC 2000
 MEM_TOTAL  8000
 SYMMETRY   OFF
 SYM_IGNORE TRUE 
Symmetry turned off for PCM/SM12/SMD calculation

Checking the input file for inconsistencies... 	...done.

--------------------------------------------------------------
User input:
--------------------------------------------------------------
$molecule
-2 1
C       -0.3906283094   -1.8927905955    0.6214243549
C       -1.4148732130   -2.9856519380    0.2809366652
O       -1.1905336331   -4.1271532604    0.7675636889
O       -2.3989423735   -2.6813283251   -0.4407648720
C       -0.6263622393   -0.5537355214   -0.0533520194
H        0.6050988107   -2.2713121508    0.3632706533
H       -0.3957971816   -1.7647850507    1.7109633085
O        0.3882184441    0.3393687127    0.3710363162
H       -1.6166965259   -0.1647288243    0.2086875255
H       -0.5985150038   -0.6729633633   -1.1446191651
C        0.4110348543    1.6184592665   -0.3431447319
C        1.5171860332    2.4015965277    0.3717647281
H        1.2235437697    2.5795350813    1.4099368497
H        1.6508564642    3.3636284614   -0.1297561270
H        2.4670302688    1.8587474895    0.3600431589
O       -0.7551267970    2.2064199265   -0.4263152044
O        0.9406358012    1.3083037193   -1.6784979470
H        0.1742804412    1.4328026688   -2.2513115232
$end

$rem
jobtype               freq
method                wb97x-v
basis                 def2-tzvpd
symmetry              off
sym_ignore            true
incdft                false
incfock               0
!scf_algorithm        diis_gdm
scf_convergence       8
thresh                14
!purecart             112
max_scf_cycles        1000
geom_opt_max_cycles   500
geom_opt_dmax         100
geom_opt_tol_gradient 10
solvent_method        pcm
ideriv                1
rpath_tol_displacement 1000
rpath_max_cycles      100
rpath_direction       1
!scf_guess            read
scf_guess             read
$end

$pcm
theory              cosmo
method              iswig
Radii               bondi
vdwScale            1.20
hpoints             110
heavypoints         110
$end

$solvent
dielectric 78.400000
$end

--------------------------------------------------------------
 ----------------------------------------------------------------
             Standard Nuclear Orientation (Angstroms)
    I     Atom           X                Y                Z
 ----------------------------------------------------------------
    1      C      -0.3906283094    -1.8927905955     0.6214243549
    2      C      -1.4148732130    -2.9856519380     0.2809366652
    3      O      -1.1905336331    -4.1271532604     0.7675636889
    4      O      -2.3989423735    -2.6813283251    -0.4407648720
    5      C      -0.6263622393    -0.5537355214    -0.0533520194
    6      H       0.6050988107    -2.2713121508     0.3632706533
    7      H      -0.3957971816    -1.7647850507     1.7109633085
    8      O       0.3882184441     0.3393687127     0.3710363162
    9      H      -1.6166965259    -0.1647288243     0.2086875255
   10      H      -0.5985150038    -0.6729633633    -1.1446191651
   11      C       0.4110348543     1.6184592665    -0.3431447319
   12      C       1.5171860332     2.4015965277     0.3717647281
   13      H       1.2235437697     2.5795350813     1.4099368497
   14      H       1.6508564642     3.3636284614    -0.1297561270
   15      H       2.4670302688     1.8587474895     0.3600431589
   16      O      -0.7551267970     2.2064199265    -0.4263152044
   17      O       0.9406358012     1.3083037193    -1.6784979470
   18      H       0.1742804412     1.4328026688    -2.2513115232
 ----------------------------------------------------------------
 Nuclear Repulsion Energy =   538.8130388535 hartrees
 There are       40 alpha and       40 beta electrons
 Requested basis set is def2-TZVPD
 There are 175 shells and 457 basis functions

 Total QAlloc Memory Limit   8000 MB
 Mega-Array Size      1956 MB
 MEM_STATIC part      2000 MB
 Discretize the solute cavity surface with Lebedev spheres
	Using 110 Lebedev grid points for each H atom
	Using 110 Lebedev grid points for other atoms
	Atomic van der Waals radii will be scaled by 1.20
 Remove points where switching function is < 1.0e-08
 Keep 1077 surface tesserae and discard 903 interior tesserae
 Molecular Surface Area = 189.669 Angst**2
 A cutoff of  1.0D-14 yielded  13811 shell pairs
 There are     94065 function pairs (    119542 Cartesian)
 
 -------------------------------------------------------
 OpenMP Integral Computing Module                       
 Release: version 1.0, May 2013, Q-Chem Inc. Pittsburgh 
 -------------------------------------------------------
 Integral Job Info:
 Integral job number is                      11
 Integral operator is                         1
 short-range coefficients              16700000
 long-range coefficients              100000000
 Omega coefficients                         300
 if combine SR and LR in K                    1
 Integral screening is                        0
 Integral computing path is                   2
 max size of driver memory is            800000
 size of driver memory is                776718
 size of scratch memory is              4473992
 max col of scratch BK array              10000
 max len of scratch array in speh3          662
 max len of scratch index in speh4           32
 max int batch size is                      520
 min int batch size is                       52
 fixed nKL is                                52
 max L of basis functions is                  3
 order of int derivative is                   0
 number of shells is                        175
 number of basis is                         517
 number of cartesian basis is               517
 number of contracted shell pairs         13811
 number of primitive shell pairs          27993
 maxK2 (contraction) of shell pair           36
 max number of K2 of shell pair               1
 max number of CS2 of shell pair           2294
 max number of PS2 of shell pair           3234
 mem total for path MDJ                  768868
 -------------------------------------------------------
 Smallest overlap matrix eigenvalue = 3.92E-06
 Guess MOs from SCF MO coefficient file
 Reading MOs from coefficient file
 Reading MOs from coefficient file
 Long-range K will be added via erf
 Coulomb attenuation parameter = 0.3 bohr**(-1)
 A restricted hybrid HF-DFT SCF calculation will be
 performed using Pulay DIIS extrapolation
 Polarizable Continuum solvation model will be applied
 Exchange:     0.1670 Hartree-Fock + 1.0000 wB97X-V + LR-HF
 Correlation:  1.0000 wB97X-V
 Using SG-2 standard quadrature grid
 Nonlocal Correlation:  VV10 with C = 0.0100 and b = 6.00
 Grid used for NLC:  SG-1 standard quadrature
 SCF converges when DIIS error is below 1.0E-08
Using Q-Chem read-in guess as SCF_GUESS READ specified.

 using 16 threads for integral computing
 -------------------------------------------------------
 OpenMP Integral computing Module                
 Release: version 1.0, May 2013, Q-Chem Inc. Pittsburgh 
 -------------------------------------------------------
 using 16 threads for integral computing
 -------------------------------------------------------
 OpenMP Integral computing Module                
 Release: version 1.0, May 2013, Q-Chem Inc. Pittsburgh 
 -------------------------------------------------------
 -------------------------------------------------------
 OpenMP BLAS3 based DFT computing Module                
 Release: version 1.0, May 2013, Q-Chem Inc. Pittsburgh 
 -------------------------------------------------------
 -------------------------------------------------------
 OpenMP BLAS3 based DFT computing Module                
 Release: version 1.0, May 2013, Q-Chem Inc. Pittsburgh 
 -------------------------------------------------------
 -------------------------------------------------------
 OpenMP BLAS3 based DFT computing Module                
 Release: version 1.0, May 2013, Q-Chem Inc. Pittsburgh 
 -------------------------------------------------------
 ---------------------------------------
  Cycle       Energy         DIIS Error
 ---------------------------------------
    1    -571.5143152635      3.14E-04
    2    -571.8134625949      3.36E-04
    3    -571.8177302068      1.55E-04
    4    -571.8184187149      1.14E-04
    5    -571.8188416032      8.77E-05
    6    -571.8190705678      6.98E-05
    7    -571.8192298965      5.41E-05
    8    -571.8193231322      4.22E-05
    9    -571.8193921764      3.06E-05
   10    -571.8194204944      2.42E-05
   11    -571.8194421800      1.79E-05
   12    -571.8194518455      1.41E-05
   13    -571.8194587544      1.07E-05
   14    -571.8194622700      8.43E-06
   15    -571.8194645174      6.57E-06
   16    -571.8194659943      5.00E-06
   17    -571.8194680154      3.07E-09 Convergence criterion met
 ---------------------------------------

************** Final PCM Free Energy Summary **************
 G_electrostatic  =      -0.30515459 hartree =    -191.48739416 kcal/mol
 G_cavitation     =       0.00000000 hartree =       0.00000000 kcal/mol
 G_dispersion     =       0.00000000 hartree =       0.00000000 kcal/mol
 G_repulsion      =       0.00000000 hartree =       0.00000000 kcal/mol
 --------------------------------------------------
 Non-electrostatic Free Energy =       0.00000000 hartree =       0.00000000 kcal/mol
 Total                         =      -0.30515459 hartree =    -191.48739416 kcal/mol
 --------------------------------------------------
 SCF Energy (H0 + V/2)                       =    -571.81946802 
 Solute Internal Energy (H0)                 =    -571.51431343 
 Total Free Energy (H0 + V/2 + non-elec)     =    -571.81946802 hartree
                                             = -358822.13188183 kcal/mol
***********************************************************

 SCF time:  CPU 4052.13 s  wall 289.64 s
 SCF   energy in the final basis set = -571.81946802
 Total energy in the final basis set = -571.81946802
 
 --------------------------------------------------------------
 
                    Orbital Energies (a.u.)
 --------------------------------------------------------------
 
 Alpha MOs
 -- Occupied --
-19.180 -19.179 -19.140 -19.137 -19.103 -10.366 -10.341 -10.283
-10.245 -10.232  -1.167  -1.143  -1.092  -1.048  -1.028  -0.875
 -0.830  -0.732  -0.664  -0.614  -0.584  -0.573  -0.545  -0.541
 -0.523  -0.514  -0.499  -0.489  -0.474  -0.460  -0.445  -0.436
 -0.407  -0.383  -0.353  -0.343  -0.337  -0.330  -0.314  -0.308
 -- Virtual --
  0.059   0.072   0.083   0.087   0.101   0.102   0.108   0.125
  0.126   0.129   0.133   0.143   0.150   0.156   0.161   0.164
  0.178   0.186   0.190   0.197   0.207   0.213   0.220   0.222
  0.234   0.245   0.247   0.258   0.261   0.267   0.274   0.278
  0.287   0.288   0.298   0.304   0.310   0.314   0.319   0.331
  0.332   0.339   0.344   0.348   0.355   0.363   0.366   0.370
  0.376   0.385   0.390   0.393   0.397   0.399   0.402   0.406
  0.416   0.417   0.422   0.428   0.431   0.440   0.446   0.448
  0.451   0.457   0.461   0.470   0.477   0.487   0.489   0.492
  0.498   0.507   0.509   0.513   0.518   0.529   0.531   0.538
  0.551   0.557   0.563   0.569   0.571   0.575   0.578   0.584
  0.592   0.603   0.606   0.614   0.618   0.625   0.634   0.652
  0.654   0.657   0.659   0.670   0.675   0.690   0.695   0.702
  0.710   0.715   0.728   0.737   0.741   0.755   0.761   0.768
  0.775   0.782   0.783   0.792   0.799   0.803   0.806   0.817
  0.819   0.825   0.828   0.833   0.845   0.857   0.861   0.870
  0.881   0.882   0.885   0.902   0.907   0.914   0.919   0.922
  0.939   0.945   0.948   0.951   0.980   0.986   1.009   1.030
  1.040   1.052   1.055   1.076   1.083   1.089   1.097   1.111
  1.117   1.146   1.157   1.161   1.184   1.198   1.206   1.220
  1.230   1.239   1.264   1.268   1.276   1.292   1.312   1.318
  1.327   1.347   1.356   1.381   1.392   1.399   1.412   1.424
  1.434   1.454   1.461   1.481   1.495   1.502   1.534   1.575
  1.583   1.618   1.641   1.649   1.702   1.749   1.766   1.827
  1.848   1.854   1.896   1.904   1.921   1.938   1.947   1.967
  1.972   1.977   1.982   1.987   2.005   2.008   2.024   2.039
  2.045   2.051   2.083   2.093   2.118   2.137   2.164   2.187
  2.208   2.234   2.235   2.249   2.256   2.272   2.292   2.305
  2.322   2.334   2.345   2.367   2.381   2.391   2.417   2.456
  2.464   2.476   2.492   2.500   2.533   2.539   2.553   2.577
  2.622   2.634   2.644   2.656   2.687   2.708   2.716   2.728
  2.746   2.763   2.766   2.783   2.828   2.865   2.898   2.905
  2.913   2.946   2.952   2.968   2.973   2.987   3.003   3.033
  3.056   3.074   3.087   3.095   3.117   3.138   3.182   3.203
  3.223   3.244   3.260   3.292   3.308   3.323   3.355   3.363
  3.365   3.386   3.405   3.433   3.449   3.454   3.479   3.489
  3.495   3.511   3.537   3.539   3.551   3.554   3.566   3.603
  3.624   3.638   3.656   3.661   3.675   3.689   3.703   3.708
  3.713   3.729   3.742   3.765   3.779   3.794   3.800   3.832
  3.853   3.885   3.906   3.927   3.959   3.981   4.032   4.072
  4.101   4.158   4.175   4.193   4.219   4.231   4.252   4.284
  4.322   4.414   4.527   4.607   4.616   4.636   4.659   4.696
  4.721   4.790   4.805   4.827   4.889   4.932   4.979   5.045
  5.118   5.148   5.214   5.324   5.361   5.371   5.377   5.394
  5.406   5.417   5.448   5.503   5.568   5.597   5.605   5.678
  5.713   5.720   5.727   5.761   5.779   5.811   5.890   5.984
  6.004   6.083   6.243   6.246   6.303   6.314   6.337   6.382
  6.434   6.456   6.514   6.564   6.624   6.639   6.691   6.699
  6.749   6.772   6.797   6.828   6.878   6.936   6.957   6.969
  6.986   7.049   7.053   7.135   7.254   7.263   7.292   7.338
  7.364   7.404   7.412   7.439   7.514   7.670   7.705  22.686
 22.858  22.942  23.193  23.731  44.265  44.416  44.434  44.492
 44.692
 --------------------------------------------------------------
 
          Ground-State Mulliken Net Atomic Charges

     Atom                 Charge (a.u.)
  ----------------------------------------
      1 C                    -0.057742
      2 C                     0.040426
      3 O                    -0.711875
      4 O                    -0.692100
      5 C                    -0.215950
      6 H                     0.225745
      7 H                     0.227311
      8 O                    -0.294683
      9 H                     0.149423
     10 H                     0.163831
     11 C                     0.627652
     12 C                    -1.035895
     13 H                     0.218771
     14 H                     0.235426
     15 H                     0.215394
     16 O                    -0.877306
     17 O                    -0.565235
     18 H                     0.346806
  ----------------------------------------
  Sum of atomic charges =    -2.000000

 -----------------------------------------------------------------
                    Cartesian Multipole Moments
 -----------------------------------------------------------------
    Charge (ESU x 10^10)
                -9.6064
    Dipole Moment (Debye)
         X       9.7311      Y       8.8856      Z       1.0474
       Tot      13.2191
    Quadrupole Moments (Debye-Ang)
        XX     -93.2018     XY     -26.7037     YY    -152.5787
        XZ       0.2394     YZ       9.5409     ZZ     -69.0061
    Octopole Moments (Debye-Ang^2)
       XXX     113.9625    XXY      78.9848    XYY     148.3235
       YYY     304.2204    XXZ      18.4078    XYZ       2.9907
       YYZ     -21.4022    XZZ      15.3676    YZZ      31.7387
       ZZZ       6.4669
    Hexadecapole Moments (Debye-Ang^3)
      XXXX    -788.7656   XXXY    -560.3165   XXYY    -705.4511
      XYYY    -782.3736   YYYY   -3406.3732   XXXZ      -5.6490
      XXYZ      34.4165   XYYZ      20.4169   YYYZ     308.0303
      XXZZ    -178.3583   XYZZ    -157.2756   YYZZ    -453.8951
      XZZZ      28.5277   YZZZ     128.2920   ZZZZ    -271.5463
 -----------------------------------------------------------------
 Calculating analytic gradient of the SCF energy
 Gradient of SCF Energy
            1           2           3           4           5           6
    1   0.0589483  -0.0290351  -0.0017511   0.0469189  -0.0939699  -0.0569372
    2   0.0076083  -0.0324248   0.0538348  -0.0070926  -0.0187252   0.0246901
    3   0.0520191  -0.0112765  -0.0175902   0.0336432  -0.0753517   0.0242713
            7           8           9          10          11          12
    1   0.0114970   0.0003830   0.0649467  -0.0014555  -0.0585009   0.0647945
    2  -0.0101859   0.0078346  -0.0234155   0.0081755  -0.0989896   0.1078739
    3  -0.0630307  -0.0071426  -0.0082957   0.0718819  -0.0329523   0.0507663
           13          14          15          16          17          18
    1   0.0245336  -0.0080118  -0.0642375   0.0224939  -0.0319091   0.0512923
    2  -0.0109227  -0.0726733   0.0399642   0.0059924   0.0208440  -0.0023884
    3  -0.0777912   0.0367741   0.0021327   0.0113446  -0.0330293   0.0436270
 Max gradient component =       1.079E-01
 RMS gradient           =       4.477E-02
 Computing fast CPCM-ISWIG gradient
 Updating gradient with PCM contributions...
 -- total gradient after adding PCM contribution --
---------------------------------------------------
  Atom         X              Y              Z     
---------------------------------------------------
   1       0.000025       0.000014       0.000013
   2      -0.000010      -0.000013      -0.000022
   3       0.000007       0.000008       0.000008
   4       0.000003       0.000005      -0.000000
   5      -0.000062      -0.000054      -0.000024
   6       0.000001       0.000009       0.000008
   7      -0.000025      -0.000006      -0.000001
   8       0.000038       0.000073      -0.000030
   9       0.000017       0.000016       0.000015
  10      -0.000004      -0.000002       0.000002
  11       0.000060      -0.000107       0.000041
  12       0.000003       0.000001      -0.000005
  13      -0.000003      -0.000001      -0.000003
  14      -0.000002       0.000003       0.000003
  15       0.000002       0.000001       0.000000
  16      -0.000048       0.000038      -0.000011
  17       0.000001       0.000023       0.000004
  18      -0.000004      -0.000010       0.000003
---------------------------------------------------
 Number of fixed atoms: 0
 Gradient time:  CPU 829.45 s  wall 60.48 s
 ######################################################
 ######################################################
 # Starting finite difference calculation for IDERIV  #
 Finite diff step size:  1.88973e-03 a.u.
 ----------------------------------------------------------------
             Standard Nuclear Orientation (Angstroms)
    I     Atom           X                Y                Z
 ----------------------------------------------------------------
    1      C      -0.3896283094    -1.8927905955     0.6214243549
    2      C      -1.4148732130    -2.9856519380     0.2809366652
    3      O      -1.1905336331    -4.1271532604     0.7675636889
    4      O      -2.3989423735    -2.6813283251    -0.4407648720
    5      C      -0.6263622393    -0.5537355214    -0.0533520194
    6      H       0.6050988107    -2.2713121508     0.3632706533
    7      H      -0.3957971816    -1.7647850507     1.7109633085
    8      O       0.3882184441     0.3393687127     0.3710363162
    9      H      -1.6166965259    -0.1647288243     0.2086875255
   10      H      -0.5985150038    -0.6729633633    -1.1446191651
   11      C       0.4110348543     1.6184592665    -0.3431447319
   12      C       1.5171860332     2.4015965277     0.3717647281
   13      H       1.2235437697     2.5795350813     1.4099368497
   14      H       1.6508564642     3.3636284614    -0.1297561270
   15      H       2.4670302688     1.8587474895     0.3600431589
   16      O      -0.7551267970     2.2064199265    -0.4263152044
   17      O       0.9406358012     1.3083037193    -1.6784979470
   18      H       0.1742804412     1.4328026688    -2.2513115232
 ----------------------------------------------------------------
 Nuclear Repulsion Energy =   538.8057770616 hartrees
 There are       40 alpha and       40 beta electrons
 Discretize the solute cavity surface with Lebedev spheres
	Using 110 Lebedev grid points for each H atom
	Using 110 Lebedev grid points for other atoms
	Atomic van der Waals radii will be scaled by 1.20
 Remove points where switching function is < 1.0e-08
 Keep 1077 surface tesserae and discard 903 interior tesserae
 Molecular Surface Area = 189.672 Angst**2
 Requested basis set is def2-TZVPD
 There are 175 shells and 457 basis functions
 A cutoff of  1.0D-14 yielded  13811 shell pairs
 There are     94065 function pairs (    119542 Cartesian)
 Smallest overlap matrix eigenvalue = 3.92E-06
 Guess MOs from SCF MO coefficient file
 Reading MOs from coefficient file
 Reading MOs from coefficient file
 Long-range K will be added via erf
 Coulomb attenuation parameter = 0.3 bohr**(-1)
 A restricted hybrid HF-DFT SCF calculation will be
 performed using Pulay DIIS extrapolation
 Polarizable Continuum solvation model will be applied
 Exchange:     0.1670 Hartree-Fock + 1.0000 wB97X-V + LR-HF
 Correlation:  1.0000 wB97X-V
 Using SG-2 standard quadrature grid
 Nonlocal Correlation:  VV10 with C = 0.0100 and b = 6.00
 Grid used for NLC:  SG-1 standard quadrature
 SCF converges when DIIS error is below 1.0E-08
Using Q-Chem read-in guess as SCF_GUESS READ specified.

 using 16 threads for integral computing
 -------------------------------------------------------
 OpenMP Integral computing Module                
 Release: version 1.0, May 2013, Q-Chem Inc. Pittsburgh 
 -------------------------------------------------------
 using 16 threads for integral computing
 -------------------------------------------------------
 OpenMP Integral computing Module                
 Release: version 1.0, May 2013, Q-Chem Inc. Pittsburgh 
 -------------------------------------------------------
 -------------------------------------------------------
 OpenMP BLAS3 based DFT computing Module                
 Release: version 1.0, May 2013, Q-Chem Inc. Pittsburgh 
 -------------------------------------------------------
 -------------------------------------------------------
 OpenMP BLAS3 based DFT computing Module                
 Release: version 1.0, May 2013, Q-Chem Inc. Pittsburgh 
 -------------------------------------------------------
 -------------------------------------------------------
 OpenMP BLAS3 based DFT computing Module                
 Release: version 1.0, May 2013, Q-Chem Inc. Pittsburgh 
 -------------------------------------------------------
 ---------------------------------------
  Cycle       Energy         DIIS Error
 ---------------------------------------
    1    -571.5145531421      3.15E-04
    2    -571.8134607635      3.36E-04
    3    -571.8177302103      1.55E-04
    4    -571.8184195181      1.14E-04
    5    -571.8188466323      8.73E-05
    6    -571.8190921573      6.78E-05
    7    -571.8192900889      4.66E-05
    8    -571.8193999579      2.87E-05
    9    -571.8194568676      1.12E-05
   10    -571.8194657520      3.97E-06
   11    -571.8194669658      7.28E-07
   12    -571.8194670047      1.66E-07
   13    -571.8194670068      2.09E-08
   14    -571.8194670068      4.85E-09 Convergence criterion met
 ---------------------------------------

************** Final PCM Free Energy Summary **************
 G_electrostatic  =      -0.30515302 hartree =    -191.48640900 kcal/mol
 G_cavitation     =       0.00000000 hartree =       0.00000000 kcal/mol
 G_dispersion     =       0.00000000 hartree =       0.00000000 kcal/mol
 G_repulsion      =       0.00000000 hartree =       0.00000000 kcal/mol
 --------------------------------------------------
 Non-electrostatic Free Energy =       0.00000000 hartree =       0.00000000 kcal/mol
 Total                         =      -0.30515302 hartree =    -191.48640900 kcal/mol
 --------------------------------------------------
 SCF Energy (H0 + V/2)                       =    -571.81946701 
 Solute Internal Energy (H0)                 =    -571.51431399 
 Total Free Energy (H0 + V/2 + non-elec)     =    -571.81946701 hartree
                                             = -358822.13124896 kcal/mol
***********************************************************

 SCF time:  CPU 3331.56 s  wall 237.57 s
 SCF   energy in the final basis set = -571.81946701
 Total energy in the final basis set = -571.81946701
 
 --------------------------------------------------------------
 
                    Orbital Energies (a.u.)
 --------------------------------------------------------------
 
 Alpha MOs
 -- Occupied --
-19.180 -19.179 -19.140 -19.137 -19.103 -10.366 -10.341 -10.283
-10.244 -10.232  -1.167  -1.143  -1.092  -1.048  -1.028  -0.875
 -0.830  -0.732  -0.664  -0.614  -0.584  -0.573  -0.545  -0.541
 -0.523  -0.514  -0.499  -0.489  -0.474  -0.460  -0.445  -0.437
 -0.407  -0.383  -0.353  -0.343  -0.337  -0.330  -0.314  -0.308
 -- Virtual --
  0.059   0.072   0.083   0.087   0.101   0.102   0.108   0.125
  0.126   0.129   0.133   0.143   0.150   0.156   0.161   0.164
  0.178   0.186   0.190   0.197   0.207   0.213   0.220   0.222
  0.234   0.245   0.247   0.258   0.261   0.267   0.274   0.278
  0.287   0.288   0.298   0.304   0.310   0.314   0.320   0.331
  0.332   0.339   0.344   0.348   0.355   0.363   0.366   0.370
  0.376   0.385   0.390   0.393   0.397   0.399   0.402   0.406
  0.416   0.417   0.422   0.428   0.431   0.440   0.446   0.448
  0.451   0.457   0.461   0.470   0.477   0.487   0.489   0.492
  0.498   0.507   0.509   0.513   0.518   0.529   0.531   0.538
  0.551   0.557   0.563   0.569   0.571   0.575   0.578   0.584
  0.592   0.603   0.606   0.614   0.618   0.625   0.634   0.652
  0.654   0.657   0.659   0.670   0.675   0.690   0.695   0.702
  0.710   0.715   0.728   0.737   0.741   0.755   0.761   0.768
  0.775   0.782   0.783   0.792   0.799   0.803   0.806   0.817
  0.819   0.825   0.828   0.833   0.845   0.857   0.861   0.870
  0.881   0.882   0.885   0.902   0.907   0.914   0.919   0.922
  0.939   0.945   0.948   0.951   0.980   0.986   1.009   1.030
  1.040   1.052   1.055   1.076   1.083   1.089   1.097   1.111
  1.117   1.146   1.157   1.161   1.184   1.198   1.206   1.220
  1.230   1.239   1.264   1.268   1.276   1.292   1.312   1.318
  1.327   1.347   1.356   1.381   1.392   1.399   1.411   1.424
  1.434   1.454   1.461   1.481   1.495   1.502   1.534   1.574
  1.583   1.617   1.641   1.649   1.702   1.749   1.766   1.827
  1.848   1.854   1.896   1.904   1.921   1.938   1.947   1.967
  1.972   1.977   1.983   1.987   2.005   2.008   2.024   2.039
  2.045   2.050   2.083   2.092   2.118   2.137   2.164   2.187
  2.208   2.234   2.235   2.249   2.256   2.272   2.292   2.305
  2.322   2.334   2.345   2.367   2.381   2.391   2.417   2.456
  2.464   2.476   2.492   2.500   2.533   2.539   2.553   2.577
  2.622   2.634   2.644   2.656   2.687   2.708   2.715   2.728
  2.746   2.762   2.766   2.782   2.827   2.865   2.898   2.905
  2.913   2.946   2.952   2.968   2.973   2.987   3.003   3.033
  3.056   3.074   3.087   3.095   3.117   3.138   3.182   3.203
  3.223   3.244   3.260   3.292   3.308   3.323   3.355   3.363
  3.365   3.386   3.405   3.433   3.449   3.454   3.478   3.489
  3.495   3.511   3.537   3.539   3.551   3.554   3.566   3.604
  3.624   3.638   3.656   3.661   3.676   3.689   3.703   3.708
  3.713   3.729   3.742   3.765   3.779   3.794   3.800   3.832
  3.853   3.885   3.906   3.927   3.959   3.981   4.032   4.072
  4.101   4.158   4.175   4.193   4.219   4.231   4.252   4.284
  4.322   4.413   4.527   4.606   4.616   4.636   4.659   4.696
  4.721   4.790   4.805   4.827   4.889   4.932   4.978   5.045
  5.118   5.148   5.214   5.324   5.361   5.371   5.377   5.394
  5.406   5.417   5.448   5.503   5.568   5.597   5.605   5.678
  5.713   5.720   5.727   5.761   5.779   5.811   5.890   5.984
  6.004   6.083   6.243   6.246   6.303   6.314   6.337   6.382
  6.434   6.456   6.514   6.564   6.624   6.639   6.691   6.699
  6.749   6.772   6.797   6.828   6.878   6.936   6.956   6.969
  6.986   7.049   7.053   7.135   7.254   7.263   7.292   7.338
  7.364   7.404   7.412   7.439   7.514   7.670   7.705  22.686
 22.858  22.942  23.193  23.731  44.265  44.416  44.434  44.492
 44.692
 --------------------------------------------------------------
 
          Ground-State Mulliken Net Atomic Charges

     Atom                 Charge (a.u.)
  ----------------------------------------
      1 C                    -0.058629
      2 C                     0.041002
      3 O                    -0.711822
      4 O                    -0.692041
      5 C                    -0.215961
      6 H                     0.226431
      7 H                     0.226910
      8 O                    -0.294652
      9 H                     0.149543
     10 H                     0.163777
     11 C                     0.627472
     12 C                    -1.035849
     13 H                     0.218757
     14 H                     0.235421
     15 H                     0.215387
     16 O                    -0.877315
     17 O                    -0.565235
     18 H                     0.346805
  ----------------------------------------
  Sum of atomic charges =    -2.000000

 -----------------------------------------------------------------
                    Cartesian Multipole Moments
 -----------------------------------------------------------------
    Charge (ESU x 10^10)
                -9.6064
    Dipole Moment (Debye)
         X       9.7308      Y       8.8843      Z       1.0467
       Tot      13.2179
    Quadrupole Moments (Debye-Ang)
        XX     -93.1996     XY     -26.7047     YY    -152.5759
        XZ       0.2399     YZ       9.5426     ZZ     -69.0071
    Octopole Moments (Debye-Ang^2)
       XXX     113.9437    XXY      78.9786    XYY     148.3184
       YYY     304.2013    XXZ      18.4055    XYZ       2.9881
       YYZ     -21.4066    XZZ      15.3611    YZZ      31.7380
       ZZZ       6.4656
    Hexadecapole Moments (Debye-Ang^3)
      XXXX    -788.7288   XXXY    -560.2859   XXYY    -705.4359
      XYYY    -782.3542   YYYY   -3406.3358   XXXZ      -5.6500
      XXYZ      34.4249   XYYZ      20.4246   YYYZ     308.0476
      XXZZ    -178.3525   XYZZ    -157.2652   YYZZ    -453.8967
      XZZZ      28.5174   YZZZ     128.2979   ZZZZ    -271.5532
 -----------------------------------------------------------------
 Calculating analytic gradient of the SCF energy
 Gradient of SCF Energy
            1           2           3           4           5           6
    1   0.0597906  -0.0292673  -0.0017256   0.0469056  -0.0940491  -0.0574647
    2   0.0074623  -0.0325807   0.0538330  -0.0071091  -0.0185788   0.0249125
    3   0.0519814  -0.0113285  -0.0175927   0.0336249  -0.0754056   0.0243840
            7           8           9          10          11          12
    1   0.0114862   0.0003991   0.0649343  -0.0014623  -0.0585160   0.0648041
    2  -0.0101650   0.0078136  -0.0234189   0.0081510  -0.0990334   0.1078906
    3  -0.0630441  -0.0071167  -0.0082967   0.0719386  -0.0329693   0.0507712
           13          14          15          16          17          18
    1   0.0245338  -0.0080123  -0.0642414   0.0224978  -0.0319059   0.0512931
    2  -0.0109259  -0.0726761   0.0399623   0.0059956   0.0208531  -0.0023862
    3  -0.0777959   0.0367747   0.0021356   0.0113449  -0.0330307   0.0436249
 Max gradient component =       1.079E-01
 RMS gradient           =       4.482E-02
 Computing fast CPCM-ISWIG gradient
 Updating gradient with PCM contributions...
 -- total gradient after adding PCM contribution --
---------------------------------------------------
  Atom         X              Y              Z     
---------------------------------------------------
   1       0.001043      -0.000058      -0.000003
   2      -0.000238      -0.000094      -0.000030
   3       0.000025       0.000004      -0.000002
   4      -0.000048      -0.000030      -0.000053
   5      -0.000227       0.000017      -0.000058
   6      -0.000498       0.000161       0.000122
   7      -0.000104      -0.000003       0.000007
   8       0.000033      -0.000007      -0.000002
   9       0.000011       0.000064      -0.000012
  10      -0.000002      -0.000006       0.000007
  11       0.000050      -0.000099       0.000028
  12       0.000003      -0.000001      -0.000003
  13      -0.000002      -0.000001      -0.000003
  14      -0.000003       0.000002       0.000003
  15       0.000001       0.000001       0.000000
  16      -0.000041       0.000037      -0.000010
  17       0.000001       0.000022       0.000006
  18      -0.000004      -0.000009       0.000003
---------------------------------------------------
 Number of fixed atoms: 0
 Gradient time:  CPU 840.22 s  wall 61.03 s
 ----------------------------------------------------------------
             Standard Nuclear Orientation (Angstroms)
    I     Atom           X                Y                Z
 ----------------------------------------------------------------
    1      C      -0.3916283094    -1.8927905955     0.6214243549
    2      C      -1.4148732130    -2.9856519380     0.2809366652
    3      O      -1.1905336331    -4.1271532604     0.7675636889
    4      O      -2.3989423735    -2.6813283251    -0.4407648720
    5      C      -0.6263622393    -0.5537355214    -0.0533520194
    6      H       0.6050988107    -2.2713121508     0.3632706533
    7      H      -0.3957971816    -1.7647850507     1.7109633085
    8      O       0.3882184441     0.3393687127     0.3710363162
    9      H      -1.6166965259    -0.1647288243     0.2086875255
   10      H      -0.5985150038    -0.6729633633    -1.1446191651
   11      C       0.4110348543     1.6184592665    -0.3431447319
   12      C       1.5171860332     2.4015965277     0.3717647281
   13      H       1.2235437697     2.5795350813     1.4099368497
   14      H       1.6508564642     3.3636284614    -0.1297561270
   15      H       2.4670302688     1.8587474895     0.3600431589
   16      O      -0.7551267970     2.2064199265    -0.4263152044
   17      O       0.9406358012     1.3083037193    -1.6784979470
   18      H       0.1742804412     1.4328026688    -2.2513115232
 ----------------------------------------------------------------
 Nuclear Repulsion Energy =   538.8202966092 hartrees
 There are       40 alpha and       40 beta electrons
 Discretize the solute cavity surface with Lebedev spheres
	Using 110 Lebedev grid points for each H atom
	Using 110 Lebedev grid points for other atoms
	Atomic van der Waals radii will be scaled by 1.20
 Remove points where switching function is < 1.0e-08
 Keep 1077 surface tesserae and discard 903 interior tesserae
 Molecular Surface Area = 189.666 Angst**2
 Requested basis set is def2-TZVPD
 There are 175 shells and 457 basis functions
 A cutoff of  1.0D-14 yielded  13811 shell pairs
 There are     94065 function pairs (    119542 Cartesian)
 Smallest overlap matrix eigenvalue = 3.92E-06
 Guess MOs from SCF MO coefficient file
 Reading MOs from coefficient file
 Reading MOs from coefficient file
 Long-range K will be added via erf
 Coulomb attenuation parameter = 0.3 bohr**(-1)
 A restricted hybrid HF-DFT SCF calculation will be
 performed using Pulay DIIS extrapolation
 Polarizable Continuum solvation model will be applied
 Exchange:     0.1670 Hartree-Fock + 1.0000 wB97X-V + LR-HF
 Correlation:  1.0000 wB97X-V
 Using SG-2 standard quadrature grid
 Nonlocal Correlation:  VV10 with C = 0.0100 and b = 6.00
 Grid used for NLC:  SG-1 standard quadrature
 SCF converges when DIIS error is below 1.0E-08
Using Q-Chem read-in guess as SCF_GUESS READ specified.

 using 16 threads for integral computing
 -------------------------------------------------------
 OpenMP Integral computing Module                
 Release: version 1.0, May 2013, Q-Chem Inc. Pittsburgh 
 -------------------------------------------------------
 using 16 threads for integral computing
 -------------------------------------------------------
 OpenMP Integral computing Module                
 Release: version 1.0, May 2013, Q-Chem Inc. Pittsburgh 
 -------------------------------------------------------
 -------------------------------------------------------
 OpenMP BLAS3 based DFT computing Module                
 Release: version 1.0, May 2013, Q-Chem Inc. Pittsburgh 
 -------------------------------------------------------
 -------------------------------------------------------
 OpenMP BLAS3 based DFT computing Module                
 Release: version 1.0, May 2013, Q-Chem Inc. Pittsburgh 
 -------------------------------------------------------
 -------------------------------------------------------
 OpenMP BLAS3 based DFT computing Module                
 Release: version 1.0, May 2013, Q-Chem Inc. Pittsburgh 
 -------------------------------------------------------
 ---------------------------------------
  Cycle       Energy         DIIS Error
 ---------------------------------------
    1    -571.5138373255      3.16E-04
    2    -571.8134637448      3.36E-04
    3    -571.8177358033      1.55E-04
    4    -571.8184266835      1.14E-04
    5    -571.8188710604      8.55E-05
    6    -571.8191516191      6.22E-05
    7    -571.8193783658      3.30E-05
    8    -571.8194508484      1.41E-05
    9    -571.8194662963      3.18E-06
   10    -571.8194670522      8.19E-07
   11    -571.8194671002      1.40E-07
   12    -571.8194671013      3.43E-08
   13    -571.8194671014      9.25E-09 Convergence criterion met
 ---------------------------------------

************** Final PCM Free Energy Summary **************
 G_electrostatic  =      -0.30515630 hartree =    -191.48847069 kcal/mol
 G_cavitation     =       0.00000000 hartree =       0.00000000 kcal/mol
 G_dispersion     =       0.00000000 hartree =       0.00000000 kcal/mol
 G_repulsion      =       0.00000000 hartree =       0.00000000 kcal/mol
 --------------------------------------------------
 Non-electrostatic Free Energy =       0.00000000 hartree =       0.00000000 kcal/mol
 Total                         =      -0.30515630 hartree =    -191.48847069 kcal/mol
 --------------------------------------------------
 SCF Energy (H0 + V/2)                       =    -571.81946710 
 Solute Internal Energy (H0)                 =    -571.51431080 
 Total Free Energy (H0 + V/2 + non-elec)     =    -571.81946710 hartree
                                             = -358822.13130828 kcal/mol
***********************************************************

 SCF time:  CPU 3112.55 s  wall 222.42 s
 SCF   energy in the final basis set = -571.81946710
 Total energy in the final basis set = -571.81946710
 
 --------------------------------------------------------------
 
                    Orbital Energies (a.u.)
 --------------------------------------------------------------
 
 Alpha MOs
 -- Occupied --
-19.180 -19.179 -19.140 -19.137 -19.103 -10.366 -10.341 -10.283
-10.245 -10.232  -1.167  -1.143  -1.092  -1.048  -1.028  -0.875
 -0.830  -0.732  -0.664  -0.614  -0.584  -0.573  -0.545  -0.541
 -0.523  -0.514  -0.499  -0.489  -0.474  -0.460  -0.445  -0.436
 -0.407  -0.383  -0.353  -0.343  -0.337  -0.330  -0.314  -0.308
 -- Virtual --
  0.059   0.072   0.083   0.087   0.101   0.102   0.108   0.125
  0.126   0.129   0.133   0.143   0.150   0.156   0.161   0.164
  0.178   0.186   0.190   0.197   0.207   0.213   0.220   0.222
  0.234   0.245   0.247   0.258   0.261   0.267   0.274   0.278
  0.287   0.288   0.298   0.304   0.310   0.314   0.319   0.331
  0.332   0.339   0.344   0.348   0.355   0.363   0.366   0.370
  0.376   0.385   0.390   0.393   0.397   0.399   0.402   0.406
  0.416   0.417   0.422   0.428   0.431   0.440   0.446   0.448
  0.451   0.457   0.461   0.470   0.477   0.487   0.489   0.492
  0.498   0.507   0.509   0.513   0.518   0.529   0.531   0.538
  0.551   0.557   0.563   0.569   0.571   0.575   0.578   0.584
  0.592   0.603   0.606   0.614   0.618   0.625   0.634   0.652
  0.654   0.657   0.659   0.670   0.675   0.690   0.695   0.702
  0.710   0.715   0.728   0.737   0.741   0.755   0.761   0.768
  0.775   0.782   0.783   0.792   0.799   0.803   0.806   0.817
  0.819   0.825   0.828   0.833   0.845   0.857   0.861   0.870
  0.881   0.882   0.885   0.902   0.907   0.914   0.919   0.922
  0.939   0.945   0.948   0.951   0.980   0.986   1.009   1.030
  1.040   1.052   1.055   1.076   1.083   1.089   1.097   1.111
  1.117   1.146   1.157   1.161   1.184   1.198   1.206   1.220
  1.230   1.239   1.264   1.268   1.276   1.292   1.312   1.318
  1.327   1.347   1.356   1.381   1.392   1.399   1.412   1.424
  1.434   1.454   1.461   1.481   1.495   1.502   1.534   1.575
  1.583   1.618   1.641   1.648   1.702   1.750   1.766   1.827
  1.848   1.854   1.896   1.904   1.921   1.938   1.947   1.967
  1.972   1.977   1.982   1.987   2.005   2.008   2.024   2.039
  2.045   2.051   2.083   2.093   2.118   2.137   2.164   2.187
  2.208   2.234   2.235   2.249   2.256   2.272   2.292   2.305
  2.322   2.334   2.345   2.367   2.382   2.391   2.417   2.456
  2.464   2.476   2.492   2.500   2.533   2.539   2.553   2.577
  2.622   2.634   2.644   2.656   2.687   2.708   2.716   2.729
  2.746   2.763   2.766   2.783   2.828   2.865   2.898   2.905
  2.913   2.946   2.952   2.968   2.973   2.987   3.003   3.033
  3.056   3.075   3.087   3.094   3.117   3.138   3.182   3.203
  3.223   3.244   3.260   3.292   3.308   3.323   3.355   3.363
  3.365   3.386   3.405   3.433   3.449   3.454   3.479   3.489
  3.495   3.511   3.537   3.539   3.551   3.554   3.566   3.603
  3.624   3.638   3.656   3.661   3.675   3.689   3.703   3.708
  3.713   3.729   3.742   3.765   3.779   3.794   3.800   3.832
  3.853   3.885   3.906   3.927   3.959   3.981   4.032   4.072
  4.101   4.158   4.175   4.193   4.219   4.231   4.252   4.284
  4.323   4.414   4.528   4.607   4.617   4.636   4.659   4.696
  4.721   4.789   4.805   4.827   4.889   4.932   4.979   5.045
  5.119   5.148   5.214   5.324   5.361   5.371   5.377   5.394
  5.406   5.417   5.448   5.503   5.568   5.597   5.605   5.678
  5.713   5.720   5.727   5.761   5.779   5.811   5.890   5.984
  6.004   6.083   6.243   6.246   6.303   6.314   6.337   6.382
  6.434   6.456   6.514   6.564   6.624   6.639   6.691   6.699
  6.749   6.772   6.797   6.828   6.878   6.936   6.957   6.969
  6.986   7.049   7.053   7.135   7.255   7.263   7.291   7.338
  7.364   7.404   7.412   7.439   7.514   7.670   7.705  22.686
 22.858  22.942  23.193  23.732  44.265  44.416  44.434  44.492
 44.692
 --------------------------------------------------------------
 
          Ground-State Mulliken Net Atomic Charges

     Atom                 Charge (a.u.)
  ----------------------------------------
      1 C                    -0.056868
      2 C                     0.039851
      3 O                    -0.711929
      4 O                    -0.692160
      5 C                    -0.215937
      6 H                     0.225065
      7 H                     0.227715
      8 O                    -0.294716
      9 H                     0.149303
     10 H                     0.163887
     11 C                     0.627832
     12 C                    -1.035941
     13 H                     0.218786
     14 H                     0.235431
     15 H                     0.215402
     16 O                    -0.877297
     17 O                    -0.565234
     18 H                     0.346808
  ----------------------------------------
  Sum of atomic charges =    -2.000000

 -----------------------------------------------------------------
                    Cartesian Multipole Moments
 -----------------------------------------------------------------
    Charge (ESU x 10^10)
                -9.6064
    Dipole Moment (Debye)
         X       9.7314      Y       8.8869      Z       1.0480
       Tot      13.2203
    Quadrupole Moments (Debye-Ang)
        XX     -93.2040     XY     -26.7027     YY    -152.5815
        XZ       0.2390     YZ       9.5392     ZZ     -69.0052
    Octopole Moments (Debye-Ang^2)
       XXX     113.9813    XXY      78.9910    XYY     148.3286
       YYY     304.2395    XXZ      18.4100    XYZ       2.9932
       YYZ     -21.3979    XZZ      15.3741    YZZ      31.7395
       ZZZ       6.4682
    Hexadecapole Moments (Debye-Ang^3)
      XXXX    -788.8018   XXXY    -560.3464   XXYY    -705.4656
      XYYY    -782.3919   YYYY   -3406.4091   XXXZ      -5.6479
      XXYZ      34.4081   XYYZ      20.4092   YYYZ     308.0131
      XXZZ    -178.3640   XYZZ    -157.2859   YYZZ    -453.8934
      XZZZ      28.5380   YZZZ     128.2860   ZZZZ    -271.5393
 -----------------------------------------------------------------
 Calculating analytic gradient of the SCF energy
 Gradient of SCF Energy
            1           2           3           4           5           6
    1   0.0581080  -0.0288028  -0.0017767   0.0469328  -0.0938911  -0.0564129
    2   0.0077525  -0.0322681   0.0538371  -0.0070764  -0.0188720   0.0244692
    3   0.0520555  -0.0112239  -0.0175880   0.0336619  -0.0752979   0.0241593
            7           8           9          10          11          12
    1   0.0115079   0.0003669   0.0649598  -0.0014488  -0.0584870   0.0647858
    2  -0.0102072   0.0078552  -0.0234123   0.0082003  -0.0989467   0.1078586
    3  -0.0630178  -0.0071680  -0.0082949   0.0718260  -0.0329364   0.0507621
           13          14          15          16          17          18
    1   0.0245338  -0.0080115  -0.0642343   0.0224904  -0.0319126   0.0512921
    2  -0.0109194  -0.0726714   0.0399668   0.0059893   0.0208354  -0.0023907
    3  -0.0777873   0.0367739   0.0021299   0.0113444  -0.0330285   0.0436296
 Max gradient component =       1.079E-01
 RMS gradient           =       4.472E-02
 Computing fast CPCM-ISWIG gradient
 Updating gradient with PCM contributions...
 -- total gradient after adding PCM contribution --
---------------------------------------------------
  Atom         X              Y              Z     
---------------------------------------------------
   1      -0.000991       0.000084       0.000028
   2       0.000218       0.000069      -0.000015
   3      -0.000012       0.000012       0.000018
   4       0.000054       0.000040       0.000054
   5       0.000102      -0.000126       0.000010
   6       0.000496      -0.000141      -0.000105
   7       0.000055      -0.000008      -0.000009
   8       0.000044       0.000153      -0.000059
   9       0.000024      -0.000031       0.000041
  10      -0.000005       0.000002      -0.000002
  11       0.000070      -0.000117       0.000054
  12       0.000003       0.000005      -0.000007
  13      -0.000003      -0.000001      -0.000003
  14      -0.000001       0.000003       0.000004
  15       0.000001       0.000001       0.000000
  16      -0.000055       0.000039      -0.000013
  17       0.000001       0.000025       0.000001
  18      -0.000003      -0.000010       0.000003
---------------------------------------------------
 Number of fixed atoms: 0
 Gradient time:  CPU 840.36 s  wall 61.26 s
 ----------------------------------------------------------------
             Standard Nuclear Orientation (Angstroms)
    I     Atom           X                Y                Z
 ----------------------------------------------------------------
    1      C      -0.3906283094    -1.8917905955     0.6214243549
    2      C      -1.4148732130    -2.9856519380     0.2809366652
    3      O      -1.1905336331    -4.1271532604     0.7675636889
    4      O      -2.3989423735    -2.6813283251    -0.4407648720
    5      C      -0.6263622393    -0.5537355214    -0.0533520194
    6      H       0.6050988107    -2.2713121508     0.3632706533
    7      H      -0.3957971816    -1.7647850507     1.7109633085
    8      O       0.3882184441     0.3393687127     0.3710363162
    9      H      -1.6166965259    -0.1647288243     0.2086875255
   10      H      -0.5985150038    -0.6729633633    -1.1446191651
   11      C       0.4110348543     1.6184592665    -0.3431447319
   12      C       1.5171860332     2.4015965277     0.3717647281
   13      H       1.2235437697     2.5795350813     1.4099368497
   14      H       1.6508564642     3.3636284614    -0.1297561270
   15      H       2.4670302688     1.8587474895     0.3600431589
   16      O      -0.7551267970     2.2064199265    -0.4263152044
   17      O       0.9406358012     1.3083037193    -1.6784979470
   18      H       0.1742804412     1.4328026688    -2.2513115232
 ----------------------------------------------------------------
 Nuclear Repulsion Energy =   538.8184957741 hartrees
 There are       40 alpha and       40 beta electrons
 Discretize the solute cavity surface with Lebedev spheres
	Using 110 Lebedev grid points for each H atom
	Using 110 Lebedev grid points for other atoms
	Atomic van der Waals radii will be scaled by 1.20
 Remove points where switching function is < 1.0e-08
 Keep 1077 surface tesserae and discard 903 interior tesserae
 Molecular Surface Area = 189.664 Angst**2
 Requested basis set is def2-TZVPD
 There are 175 shells and 457 basis functions
 A cutoff of  1.0D-14 yielded  13811 shell pairs
 There are     94065 function pairs (    119542 Cartesian)
 Smallest overlap matrix eigenvalue = 3.92E-06
 Guess MOs from SCF MO coefficient file
 Reading MOs from coefficient file
 Reading MOs from coefficient file
 Long-range K will be added via erf
 Coulomb attenuation parameter = 0.3 bohr**(-1)
 A restricted hybrid HF-DFT SCF calculation will be
 performed using Pulay DIIS extrapolation
 Polarizable Continuum solvation model will be applied
 Exchange:     0.1670 Hartree-Fock + 1.0000 wB97X-V + LR-HF
 Correlation:  1.0000 wB97X-V
 Using SG-2 standard quadrature grid
 Nonlocal Correlation:  VV10 with C = 0.0100 and b = 6.00
 Grid used for NLC:  SG-1 standard quadrature
 SCF converges when DIIS error is below 1.0E-08
Using Q-Chem read-in guess as SCF_GUESS READ specified.

 using 16 threads for integral computing
 -------------------------------------------------------
 OpenMP Integral computing Module                
 Release: version 1.0, May 2013, Q-Chem Inc. Pittsburgh 
 -------------------------------------------------------
 using 16 threads for integral computing
 -------------------------------------------------------
 OpenMP Integral computing Module                
 Release: version 1.0, May 2013, Q-Chem Inc. Pittsburgh 
 -------------------------------------------------------
 -------------------------------------------------------
 OpenMP BLAS3 based DFT computing Module                
 Release: version 1.0, May 2013, Q-Chem Inc. Pittsburgh 
 -------------------------------------------------------
 -------------------------------------------------------
 OpenMP BLAS3 based DFT computing Module                
 Release: version 1.0, May 2013, Q-Chem Inc. Pittsburgh 
 -------------------------------------------------------
 -------------------------------------------------------
 OpenMP BLAS3 based DFT computing Module                
 Release: version 1.0, May 2013, Q-Chem Inc. Pittsburgh 
 -------------------------------------------------------
 ---------------------------------------
  Cycle       Energy         DIIS Error
 ---------------------------------------
    1    -571.5144210094      3.15E-04
    2    -571.8134557041      3.36E-04
    3    -571.8177309752      1.55E-04
    4    -571.8184218068      1.14E-04
    5    -571.8188545001      8.67E-05
    6    -571.8191145073      6.58E-05
    7    -571.8193317678      4.08E-05
    8    -571.8194303140      2.13E-05
    9    -571.8194639876      6.20E-06
   10    -571.8194668355      1.77E-06
   11    -571.8194670733      2.74E-07
   12    -571.8194670783      6.17E-08
   13    -571.8194670786      9.76E-09 Convergence criterion met
 ---------------------------------------

************** Final PCM Free Energy Summary **************
 G_electrostatic  =      -0.30515011 hartree =    -191.48458299 kcal/mol
 G_cavitation     =       0.00000000 hartree =       0.00000000 kcal/mol
 G_dispersion     =       0.00000000 hartree =       0.00000000 kcal/mol
 G_repulsion      =       0.00000000 hartree =       0.00000000 kcal/mol
 --------------------------------------------------
 Non-electrostatic Free Energy =       0.00000000 hartree =       0.00000000 kcal/mol
 Total                         =      -0.30515011 hartree =    -191.48458299 kcal/mol
 --------------------------------------------------
 SCF Energy (H0 + V/2)                       =    -571.81946708 
 Solute Internal Energy (H0)                 =    -571.51431697 
 Total Free Energy (H0 + V/2 + non-elec)     =    -571.81946708 hartree
                                             = -358822.13129397 kcal/mol
***********************************************************

 SCF time:  CPU 3140.15 s  wall 223.97 s
 SCF   energy in the final basis set = -571.81946708
 Total energy in the final basis set = -571.81946708
 
 --------------------------------------------------------------
 
                    Orbital Energies (a.u.)
 --------------------------------------------------------------
 
 Alpha MOs
 -- Occupied --
-19.180 -19.179 -19.140 -19.137 -19.103 -10.366 -10.341 -10.283
-10.245 -10.232  -1.167  -1.143  -1.092  -1.048  -1.028  -0.875
 -0.830  -0.732  -0.664  -0.614  -0.584  -0.573  -0.545  -0.541
 -0.523  -0.514  -0.499  -0.489  -0.474  -0.460  -0.445  -0.436
 -0.407  -0.383  -0.353  -0.343  -0.337  -0.330  -0.314  -0.308
 -- Virtual --
  0.059   0.072   0.083   0.087   0.101   0.102   0.108   0.125
  0.126   0.129   0.133   0.143   0.150   0.156   0.161   0.164
  0.178   0.186   0.190   0.197   0.207   0.213   0.220   0.222
  0.234   0.245   0.247   0.258   0.261   0.267   0.274   0.278
  0.287   0.288   0.298   0.304   0.310   0.314   0.319   0.331
  0.332   0.339   0.344   0.348   0.355   0.363   0.366   0.370
  0.376   0.385   0.390   0.393   0.397   0.399   0.402   0.406
  0.416   0.417   0.422   0.428   0.431   0.440   0.446   0.448
  0.451   0.457   0.461   0.470   0.477   0.487   0.489   0.492
  0.498   0.507   0.509   0.513   0.517   0.529   0.531   0.538
  0.551   0.557   0.563   0.569   0.571   0.575   0.578   0.584
  0.592   0.603   0.606   0.614   0.618   0.625   0.634   0.652
  0.654   0.657   0.659   0.670   0.675   0.690   0.695   0.702
  0.710   0.715   0.728   0.737   0.741   0.755   0.761   0.768
  0.775   0.782   0.783   0.792   0.799   0.803   0.806   0.817
  0.819   0.825   0.828   0.833   0.845   0.857   0.861   0.870
  0.881   0.882   0.885   0.902   0.907   0.914   0.919   0.922
  0.939   0.945   0.948   0.951   0.980   0.986   1.009   1.030
  1.040   1.052   1.055   1.076   1.083   1.089   1.097   1.111
  1.117   1.146   1.157   1.161   1.184   1.198   1.206   1.220
  1.230   1.239   1.264   1.268   1.276   1.292   1.312   1.318
  1.327   1.347   1.356   1.381   1.392   1.399   1.412   1.424
  1.434   1.454   1.461   1.481   1.495   1.502   1.534   1.575
  1.583   1.618   1.641   1.649   1.702   1.749   1.766   1.827
  1.848   1.854   1.896   1.904   1.921   1.938   1.947   1.967
  1.972   1.977   1.983   1.987   2.005   2.008   2.024   2.039
  2.045   2.051   2.083   2.092   2.118   2.137   2.164   2.187
  2.208   2.234   2.235   2.249   2.256   2.272   2.292   2.305
  2.322   2.334   2.345   2.367   2.382   2.391   2.417   2.456
  2.464   2.476   2.492   2.500   2.533   2.539   2.553   2.577
  2.622   2.634   2.644   2.656   2.687   2.708   2.716   2.729
  2.746   2.763   2.766   2.783   2.828   2.865   2.898   2.905
  2.913   2.946   2.952   2.968   2.973   2.987   3.003   3.033
  3.056   3.074   3.088   3.095   3.117   3.138   3.182   3.203
  3.223   3.244   3.260   3.292   3.308   3.323   3.355   3.363
  3.365   3.386   3.405   3.433   3.449   3.454   3.479   3.489
  3.494   3.510   3.537   3.539   3.551   3.554   3.566   3.603
  3.624   3.638   3.656   3.661   3.675   3.689   3.703   3.708
  3.713   3.729   3.742   3.765   3.779   3.794   3.800   3.832
  3.853   3.885   3.906   3.927   3.959   3.981   4.032   4.072
  4.100   4.158   4.175   4.193   4.219   4.231   4.252   4.284
  4.322   4.414   4.527   4.607   4.617   4.636   4.659   4.696
  4.721   4.789   4.805   4.827   4.889   4.932   4.979   5.045
  5.118   5.148   5.214   5.324   5.360   5.371   5.377   5.394
  5.406   5.417   5.448   5.503   5.568   5.597   5.605   5.678
  5.713   5.720   5.727   5.761   5.779   5.811   5.890   5.984
  6.004   6.083   6.243   6.246   6.303   6.314   6.337   6.382
  6.434   6.456   6.514   6.564   6.624   6.639   6.691   6.699
  6.749   6.772   6.797   6.828   6.878   6.936   6.957   6.969
  6.986   7.049   7.053   7.135   7.254   7.263   7.292   7.338
  7.364   7.404   7.412   7.439   7.514   7.670   7.705  22.686
 22.858  22.943  23.193  23.731  44.265  44.416  44.434  44.492
 44.692
 --------------------------------------------------------------
 
          Ground-State Mulliken Net Atomic Charges

     Atom                 Charge (a.u.)
  ----------------------------------------
      1 C                    -0.058075
      2 C                     0.040438
      3 O                    -0.711863
      4 O                    -0.692056
      5 C                    -0.215137
      6 H                     0.225509
      7 H                     0.227620
      8 O                    -0.294660
      9 H                     0.149093
     10 H                     0.163600
     11 C                     0.627532
     12 C                    -1.035868
     13 H                     0.218776
     14 H                     0.235433
     15 H                     0.215401
     16 O                    -0.877321
     17 O                    -0.565244
     18 H                     0.346823
  ----------------------------------------
  Sum of atomic charges =    -2.000000

 -----------------------------------------------------------------
                    Cartesian Multipole Moments
 -----------------------------------------------------------------
    Charge (ESU x 10^10)
                -9.6064
    Dipole Moment (Debye)
         X       9.7299      Y       8.8848      Z       1.0472
       Tot      13.2176
    Quadrupole Moments (Debye-Ang)
        XX     -93.2017     XY     -26.7006     YY    -152.5733
        XZ       0.2389     YZ       9.5394     ZZ     -69.0059
    Octopole Moments (Debye-Ang^2)
       XXX     113.9591    XXY      78.9775    XYY     148.3101
       YYY     304.1707    XXZ      18.4085    XYZ       2.9935
       YYZ     -21.3933    XZZ      15.3668    YZZ      31.7319
       ZZZ       6.4664
    Hexadecapole Moments (Debye-Ang^3)
      XXXX    -788.7663   XXXY    -560.3008   XXYY    -705.4154
      XYYY    -782.3041   YYYY   -3406.0806   XXXZ      -5.6529
      XXYZ      34.4082   XYYZ      20.4036   YYYZ     307.9802
      XXZZ    -178.3586   XYZZ    -157.2718   YYZZ    -453.8672
      XZZZ      28.5270   YZZZ     128.2772   ZZZZ    -271.5443
 -----------------------------------------------------------------
 Calculating analytic gradient of the SCF energy
 Gradient of SCF Energy
            1           2           3           4           5           6
    1   0.0588924  -0.0291436  -0.0017723   0.0469134  -0.0940133  -0.0567173
    2   0.0081319  -0.0326422   0.0538034  -0.0070711  -0.0189507   0.0246678
    3   0.0521951  -0.0113005  -0.0175870   0.0336375  -0.0754008   0.0242358
            7           8           9          10          11          12
    1   0.0115457   0.0003651   0.0649273  -0.0014380  -0.0585243   0.0648026
    2  -0.0101440   0.0077929  -0.0234332   0.0081431  -0.0990087   0.1078975
    3  -0.0631080  -0.0071475  -0.0082435   0.0718423  -0.0329454   0.0507625
           13          14          15          16          17          18
    1   0.0245346  -0.0080124  -0.0642392   0.0224944  -0.0319090   0.0512939
    2  -0.0109237  -0.0726776   0.0399655   0.0059921   0.0208435  -0.0023866
    3  -0.0777941   0.0367779   0.0021321   0.0113446  -0.0330287   0.0436278
 Max gradient component =       1.079E-01
 RMS gradient           =       4.478E-02
 Computing fast CPCM-ISWIG gradient
 Updating gradient with PCM contributions...
 -- total gradient after adding PCM contribution --
---------------------------------------------------
  Atom         X              Y              Z     
---------------------------------------------------
   1      -0.000047       0.000978      -0.000000
   2      -0.000085      -0.000245      -0.000055
   3      -0.000043      -0.000086       0.000014
   4       0.000002       0.000023       0.000009
   5      -0.000015      -0.000384       0.000076
   6       0.000155      -0.000135      -0.000030
   7      -0.000025      -0.000103      -0.000063
   8       0.000028       0.000004      -0.000008
   9       0.000024      -0.000005       0.000029
  10      -0.000003       0.000003       0.000001
  11       0.000057      -0.000106       0.000034
  12       0.000003       0.000001      -0.000004
  13      -0.000002      -0.000001      -0.000004
  14      -0.000002       0.000002       0.000003
  15       0.000001       0.000002       0.000000
  16      -0.000046       0.000038      -0.000010
  17       0.000001       0.000025       0.000005
  18      -0.000003      -0.000010       0.000003
---------------------------------------------------
 Number of fixed atoms: 0
 Gradient time:  CPU 896.29 s  wall 64.70 s
 ----------------------------------------------------------------
             Standard Nuclear Orientation (Angstroms)
    I     Atom           X                Y                Z
 ----------------------------------------------------------------
    1      C      -0.3906283094    -1.8937905955     0.6214243549
    2      C      -1.4148732130    -2.9856519380     0.2809366652
    3      O      -1.1905336331    -4.1271532604     0.7675636889
    4      O      -2.3989423735    -2.6813283251    -0.4407648720
    5      C      -0.6263622393    -0.5537355214    -0.0533520194
    6      H       0.6050988107    -2.2713121508     0.3632706533
    7      H      -0.3957971816    -1.7647850507     1.7109633085
    8      O       0.3882184441     0.3393687127     0.3710363162
    9      H      -1.6166965259    -0.1647288243     0.2086875255
   10      H      -0.5985150038    -0.6729633633    -1.1446191651
   11      C       0.4110348543     1.6184592665    -0.3431447319
   12      C       1.5171860332     2.4015965277     0.3717647281
   13      H       1.2235437697     2.5795350813     1.4099368497
   14      H       1.6508564642     3.3636284614    -0.1297561270
   15      H       2.4670302688     1.8587474895     0.3600431589
   16      O      -0.7551267970     2.2064199265    -0.4263152044
   17      O       0.9406358012     1.3083037193    -1.6784979470
   18      H       0.1742804412     1.4328026688    -2.2513115232
 ----------------------------------------------------------------
 Nuclear Repulsion Energy =   538.8075952193 hartrees
 There are       40 alpha and       40 beta electrons
 Discretize the solute cavity surface with Lebedev spheres
	Using 110 Lebedev grid points for each H atom
	Using 110 Lebedev grid points for other atoms
	Atomic van der Waals radii will be scaled by 1.20
 Remove points where switching function is < 1.0e-08
 Keep 1077 surface tesserae and discard 903 interior tesserae
 Molecular Surface Area = 189.674 Angst**2
 Requested basis set is def2-TZVPD
 There are 175 shells and 457 basis functions
 A cutoff of  1.0D-14 yielded  13811 shell pairs
 There are     94065 function pairs (    119542 Cartesian)
 Smallest overlap matrix eigenvalue = 3.93E-06
 Guess MOs from SCF MO coefficient file
 Reading MOs from coefficient file
 Reading MOs from coefficient file
 Long-range K will be added via erf
 Coulomb attenuation parameter = 0.3 bohr**(-1)
 A restricted hybrid HF-DFT SCF calculation will be
 performed using Pulay DIIS extrapolation
 Polarizable Continuum solvation model will be applied
 Exchange:     0.1670 Hartree-Fock + 1.0000 wB97X-V + LR-HF
 Correlation:  1.0000 wB97X-V
 Using SG-2 standard quadrature grid
 Nonlocal Correlation:  VV10 with C = 0.0100 and b = 6.00
 Grid used for NLC:  SG-1 standard quadrature
 SCF converges when DIIS error is below 1.0E-08
Using Q-Chem read-in guess as SCF_GUESS READ specified.

 using 16 threads for integral computing
 -------------------------------------------------------
 OpenMP Integral computing Module                
 Release: version 1.0, May 2013, Q-Chem Inc. Pittsburgh 
 -------------------------------------------------------
 using 16 threads for integral computing
 -------------------------------------------------------
 OpenMP Integral computing Module                
 Release: version 1.0, May 2013, Q-Chem Inc. Pittsburgh 
 -------------------------------------------------------
 -------------------------------------------------------
 OpenMP BLAS3 based DFT computing Module                
 Release: version 1.0, May 2013, Q-Chem Inc. Pittsburgh 
 -------------------------------------------------------
 -------------------------------------------------------
 OpenMP BLAS3 based DFT computing Module                
 Release: version 1.0, May 2013, Q-Chem Inc. Pittsburgh 
 -------------------------------------------------------
 -------------------------------------------------------
 OpenMP BLAS3 based DFT computing Module                
 Release: version 1.0, May 2013, Q-Chem Inc. Pittsburgh 
 -------------------------------------------------------
 ---------------------------------------
  Cycle       Energy         DIIS Error
 ---------------------------------------
    1    -571.5145926301      3.16E-04
    2    -571.8134711224      3.36E-04
    3    -571.8177366495      1.55E-04
    4    -571.8184264777      1.14E-04
    5    -571.8188697770      8.56E-05
    6    -571.8191546686      6.19E-05
    7    -571.8193824671      3.23E-05
    8    -571.8194522652      1.35E-05
    9    -571.8194664692      2.89E-06
   10    -571.8194670899      7.67E-07
   11    -571.8194671316      1.34E-07
   12    -571.8194671326      3.02E-08
   13    -571.8194671326      9.19E-09 Convergence criterion met
 ---------------------------------------

************** Final PCM Free Energy Summary **************
 G_electrostatic  =      -0.30515929 hartree =    -191.49034346 kcal/mol
 G_cavitation     =       0.00000000 hartree =       0.00000000 kcal/mol
 G_dispersion     =       0.00000000 hartree =       0.00000000 kcal/mol
 G_repulsion      =       0.00000000 hartree =       0.00000000 kcal/mol
 --------------------------------------------------
 Non-electrostatic Free Energy =       0.00000000 hartree =       0.00000000 kcal/mol
 Total                         =      -0.30515929 hartree =    -191.49034346 kcal/mol
 --------------------------------------------------
 SCF Energy (H0 + V/2)                       =    -571.81946713 
 Solute Internal Energy (H0)                 =    -571.51430784 
 Total Free Energy (H0 + V/2 + non-elec)     =    -571.81946713 hartree
                                             = -358822.13132790 kcal/mol
***********************************************************

 SCF time:  CPU 3141.28 s  wall 224.50 s
 SCF   energy in the final basis set = -571.81946713
 Total energy in the final basis set = -571.81946713
 
 --------------------------------------------------------------
 
                    Orbital Energies (a.u.)
 --------------------------------------------------------------
 
 Alpha MOs
 -- Occupied --
-19.180 -19.179 -19.140 -19.137 -19.103 -10.366 -10.341 -10.283
-10.245 -10.232  -1.167  -1.143  -1.092  -1.048  -1.028  -0.875
 -0.830  -0.732  -0.664  -0.614  -0.584  -0.573  -0.545  -0.541
 -0.523  -0.514  -0.499  -0.489  -0.474  -0.460  -0.445  -0.437
 -0.407  -0.383  -0.353  -0.343  -0.337  -0.330  -0.314  -0.308
 -- Virtual --
  0.059   0.072   0.083   0.087   0.101   0.102   0.108   0.125
  0.126   0.129   0.133   0.143   0.150   0.156   0.161   0.164
  0.178   0.186   0.190   0.197   0.207   0.213   0.220   0.222
  0.234   0.245   0.247   0.258   0.261   0.267   0.274   0.278
  0.288   0.288   0.298   0.304   0.310   0.314   0.319   0.331
  0.332   0.339   0.344   0.348   0.355   0.363   0.366   0.370
  0.376   0.384   0.390   0.393   0.397   0.399   0.402   0.406
  0.416   0.417   0.422   0.428   0.431   0.440   0.446   0.448
  0.451   0.457   0.461   0.470   0.477   0.487   0.489   0.492
  0.498   0.507   0.509   0.513   0.518   0.529   0.531   0.538
  0.551   0.557   0.563   0.569   0.571   0.575   0.578   0.584
  0.592   0.603   0.606   0.614   0.618   0.625   0.634   0.652
  0.654   0.657   0.659   0.670   0.675   0.690   0.695   0.702
  0.710   0.715   0.728   0.737   0.741   0.755   0.761   0.768
  0.775   0.782   0.783   0.792   0.799   0.803   0.806   0.817
  0.819   0.825   0.828   0.833   0.845   0.857   0.861   0.870
  0.881   0.882   0.885   0.902   0.907   0.914   0.919   0.922
  0.939   0.945   0.948   0.951   0.980   0.986   1.009   1.030
  1.040   1.052   1.055   1.076   1.083   1.089   1.097   1.111
  1.117   1.146   1.157   1.161   1.184   1.198   1.206   1.220
  1.230   1.239   1.264   1.268   1.276   1.292   1.312   1.318
  1.327   1.347   1.356   1.381   1.392   1.399   1.412   1.424
  1.434   1.454   1.461   1.481   1.495   1.502   1.534   1.575
  1.583   1.617   1.641   1.649   1.702   1.750   1.766   1.827
  1.848   1.854   1.896   1.904   1.921   1.938   1.947   1.967
  1.972   1.977   1.982   1.987   2.005   2.008   2.024   2.039
  2.045   2.051   2.083   2.093   2.118   2.137   2.164   2.187
  2.208   2.234   2.235   2.249   2.256   2.272   2.291   2.305
  2.322   2.334   2.345   2.367   2.381   2.391   2.417   2.456
  2.464   2.476   2.492   2.500   2.533   2.539   2.553   2.577
  2.622   2.634   2.644   2.656   2.687   2.708   2.716   2.728
  2.747   2.763   2.766   2.783   2.828   2.864   2.898   2.906
  2.913   2.946   2.952   2.968   2.973   2.987   3.003   3.033
  3.056   3.074   3.087   3.095   3.117   3.138   3.182   3.203
  3.223   3.244   3.260   3.292   3.308   3.323   3.355   3.363
  3.365   3.387   3.405   3.433   3.449   3.454   3.479   3.489
  3.495   3.511   3.537   3.539   3.551   3.554   3.566   3.603
  3.624   3.637   3.656   3.661   3.675   3.689   3.703   3.708
  3.713   3.729   3.742   3.765   3.780   3.794   3.800   3.832
  3.853   3.885   3.906   3.927   3.959   3.981   4.032   4.072
  4.101   4.158   4.175   4.193   4.219   4.231   4.252   4.284
  4.322   4.413   4.528   4.606   4.616   4.636   4.659   4.696
  4.721   4.790   4.805   4.827   4.889   4.932   4.978   5.045
  5.118   5.148   5.214   5.324   5.361   5.372   5.377   5.394
  5.406   5.417   5.448   5.503   5.568   5.597   5.605   5.678
  5.713   5.720   5.727   5.761   5.779   5.811   5.890   5.984
  6.004   6.083   6.243   6.246   6.303   6.314   6.337   6.382
  6.434   6.456   6.514   6.564   6.624   6.639   6.691   6.699
  6.749   6.772   6.797   6.828   6.878   6.936   6.957   6.970
  6.986   7.049   7.053   7.135   7.255   7.263   7.291   7.338
  7.364   7.404   7.412   7.439   7.514   7.670   7.705  22.686
 22.858  22.942  23.193  23.732  44.265  44.416  44.434  44.492
 44.692
 --------------------------------------------------------------
 
          Ground-State Mulliken Net Atomic Charges

     Atom                 Charge (a.u.)
  ----------------------------------------
      1 C                    -0.057418
      2 C                     0.040419
      3 O                    -0.711887
      4 O                    -0.692145
      5 C                    -0.216765
      6 H                     0.225983
      7 H                     0.227005
      8 O                    -0.294708
      9 H                     0.149752
     10 H                     0.164065
     11 C                     0.627772
     12 C                    -1.035923
     13 H                     0.218768
     14 H                     0.235420
     15 H                     0.215388
     16 O                    -0.877291
     17 O                    -0.565225
     18 H                     0.346791
  ----------------------------------------
  Sum of atomic charges =    -2.000000

 -----------------------------------------------------------------
                    Cartesian Multipole Moments
 -----------------------------------------------------------------
    Charge (ESU x 10^10)
                -9.6064
    Dipole Moment (Debye)
         X       9.7324      Y       8.8864      Z       1.0475
       Tot      13.2206
    Quadrupole Moments (Debye-Ang)
        XX     -93.2018     XY     -26.7067     YY    -152.5841
        XZ       0.2400     YZ       9.5424     ZZ     -69.0063
    Octopole Moments (Debye-Ang^2)
       XXX     113.9659    XXY      78.9921    XYY     148.3370
       YYY     304.2700    XXZ      18.4071    XYZ       2.9879
       YYZ     -21.4112    XZZ      15.3684    YZZ      31.7455
       ZZZ       6.4673
    Hexadecapole Moments (Debye-Ang^3)
      XXXX    -788.7639   XXXY    -560.3313   XXYY    -705.4858
      XYYY    -782.4414   YYYY   -3406.6634   XXXZ      -5.6450
      XXYZ      34.4250   XYYZ      20.4304   YYYZ     308.0806
      XXZZ    -178.3578   XYZZ    -157.2792   YYZZ    -453.9229
      XZZZ      28.5284   YZZZ     128.3067   ZZZZ    -271.5481
 -----------------------------------------------------------------
 Calculating analytic gradient of the SCF energy
 Gradient of SCF Energy
            1           2           3           4           5           6
    1   0.0590044  -0.0289262  -0.0017300   0.0469252  -0.0939279  -0.0571583
    2   0.0070867  -0.0322069   0.0538672  -0.0071146  -0.0185020   0.0247123
    3   0.0518424  -0.0112521  -0.0175938   0.0336495  -0.0753031   0.0243071
            7           8           9          10          11          12
    1   0.0114484   0.0004008   0.0649674  -0.0014730  -0.0584791   0.0647877
    2  -0.0102279   0.0078757  -0.0233982   0.0082082  -0.0989718   0.1078524
    3  -0.0629543  -0.0071371  -0.0083479   0.0719230  -0.0329607   0.0507710
           13          14          15          16          17          18
    1   0.0245331  -0.0080114  -0.0642369   0.0224939  -0.0319097   0.0512916
    2  -0.0109217  -0.0726703   0.0399638   0.0059927   0.0208450  -0.0023905
    3  -0.0777897   0.0367710   0.0021334   0.0113449  -0.0330307   0.0436271
 Max gradient component =       1.079E-01
 RMS gradient           =       4.476E-02
 Computing fast CPCM-ISWIG gradient
 Updating gradient with PCM contributions...
 -- total gradient after adding PCM contribution --
---------------------------------------------------
  Atom         X              Y              Z     
---------------------------------------------------
   1       0.000096      -0.000948       0.000026
   2       0.000065       0.000220       0.000010
   3       0.000057       0.000103       0.000002
   4       0.000004      -0.000013      -0.000008
   5      -0.000110       0.000273      -0.000124
   6      -0.000154       0.000154       0.000047
   7      -0.000025       0.000091       0.000060
   8       0.000049       0.000141      -0.000053
   9       0.000012       0.000038       0.000001
[...]
 H         -0.284 -0.029 -0.050    0.189  0.246  0.350    0.027  0.018  0.023
 H          0.498  0.528  0.370    0.020 -0.037  0.302   -0.008 -0.011  0.009
 O         -0.119  0.066 -0.015   -0.066  0.044 -0.023   -0.005  0.005 -0.002
 O         -0.009  0.019  0.010    0.039  0.002 -0.009    0.001 -0.001  0.002
 H          0.195 -0.060 -0.274   -0.151  0.081  0.256   -0.008  0.006  0.016
 TransDip   0.137 -0.252 -0.187   -0.142 -0.439  0.301   -0.044 -0.005  0.104

 Mode:                25                     26                     27
 Frequency:      1113.07                1116.38                1124.69
 Force Cnst:      2.0490                 2.3879                 1.6004
 Red. Mass:       2.8070                 3.2520                 2.1474
 IR Active:          YES                    YES                    YES
 IR Intens:      230.642                 25.162                202.849
 Raman Active:       YES                    YES                    YES
               X      Y      Z        X      Y      Z        X      Y      Z
 C          0.077 -0.120  0.123   -0.056  0.101 -0.083   -0.049  0.088 -0.084
 C          0.015  0.010 -0.018   -0.009 -0.002  0.005   -0.011  0.001  0.013
 O          0.006  0.010  0.005   -0.003 -0.030  0.005   -0.001 -0.021  0.002
 O         -0.014 -0.002 -0.004    0.016  0.002  0.008    0.009  0.004  0.001
 C          0.039  0.235 -0.079    0.193  0.035  0.135    0.081 -0.053  0.094
 H         -0.032 -0.439  0.146   -0.062  0.062 -0.052   -0.003  0.198 -0.064
 H          0.065 -0.364  0.155   -0.063  0.052 -0.075   -0.062  0.124 -0.087
 O         -0.099 -0.131 -0.023   -0.137 -0.080 -0.084   -0.040 -0.034 -0.031
 H          0.051  0.318 -0.076    0.150 -0.039  0.122    0.006 -0.214  0.071
 H         -0.011  0.381 -0.114    0.168 -0.025  0.133    0.040 -0.243  0.108
 C         -0.009  0.110  0.082   -0.121 -0.138  0.102    0.063  0.180  0.054
 C          0.036 -0.037 -0.060    0.038  0.131 -0.098    0.021 -0.093 -0.037
 H         -0.282 -0.103 -0.136   -0.144 -0.318 -0.057   -0.282 -0.020 -0.139
 H         -0.131  0.038  0.045    0.446  0.328  0.409   -0.313 -0.084 -0.105
 H          0.107  0.102  0.148   -0.121 -0.169  0.181    0.142  0.146  0.081
 O         -0.011 -0.013 -0.014    0.072 -0.006 -0.016   -0.057 -0.008 -0.000
 O          0.019 -0.012 -0.019   -0.012  0.026  0.008    0.062 -0.037 -0.028
 H         -0.092  0.048  0.138    0.093 -0.020 -0.135   -0.350  0.162  0.544
 TransDip   0.100  0.448  0.159   -0.053  0.033  0.148    0.033  0.379  0.252

 Mode:                28                     29                     30
 Frequency:      1162.18                1224.36                1285.59
 Force Cnst:      1.8720                 1.0677                 1.4051
 Red. Mass:       2.3523                 1.2088                 1.4429
 IR Active:          YES                    YES                    YES
 IR Intens:      167.754                  1.973                 23.125
 Raman Active:       YES                    YES                    YES
               X      Y      Z        X      Y      Z        X      Y      Z
 C          0.008 -0.007  0.011    0.004 -0.002 -0.004   -0.032 -0.153  0.003
 C          0.002 -0.000 -0.005   -0.027  0.012  0.044   -0.008 -0.047 -0.012
 O          0.000 -0.001  0.001    0.004 -0.000 -0.007   -0.006  0.065 -0.020
 O         -0.001 -0.001  0.001    0.002 -0.002 -0.008    0.013 -0.006  0.013
 C          0.035  0.043  0.003    0.063 -0.034 -0.078    0.006 -0.028  0.049
 H         -0.015 -0.077  0.020    0.139  0.380 -0.051    0.165  0.319  0.056
 H          0.011 -0.030  0.014   -0.112 -0.367  0.037    0.252  0.667 -0.090
 O         -0.042 -0.038  0.007   -0.034  0.011  0.041   -0.031  0.008 -0.021
 H          0.076  0.136  0.021    0.337  0.452  0.207    0.178  0.489 -0.074
 H          0.019  0.090 -0.005   -0.441 -0.328 -0.066    0.108  0.154  0.028
 C          0.113 -0.174 -0.134   -0.003  0.005 -0.001   -0.009  0.018 -0.001
 C         -0.031  0.072  0.036    0.001 -0.001 -0.000    0.004 -0.002 -0.001
 H          0.264  0.031  0.123   -0.002  0.006 -0.002   -0.017  0.005 -0.007
 H          0.264  0.028  0.027   -0.004 -0.000  0.001   -0.015  0.001 -0.001
 H         -0.122 -0.113 -0.130    0.002  0.001  0.001    0.005  0.002 -0.000
 O         -0.135  0.089  0.030    0.004 -0.004  0.001    0.010 -0.009  0.002
 O          0.078 -0.014 -0.019   -0.001  0.002 -0.003    0.002 -0.003  0.002
 H         -0.428  0.172  0.660    0.015  0.002 -0.025   -0.021  0.009  0.034
 TransDip   0.333 -0.247  0.016    0.025  0.006 -0.037    0.010 -0.116  0.101

 Mode:                31                     32                     33
 Frequency:      1300.00                1358.84                1403.78
 Force Cnst:      1.1342                 1.6523                 1.9369
 Red. Mass:       1.1391                 1.5188                 1.6682
 IR Active:          YES                    YES                    YES
 IR Intens:        9.950                168.161                 38.644
 Raman Active:       YES                    YES                    YES
               X      Y      Z        X      Y      Z        X      Y      Z
 C         -0.050 -0.032  0.053   -0.002  0.005 -0.003    0.039  0.074  0.006
 C         -0.021 -0.012  0.023   -0.004 -0.003 -0.002    0.049  0.080  0.009
 O         -0.000  0.024 -0.011   -0.000  0.001 -0.001    0.004 -0.066  0.022
 O          0.007 -0.003  0.002    0.003 -0.000  0.002   -0.036  0.005 -0.025
 C          0.037 -0.017 -0.035    0.010 -0.005  0.011   -0.041 -0.164  0.032
 H          0.139  0.590 -0.138   -0.004  0.003 -0.007   -0.116 -0.174 -0.182
 H          0.039 -0.295  0.085   -0.006  0.008 -0.004   -0.255 -0.129  0.019
 O          0.004 -0.003 -0.021   -0.022 -0.014 -0.008   -0.014  0.012 -0.021
 H         -0.082 -0.391  0.098    0.027  0.025  0.018    0.220  0.517 -0.030
 H          0.142  0.555 -0.088    0.034  0.019  0.011    0.251  0.613 -0.037
 C          0.002 -0.002 -0.002    0.140 -0.024  0.052   -0.037  0.026 -0.024
 C         -0.000  0.001  0.000    0.068  0.081  0.057    0.019  0.001  0.012
 H          0.002 -0.002  0.001   -0.403 -0.330 -0.023   -0.081  0.023 -0.020
 H          0.004  0.000 -0.001   -0.306 -0.126 -0.402   -0.056 -0.001 -0.018
 H         -0.001 -0.000 -0.001   -0.231 -0.415 -0.260   -0.006 -0.034 -0.058
 O         -0.002  0.001  0.001   -0.063  0.024 -0.013    0.022 -0.012  0.006
 O          0.001 -0.001  0.002   -0.031  0.005 -0.007    0.008 -0.003  0.006
 H         -0.015 -0.005  0.022    0.174 -0.078 -0.282   -0.057  0.014  0.092
 TransDip   0.024 -0.085  0.048    0.327 -0.245 -0.072   -0.124  0.153 -0.032

 Mode:                34                     35                     36
 Frequency:      1422.25                1435.82                1457.33
 Force Cnst:      2.9454                 5.2680                 1.5817
 Red. Mass:       2.4714                 4.3371                 1.2640
 IR Active:          YES                    YES                    YES
 IR Intens:      276.907                422.489                 33.380
 Raman Active:       YES                    YES                    YES
               X      Y      Z        X      Y      Z        X      Y      Z
 C          0.016  0.027  0.002   -0.132 -0.124 -0.050   -0.032  0.085 -0.055
 C         -0.020 -0.013 -0.008    0.263  0.284  0.081   -0.039 -0.060 -0.007
 O         -0.001  0.004 -0.002    0.011 -0.176  0.061   -0.004  0.033 -0.013
 O          0.013 -0.002  0.009   -0.168  0.020 -0.113    0.022 -0.001  0.015
 C          0.004 -0.044  0.023    0.019  0.031  0.002   -0.011 -0.060  0.016
 H         -0.044 -0.038 -0.117    0.157  0.248  0.489    0.097 -0.113  0.663
 H         -0.130  0.010 -0.000    0.568  0.029 -0.057    0.579 -0.344  0.015
 O         -0.039 -0.018 -0.020   -0.000  0.013 -0.006   -0.002  0.002 -0.003
 H          0.088  0.139  0.042   -0.035 -0.125  0.015    0.026  0.122 -0.109
 H          0.120  0.136  0.013   -0.039 -0.121  0.020   -0.037  0.173 -0.011
 C          0.258  0.031  0.117    0.051 -0.010  0.030    0.007  0.007  0.002
 C         -0.137 -0.067 -0.077   -0.025 -0.003 -0.017   -0.002 -0.006  0.000
 H          0.425  0.082  0.054    0.104 -0.050  0.028   -0.017  0.038 -0.012
 H          0.340  0.015  0.217    0.057 -0.009  0.002    0.010  0.008  0.028
 H          0.098  0.320  0.235    0.006  0.044  0.089    0.004  0.008 -0.031
 O         -0.089  0.026 -0.021   -0.021  0.009 -0.005   -0.000 -0.001 -0.000
 O         -0.048  0.004 -0.010   -0.009  0.002 -0.004   -0.001 -0.000  0.001
 H          0.258 -0.119 -0.418    0.054 -0.024 -0.089    0.003 -0.004 -0.004
 TransDip   0.520 -0.108  0.045    0.508  0.387  0.161   -0.006 -0.178  0.052

 Mode:                37                     38                     39
 Frequency:      1465.37                1470.23                1515.20
 Force Cnst:      1.3405                 1.3432                 1.4837
 Red. Mass:       1.0595                 1.0547                 1.0968
 IR Active:          YES                    YES                    YES
 IR Intens:        4.570                  7.659                 13.200
 Raman Active:       YES                    YES                    YES
               X      Y      Z        X      Y      Z        X      Y      Z
 C         -0.001 -0.003  0.000    0.003  0.007 -0.001   -0.006  0.004 -0.006
 C          0.003  0.003  0.001   -0.005 -0.006 -0.002    0.003 -0.016  0.006
 O          0.000 -0.002  0.001   -0.000  0.003 -0.001   -0.001  0.010 -0.004
 O         -0.002  0.000 -0.001    0.003 -0.000  0.002   -0.001  0.001 -0.001
 C          0.001  0.004  0.000   -0.002 -0.008  0.002   -0.061  0.020 -0.055
 H          0.000  0.007 -0.008   -0.001 -0.013  0.015    0.011 -0.022  0.087
 H         -0.005  0.009 -0.001    0.008 -0.017  0.003    0.074 -0.050  0.003
 O         -0.003 -0.001 -0.000    0.003  0.001  0.002   -0.006 -0.003 -0.002
 H         -0.001 -0.012  0.012   -0.001  0.019 -0.030    0.168  0.041  0.686
 H          0.010 -0.011  0.003   -0.020  0.031 -0.005    0.652 -0.221  0.013
 C          0.035 -0.016 -0.003   -0.014  0.017 -0.022   -0.008  0.007 -0.008
 C          0.037 -0.028 -0.027    0.003  0.036 -0.040    0.001  0.001  0.001
 H          0.046  0.529 -0.107    0.459 -0.344  0.165    0.011 -0.014  0.006
 H         -0.453  0.297  0.463   -0.356 -0.012 -0.195   -0.014 -0.005 -0.016
 H         -0.189 -0.392  0.039   -0.116 -0.198  0.646   -0.000 -0.003  0.018
 O         -0.011  0.005 -0.000    0.005 -0.004  0.003    0.005 -0.003  0.001
 O         -0.005  0.002 -0.001    0.004 -0.002  0.001    0.001 -0.000  0.002
 H          0.025 -0.012 -0.042   -0.022  0.010  0.034   -0.009  0.002  0.014
 TransDip   0.064  0.001  0.025   -0.075 -0.030  0.037    0.008 -0.105  0.049

 Mode:                40                     41                     42
 Frequency:      1583.10                3033.63                3052.22
 Force Cnst:     14.9670                 5.7423                 5.7320
 Red. Mass:      10.1360                 1.0590                 1.0443
 IR Active:          YES                    YES                    YES
 IR Intens:     1285.728                 80.734                 58.354
 Raman Active:       YES                    YES                    YES
               X      Y      Z        X      Y      Z        X      Y      Z
 C          0.010 -0.064  0.026    0.001 -0.000  0.006   -0.027  0.006 -0.030
 C         -0.438  0.469 -0.420   -0.001  0.000 -0.001    0.000  0.001 -0.000
 O          0.062 -0.242  0.112    0.000  0.000  0.000    0.000 -0.000  0.000
 O          0.240 -0.087  0.180    0.000 -0.000  0.000    0.000 -0.000  0.000
 C         -0.025  0.004 -0.022   -0.031  0.010 -0.059   -0.001 -0.001 -0.001
 H          0.162  0.244  0.194   -0.000  0.001  0.002    0.333 -0.129 -0.097
 H          0.271  0.120 -0.001    0.001 -0.010 -0.071   -0.010  0.056  0.450
 O          0.006  0.001  0.005   -0.002 -0.003 -0.001   -0.000  0.000 -0.000
 H          0.003  0.013  0.105    0.440 -0.176 -0.139    0.014 -0.005 -0.004
 H          0.091 -0.032 -0.022   -0.041  0.095  0.857   -0.001  0.003  0.020
 C         -0.006  0.000 -0.004   -0.001  0.002 -0.002    0.002  0.002  0.002
 C          0.001  0.000  0.001   -0.000 -0.001  0.000   -0.031 -0.018 -0.019
 H          0.000 -0.002  0.001   -0.001  0.000  0.004   -0.130  0.070  0.428
 H         -0.005 -0.002 -0.004    0.000  0.010 -0.006    0.046  0.384 -0.207
 H          0.000 -0.002  0.002    0.004 -0.002  0.000    0.435 -0.259 -0.011
 O          0.002 -0.000  0.000    0.001 -0.000  0.000   -0.000  0.000 -0.000
 O          0.001  0.000  0.000    0.000  0.000  0.001   -0.000  0.000 -0.000
 H         -0.004  0.001  0.007   -0.002 -0.001  0.000    0.000 -0.001 -0.002
 TransDip  -0.628  0.735 -0.619   -0.199 -0.058 -0.200   -0.187 -0.020 -0.157

 Mode:                43                     44                     45
 Frequency:      3052.92                3071.02                3098.00
 Force Cnst:      5.7774                 6.1158                 6.2398
 Red. Mass:       1.0521                 1.1006                 1.1035
 IR Active:          YES                    YES                    YES
 IR Intens:       18.744                 33.835                 87.848
 Raman Active:       YES                    YES                    YES
               X      Y      Z        X      Y      Z        X      Y      Z
 C         -0.037  0.008 -0.041    0.025 -0.012 -0.025   -0.053  0.026  0.060
 C          0.000  0.002 -0.001   -0.000 -0.000 -0.001   -0.001  0.001  0.000
 O          0.000 -0.000  0.000   -0.000  0.000  0.000    0.000 -0.000 -0.000
 O          0.000 -0.000  0.000    0.000 -0.000 -0.000    0.000 -0.000  0.000
 C         -0.004  0.000 -0.001   -0.060  0.029  0.052   -0.026  0.012  0.027
 H          0.447 -0.173 -0.130   -0.310  0.114  0.078    0.640 -0.244 -0.161
 H         -0.014  0.077  0.621    0.005  0.029  0.234   -0.005 -0.064 -0.567
 O          0.000  0.000  0.000   -0.001 -0.001 -0.000   -0.000 -0.000 -0.000
 H          0.048 -0.018 -0.014    0.720 -0.294 -0.190    0.304 -0.127 -0.081
 H         -0.002  0.004  0.031    0.004 -0.036 -0.423    0.006 -0.019 -0.235
 C         -0.002 -0.001 -0.001   -0.000  0.001 -0.000   -0.000  0.000 -0.000
 C          0.023  0.013  0.014   -0.000 -0.001 -0.000    0.000 -0.000  0.000
 H          0.096 -0.052 -0.316   -0.003  0.002  0.011   -0.000  0.000  0.001
 H         -0.034 -0.281  0.151    0.001  0.011 -0.006    0.000  0.002 -0.001
 H         -0.321  0.191  0.008    0.006 -0.004 -0.000   -0.002  0.001  0.000
 O          0.000  0.000  0.000    0.001  0.000 -0.000    0.000  0.000 -0.000
 O          0.000  0.000  0.000   -0.000 -0.000 -0.000   -0.000 -0.000 -0.000
 H         -0.001  0.001  0.000    0.002  0.001  0.002    0.001  0.000  0.001
 TransDip  -0.040  0.109 -0.077   -0.152  0.026  0.105   -0.202  0.087  0.204

 Mode:                46                     47                     48
 Frequency:      3129.36                3137.13                3825.86
 Force Cnst:      6.3648                 6.3982                 9.1872
 Red. Mass:       1.1031                 1.1034                 1.0653
 IR Active:          YES                    YES                    YES
 IR Intens:       62.775                 54.418                 62.184
 Raman Active:       YES                    YES                    YES
               X      Y      Z        X      Y      Z        X      Y      Z
 C         -0.000  0.000  0.000    0.000 -0.000 -0.000   -0.000  0.000 -0.000
 C         -0.000  0.000 -0.000    0.000  0.000  0.000    0.000  0.000  0.000
 O          0.000  0.000 -0.000   -0.000 -0.000  0.000   -0.000 -0.000  0.000
 O          0.000  0.000  0.000   -0.000 -0.000  0.000   -0.000 -0.000 -0.000
 C         -0.000  0.000  0.000    0.001  0.000  0.000    0.000 -0.000 -0.000
 H          0.001 -0.001 -0.000   -0.001  0.001  0.000    0.000 -0.000 -0.000
 H         -0.000 -0.000 -0.001    0.000 -0.000 -0.001    0.000 -0.000  0.001
 O          0.000 -0.000 -0.000   -0.000  0.000 -0.000   -0.000 -0.000  0.000
 H          0.006 -0.002 -0.001   -0.005  0.002  0.001   -0.001  0.000  0.000
 H         -0.000  0.000 -0.000   -0.000 -0.001 -0.004   -0.000  0.000  0.003
 C         -0.002  0.001  0.001   -0.000 -0.001  0.002   -0.001 -0.000 -0.002
 C         -0.063  0.061  0.031   -0.013 -0.052  0.076    0.000  0.000  0.000
 H          0.143 -0.078 -0.526    0.170 -0.108 -0.581    0.000  0.000  0.001
 H         -0.049 -0.277  0.158    0.090  0.684 -0.353   -0.000 -0.000  0.000
 H          0.662 -0.381 -0.007   -0.104  0.051  0.015    0.000  0.000  0.001
 O          0.000 -0.000 -0.000    0.000  0.000 -0.000   -0.000  0.000  0.000
 O          0.000 -0.000 -0.000    0.000  0.000 -0.000   -0.048  0.008 -0.038
 H          0.000  0.001  0.001    0.001  0.000  0.000    0.781 -0.126  0.609
 TransDip  -0.186  0.158  0.070   -0.026 -0.131  0.195    0.167 -0.054  0.182

 STANDARD THERMODYNAMIC QUANTITIES AT   298.15 K  AND     1.00 ATM

   This Molecule has  0 Imaginary Frequencies
   Zero point vibrational energy:       84.355 kcal/mol

   Atom    1 Element C  Has Mass   12.00000
   Atom    2 Element C  Has Mass   12.00000
   Atom    3 Element O  Has Mass   15.99491
   Atom    4 Element O  Has Mass   15.99491
   Atom    5 Element C  Has Mass   12.00000
   Atom    6 Element H  Has Mass    1.00783
   Atom    7 Element H  Has Mass    1.00783
   Atom    8 Element O  Has Mass   15.99491
   Atom    9 Element H  Has Mass    1.00783
   Atom   10 Element H  Has Mass    1.00783
   Atom   11 Element C  Has Mass   12.00000
   Atom   12 Element C  Has Mass   12.00000
   Atom   13 Element H  Has Mass    1.00783
   Atom   14 Element H  Has Mass    1.00783
   Atom   15 Element H  Has Mass    1.00783
   Atom   16 Element O  Has Mass   15.99491
   Atom   17 Element O  Has Mass   15.99491
   Atom   18 Element H  Has Mass    1.00783
   Molecular Mass:   148.037190 amu
   Principal axes and moments of inertia in amu*Bohr^2:
                             1           2           3
    Eigenvalues --      520.53122  3357.62390  3524.75821
          X               0.38022     0.74623    -0.54642
          Y               0.91568    -0.22053     0.33600
          Z              -0.13023     0.62810     0.76716
   Rotational Symmetry Number is   1
   The Molecule is an Asymmetric Top
   Translational Enthalpy:        0.889 kcal/mol
   Rotational Enthalpy:           0.889 kcal/mol
   Vibrational Enthalpy:         89.373 kcal/mol
   gas constant (RT):             0.592 kcal/mol
   Translational Entropy:        40.887  cal/mol.K
   Rotational Entropy:           30.200  cal/mol.K
   Vibrational Entropy:          33.029  cal/mol.K

   Total Enthalpy:               91.743 kcal/mol
   Total Entropy:               104.116  cal/mol.K
Archival summary:
1\1\c4-81\FREQ\ProcedureUnspecified\BasisUnspecified\558(2-,1)\lmgong\FriMar2021:31:032020FriMar2021:31:032020\0\\#,FREQ,ProcedureUnspecified,BasisUnspecified,\\-2,1\O\C,1,1.41673\H,2,1.09579,1,110.597\H,2,1.09811,1,110.363,3,118.707,0\C,1,1.46514,2,114.55,3,-67.5284,0\O,5,1.30864,1,114.163,2,49.038,0\O,5,1.46964,1,105.324,2,-72.9679,0\H,7,0.96484,5,103.06,1,110.561,0\C,2,1.51788,1,108.164,3,-120.911,0\H,9,1.09608,2,109.94,1,-58.354,0\H,9,1.09704,2,109.746,1,58.0678,0\C,5,1.53231,1,103.297,2,176.289,0\H,12,1.09311,5,108.906,1,176.907,0\H,12,1.09348,5,109.407,1,-64.0724,0\H,12,1.09409,5,111.6,1,56.525,0\C,9,1.53602,2,115.186,1,179.472,0\O,16,1.25772,9,118.475,2,-4.53679,0\O,16,1.26102,9,116.097,2,175.866,0\\\@

 Total job time:  33805.29s(wall), 471673.25s(cpu) 
 Fri Mar 20 21:31:03 2020

        *************************************************************
        *                                                           *
        *  Thank you very much for using Q-Chem.  Have a nice day.  *
        *                                                           *
        *************************************************************


