
Running Job 1 of 2 run.in
qchem run.in_1132.0 ./run.d/ 1
/home/leeping/opt/qchem/5.0.2-openmp/exe/qcprog.exe_s run.in_1132.0 ./run.d/
Check license passed

                  Welcome to Q-Chem
     A Quantum Leap Into The Future Of Chemistry


 Q-Chem 5.0, Q-Chem, Inc., Pleasanton, CA (2017)

 Yihan Shao,  Zhengting Gan,  E. Epifanovsky,  A. T. B. Gilbert,  M. Wormit,  
 J. Kussmann,  A. W. Lange,  A. Behn,  Jia Deng,  Xintian Feng,  D. Ghosh,  
 M. Goldey,  P. R. Horn,  L. D. Jacobson,  I. Kaliman,  T. Kus,  A. Landau,  
 Jie Liu,  E. I. Proynov,  R. M. Richard,  R. P. Steele,  E. J. Sundstrom,  
 H. L. Woodcock III,  P. M. Zimmerman,  D. Zuev,  B. Albrecht,  E. Alguire,  
 S. A. Baeppler,  D. Barton,  Z. Benda,  Y. A. Bernard,  E. J. Berquist,  
 K. B. Bravaya,  H. Burton,  D. Casanova,  Chun-Min Chang,  Yunqing Chen,  
 A. Chien,  K. D. Closser,  M. P. Coons,  S. Dasgupta,  A. L. Dempwolff,  
 M. Diedenhofen,  Hainam Do,  R. G. Edgar,  Po-Tung Fang,  S. Fatehi,  
 Qingguo Feng,  J. Fosso-Tande,  Qinghui Ge,  A. Ghysels,  G. Gidofalvi,  
 J. Gomes,  J. Gonthier,  A. Gunina,  M. W. D. Hanson-Heine,  
 P. H. P. Harbach,  A. W. Hauser,  J. E. Herr,  E. G. Hohenstein,  
 Z. C. Holden,  Kerwin Hui,  T.-C. Jagau,  Hyunjun Ji,  B. Kaduk,  
 K. Khistyaev,  Jaehoon Kim,  P. Klunzinger,  K. Koh,  D. Kosenkov,  
 L. Koulias,  T. Kowalczyk,  C. M. Krauter,  A. Kunitsa,  Ka Un Lao,  
 A. Laurent,  K. V. Lawler,  Joonho Lee,  D. Lefrancois,  S. Lehtola,  
 D. S. Levine,  Yi-Pei Li,  You-Sheng Lin,  Fenglai Liu,  E. Livshits,  
 A. Luenser,  P. Manohar,  E. Mansoor,  S. F. Manzer,  Shan-Ping Mao,  
 Yuezhi Mao,  N. Mardirossian,  A. V. Marenich,  T. Markovich,  
 L. A. Martinez-Martinez,  S. A. Maurer,  N. J. Mayhall,  S. C. McKenzie,  
 J.-M. Mewes,  A. F. Morrison,  J. W. Mullinax,  K. Nanda,  
 T. S. Nguyen-Beck,  R. Olivares-Amaya,  J. A. Parkhill,  T. M. Perrine,  
 F. Plasser,  S. Prager,  A. Prociuk,  E. Ramos,  D. R. Rehn,  F. Rob,  
 M. Schneider,  N. Sergueev,  S. M. Sharada,  S. Sharma,  D. W. Small,  
 T. Stauch,  T. Stein,  Yu-Chuan Su,  A. J. W. Thom,  A. Tkatchenko,  
 T. Tsuchimochi,  L. Vogt,  O. Vydrov,  M. A. Watson,  J. Wenzel,  
 M. de Wergifosse,  T. A. Wesolowski,  A. White,  J. Witte,  A. Yamada,  
 Jun Yang,  K. Yao,  S. Yeganeh,  S. R. Yost,  Zhi-Qiang You,  A. Zech,  
 Igor Ying Zhang,  Xing Zhang,  Yan Zhao,  Ying Zhu,  B. R. Brooks,  
 G. K. L. Chan,  C. J. Cramer,  M. S. Gordon,  W. J. Hehre,  A. Klamt,  
 M. W. Schmidt,  C. D. Sherrill,  D. G. Truhlar,  A. Aspuru-Guzik,  R. Baer,  
 A. T. Bell,  N. A. Besley,  Jeng-Da Chai,  R. A. DiStasio Jr.,  A. Dreuw,  
 B. D. Dunietz,  T. R. Furlani,  Chao-Ping Hsu,  Yousung Jung,  Jing Kong,  
 D. S. Lambrecht,  WanZhen Liang,  C. Ochsenfeld,  V. A. Rassolov,  
 L. V. Slipchenko,  J. E. Subotnik,  T. Van Voorhis,  J. M. Herbert,  
 A. I. Krylov,  P. M. W. Gill,  M. Head-Gordon

 Contributors to earlier versions of Q-Chem not listed above: 
 R. D. Adamson,  B. Austin,  J. Baker,  G. J. O. Beran,  K. Brandhorst,  
 S. T. Brown,  E. F. C. Byrd,  A. K. Chakraborty,  C.-L. Cheng,  
 Siu Hung Chien,  D. M. Chipman,  D. L. Crittenden,  H. Dachsel,  
 R. J. Doerksen,  A. D. Dutoi,  L. Fusti-Molnar,  W. A. Goddard III,  
 A. Golubeva-Zadorozhnaya,  S. R. Gwaltney,  G. Hawkins,  A. Heyden,  
 S. Hirata,  G. Kedziora,  F. J. Keil,  C. Kelley,  Jihan Kim,  R. A. King,  
 R. Z. Khaliullin,  P. P. Korambath,  W. Kurlancheek,  A. M. Lee,  M. S. Lee,  
 S. V. Levchenko,  Ching Yeh Lin,  D. Liotard,  R. C. Lochan,  I. Lotan,  
 P. E. Maslen,  N. Nair,  D. P. O'Neill,  D. Neuhauser,  E. Neuscamman,  
 C. M. Oana,  R. Olson,  B. Peters,  R. Peverati,  P. A. Pieniazek,  
 Y. M. Rhee,  J. Ritchie,  M. A. Rohrdanz,  E. Rosta,  N. J. Russ,  
 H. F. Schaefer III,  N. E. Schultz,  N. Shenvi,  A. C. Simmonett,  A. Sodt,  
 D. Stuck,  K. S. Thanthiriwatte,  V. Vanovschi,  Tao Wang,  A. Warshel,  
 C. F. Williams,  Q. Wu,  X. Xu,  W. Zhang

 Please cite Q-Chem as follows:
 Y. Shao et al., Mol. Phys. 113, 184-215 (2015)
 DOI: 10.1080/00268976.2014.952696

 Q-Chem 5.0.2 for Intel X86 EM64T Linux

 Parts of Q-Chem use Armadillo 5.200.1 (Boston Tea Smuggler).
 http://arma.sourceforge.net/

 Q-Chem begins on Tue Apr 16 20:29:15 2019  

Host: 
0

     Scratch files written to ./run.d//
 Dec517 15110_ 26548  26544 5633   
Processing $rem in /home/leeping/opt/qchem/5.0.2-openmp/config/preferences.
 MEM_STATIC 2000
 MEM_TOTAL  8000
 SYMMETRY   OFF
 SYM_IGNORE TRUE 
Symmetry turned off for PCM/SM12/SMD calculation

Checking the input file for inconsistencies... 	...done.

--------------------------------------------------------------
User input:
--------------------------------------------------------------
$molecule
-3 1
C        0.0419821171    0.8003944009   -1.8234001406
C        0.3426798993    0.9748480439   -3.3211962284
O        0.0818877966    2.1103022940   -3.8096214806
O        0.8059829744    0.0010116675   -3.9685743309
C        0.5482132115   -0.4902201761   -1.1885252473
H       -1.0473033432    0.8794160415   -1.7208851867
H        0.4540161237    1.6720837245   -1.3044971239
C        0.2902628250   -0.6758488962    0.3291518812
H        1.6310711312   -0.5772805451   -1.3326156524
H        0.0901414571   -1.3521610599   -1.6881704982
C       -1.2160013599   -0.6114876526    0.6474536995
H       -1.6607038716    0.3481123830    0.3635379005
H       -1.3562403740   -0.7540880064    1.7227448493
H       -1.7454893413   -1.4120830982    0.1182315786
O        0.8415423414   -1.8326495073    0.7844409701
O        0.9353452673    0.4754292411    0.9302377390
O        1.1964523849   -0.0951238611    2.6224434994
H        1.1653693858   -1.0068507851    2.2095782615
O       -0.7883892504    0.4547970681    4.1640133589
H       -0.0305211272    0.2150959747    3.5198819388
O       -1.0940106710    1.7664146920    3.8659609795
$end

$rem
jobtype               force
method                wb97x-v
basis                 def2-tzvpd
symmetry              off
sym_ignore            true
incdft                false
incfock               0
!scf_algorithm        diis_gdm
scf_convergence       8
thresh                14
unrestricted          true
!purecart             112
max_scf_cycles        1000
geom_opt_max_cycles   500
geom_opt_dmax         100
geom_opt_tol_gradient 10
solvent_method        pcm
!ideriv               1
rpath_tol_displacement 1000
rpath_max_cycles      100
rpath_direction       1
cdft                  true
scf_guess             read
$end

$cdft
2
1 1 16
1
1 1 16 s
$end

$pcm
theory              cosmo
method              iswig
Radii               bondi
vdwScale            1.20
hpoints             110
heavypoints         110
$end

$solvent
dielectric 78.400000
$end

--------------------------------------------------------------
 ----------------------------------------------------------------
             Standard Nuclear Orientation (Angstroms)
    I     Atom           X                Y                Z
 ----------------------------------------------------------------
    1      C       0.0419821171     0.8003944009    -1.8234001406
    2      C       0.3426798993     0.9748480439    -3.3211962284
    3      O       0.0818877966     2.1103022940    -3.8096214806
    4      O       0.8059829744     0.0010116675    -3.9685743309
    5      C       0.5482132115    -0.4902201761    -1.1885252473
    6      H      -1.0473033432     0.8794160415    -1.7208851867
    7      H       0.4540161237     1.6720837245    -1.3044971239
    8      C       0.2902628250    -0.6758488962     0.3291518812
    9      H       1.6310711312    -0.5772805451    -1.3326156524
   10      H       0.0901414571    -1.3521610599    -1.6881704982
   11      C      -1.2160013599    -0.6114876526     0.6474536995
   12      H      -1.6607038716     0.3481123830     0.3635379005
   13      H      -1.3562403740    -0.7540880064     1.7227448493
   14      H      -1.7454893413    -1.4120830982     0.1182315786
   15      O       0.8415423414    -1.8326495073     0.7844409701
   16      O       0.9353452673     0.4754292411     0.9302377390
   17      O       1.1964523849    -0.0951238611     2.6224434994
   18      H       1.1653693858    -1.0068507851     2.2095782615
   19      O      -0.7883892504     0.4547970681     4.1640133589
   20      H      -0.0305211272     0.2150959747     3.5198819388
   21      O      -1.0940106710     1.7664146920     3.8659609795
 ----------------------------------------------------------------
 Nuclear Repulsion Energy =   716.9788510535 hartrees
 There are       49 alpha and       49 beta electrons
 Requested basis set is def2-TZVPD
 There are 208 shells and 546 basis functions

 Total QAlloc Memory Limit   8000 MB
 Mega-Array Size      1956 MB
 MEM_STATIC part      2000 MB
 Discretize the solute cavity surface with Lebedev spheres
	Using 110 Lebedev grid points for each H atom
	Using 110 Lebedev grid points for other atoms
	Atomic van der Waals radii will be scaled by 1.20
 Remove points where switching function is < 1.0e-08
 Keep 1252 surface tesserae and discard 1058 interior tesserae
 Molecular Surface Area = 230.194 Angst**2
 A cutoff of  1.0D-14 yielded  18785 shell pairs
 There are    128035 function pairs (    162158 Cartesian)
 
 -------------------------------------------------------
 OpenMP Integral Computing Module                       
 Release: version 1.0, May 2013, Q-Chem Inc. Pittsburgh 
 -------------------------------------------------------
 Integral Job Info:
 Integral job number is                      11
 Integral operator is                         1
 short-range coefficients              16700000
 long-range coefficients              100000000
 Omega coefficients                         300
 if combine SR and LR in K                    1
 Integral screening is                        0
 Integral computing path is                   2
 max size of driver memory is            800000
 size of driver memory is                776718
 size of scratch memory is              4473992
 max col of scratch BK array              10000
 max len of scratch array in speh3          662
 max len of scratch index in speh4           32
 max int batch size is                      520
 min int batch size is                       52
 fixed nKL is                                52
 max L of basis functions is                  3
 order of int derivative is                   0
 number of shells is                        208
 number of basis is                         618
 number of cartesian basis is               618
 number of contracted shell pairs         18785
 number of primitive shell pairs          37155
 maxK2 (contraction) of shell pair           36
 max number of K2 of shell pair               1
 max number of CS2 of shell pair           3200
 max number of PS2 of shell pair           4170
 mem total for path MDJ                  852508
 -------------------------------------------------------
 Smallest overlap matrix eigenvalue = 2.39E-06

 Scale SEOQF with 1.000000e-01/1.000000e-01/1.000000e-01

 Standard Electronic Orientation quadrupole field applied
 Nucleus-field energy     =    -0.0000000637 hartrees
 Guess MOs from SCF MO coefficient file
 Reading MOs from coefficient file
 Reading MOs from coefficient file
 Long-range K will be added via erf
 Coulomb attenuation parameter = 0.3 bohr**(-1)
 An unrestricted hybrid HF-DFT SCF calculation will be
 performed using Pulay DIIS extrapolation
 Polarizable Continuum solvation model will be applied
 Exchange:     0.1670 Hartree-Fock + 1.0000 Constrained DFT (Becke Weights) + 1.0000 wB97X-V + LR-HF
 Correlation:  1.0000 wB97X-V
 Using SG-2 standard quadrature grid
 Nonlocal Correlation:  VV10 with C = 0.0100 and b = 6.00
 Grid used for NLC:  SG-1 standard quadrature
 SCF converges when DIIS error is below 1.0E-08
Using Q-Chem read-in guess as SCF_GUESS READ specified.

 using 16 threads for integral computing
 -------------------------------------------------------
 OpenMP Integral computing Module                
 Release: version 1.0, May 2013, Q-Chem Inc. Pittsburgh 
 -------------------------------------------------------
 using 16 threads for integral computing
 -------------------------------------------------------
 OpenMP Integral computing Module                
 Release: version 1.0, May 2013, Q-Chem Inc. Pittsburgh 
 -------------------------------------------------------
 -------------------------------------------------------
 OpenMP BLAS3 based DFT computing Module                
 Release: version 1.0, May 2013, Q-Chem Inc. Pittsburgh 
 -------------------------------------------------------
 -------------------------------------------------------
 OpenMP BLAS3 based DFT computing Module                
 Release: version 1.0, May 2013, Q-Chem Inc. Pittsburgh 
 -------------------------------------------------------
 -------------------------------------------------------
 OpenMP BLAS3 based DFT computing Module                
 Release: version 1.0, May 2013, Q-Chem Inc. Pittsburgh 
 -------------------------------------------------------
Constraint 0 : 2.0000000000
 -------------------------------------------------------
 OpenMP BLAS3 based DFT computing Module                
 Release: version 1.0, May 2013, Q-Chem Inc. Pittsburgh 
 -------------------------------------------------------
Constraint 1 : 1.0000000000
 -------------------------------------------------------
 OpenMP BLAS3 based DFT computing Module                
 Release: version 1.0, May 2013, Q-Chem Inc. Pittsburgh 
 -------------------------------------------------------
 ---------------------------------------
  Cycle       Energy         DIIS Error
 ---------------------------------------
    1    -722.1429601146      4.51E-04
    2    -722.6799892775      6.43E-04
    3    -722.7039893762      2.58E-04
    4    -722.7097484323      1.66E-04
    5    -722.7138425540      7.07E-05
    6    -722.7148490611      2.70E-05
    7    -722.7151454687      1.77E-05
    8    -722.7152769828      9.37E-06
    9    -722.7154035560      5.28E-06
   10    -722.7154515015      3.56E-06
   11    -722.7154695402      2.00E-06
   12    -722.7154733924      1.11E-06
   13    -722.7154745314      4.35E-07
   14    -722.7154747469      2.56E-07
   15    -722.7154747867      1.04E-07
   16    -722.7154749847      6.10E-08
   17    -722.7154754631      3.50E-08
   18    -722.7154757409      2.05E-08
   19    -722.7154760923      1.59E-08
   20    -722.7154748007      1.55E-08
   21    -722.7154737575      1.34E-08
   22    -722.7154748009      1.30E-08
 Inaccurate integrated density:
   Number of electrons =    98
   Numerical integral  =    97.989842278986
   Relative error      =    -0.0103650214 %
Constraint 0 : 2.0000000000
Constraint 1 : 1.0000000000
Lam  -0.0828609499019352
Lam  -0.1471445629365555
   23    -722.7154737052      9.42E-09 Convergence criterion met
 ---------------------------------------

************** Final PCM Free Energy Summary **************
 G_electrostatic  =      -0.60757873 hartree =    -381.26140689 kcal/mol
 G_cavitation     =       0.00000000 hartree =       0.00000000 kcal/mol
 G_dispersion     =       0.00000000 hartree =       0.00000000 kcal/mol
 G_repulsion      =       0.00000000 hartree =       0.00000000 kcal/mol
 --------------------------------------------------
 Non-electrostatic Free Energy =       0.00000000 hartree =       0.00000000 kcal/mol
 Total                         =      -0.60757873 hartree =    -381.26140689 kcal/mol
 --------------------------------------------------
 SCF Energy (H0 + V/2)                       =    -722.71547371 
 Solute Internal Energy (H0)                 =    -722.10789498 
 Total Free Energy (H0 + V/2 + non-elec)     =    -722.71547371 hartree
                                             = -453510.80458828 kcal/mol
***********************************************************

 <S^2> = 1.1072

                  CDFT Becke Populations
----------------------------------------
            Atom  Net Number    Net Spin
       1       C   -0.896323    0.008781
       2       C   -0.304834    0.001946
       3       O    0.598498    0.001791
       4       O    0.568228    0.004331
       5       C   -0.908123    0.030822
       6       H    0.504511    0.004789
       7       H    0.568578    0.044525
       8       C   -0.319552    0.013894
       9       H    0.568764    0.014760
      10       H    0.550952    0.021274
      11       C   -1.282505    0.010970
      12       H    0.490312    0.006428
      13       H    0.509586    0.004426
      14       H    0.486137    0.007108
      15       O    0.509268    0.094537
      16       O    0.356504    0.729623
      17       O   -0.246697    0.052548
      18       H    0.765425   -0.049539
      19       O   -0.364389   -0.315322
      20       H    0.682086   -0.008055
      21       O    0.153417   -0.681407
----------------------------------------

 SCF time:  CPU 10236.36 s  wall 740.51 s
 SCF   energy in the final basis set = -722.71547371
 Total energy in the final basis set = -722.71547371
 
 --------------------------------------------------------------
 
                    Orbital Energies (a.u.)
 --------------------------------------------------------------
 
 Alpha MOs
 -- Occupied --
-19.387 -19.365 -19.362 -19.313 -19.283 -19.266 -19.123 -10.564
-10.530 -10.465 -10.456 -10.447  -1.367  -1.318  -1.272  -1.236
 -1.218  -1.105  -1.038  -1.005  -0.969  -0.923  -0.835  -0.825
 -0.784  -0.767  -0.749  -0.740  -0.727  -0.717  -0.694  -0.685
 -0.666  -0.646  -0.637  -0.623  -0.599  -0.574  -0.572  -0.563
 -0.555  -0.544  -0.529  -0.509  -0.481  -0.445  -0.385  -0.334
 -0.280
 -- Virtual --
 -0.148  -0.130  -0.126  -0.107  -0.090  -0.085  -0.080  -0.074
 -0.062  -0.050  -0.048  -0.045  -0.033  -0.023  -0.021  -0.012
 -0.004   0.004   0.010   0.018   0.026   0.032   0.045   0.050
  0.057   0.065   0.071   0.078   0.081   0.084   0.090   0.096
  0.100   0.101   0.103   0.111   0.117   0.120   0.124   0.131
  0.135   0.142   0.151   0.157   0.157   0.164   0.167   0.169
  0.176   0.180   0.185   0.187   0.192   0.195   0.198   0.204
  0.206   0.211   0.220   0.223   0.227   0.232   0.236   0.246
  0.252   0.259   0.260   0.267   0.268   0.276   0.279   0.286
  0.288   0.292   0.300   0.307   0.309   0.316   0.320   0.324
  0.329   0.336   0.338   0.344   0.350   0.358   0.361   0.365
  0.368   0.374   0.376   0.386   0.393   0.396   0.402   0.404
  0.414   0.418   0.422   0.432   0.438   0.441   0.448   0.450
  0.453   0.460   0.466   0.475   0.480   0.500   0.502   0.506
  0.511   0.515   0.518   0.523   0.537   0.543   0.547   0.551
  0.555   0.561   0.563   0.570   0.574   0.580   0.586   0.587
  0.596   0.599   0.605   0.608   0.614   0.620   0.623   0.625
  0.633   0.634   0.643   0.654   0.655   0.659   0.660   0.663
  0.678   0.689   0.695   0.697   0.707   0.717   0.721   0.734
  0.740   0.745   0.751   0.763   0.769   0.778   0.792   0.797
  0.808   0.812   0.820   0.835   0.842   0.850   0.860   0.869
  0.876   0.888   0.905   0.909   0.915   0.939   0.951   0.957
  0.960   0.964   0.976   0.992   0.996   1.001   1.010   1.012
  1.025   1.040   1.043   1.050   1.059   1.065   1.085   1.095
  1.106   1.120   1.131   1.149   1.161   1.165   1.208   1.212
  1.220   1.229   1.232   1.240   1.254   1.269   1.289   1.291
  1.306   1.333   1.341   1.357   1.372   1.404   1.412   1.439
  1.447   1.479   1.481   1.502   1.512   1.550   1.617   1.634
  1.653   1.658   1.695   1.699   1.715   1.726   1.727   1.741
  1.750   1.757   1.768   1.784   1.796   1.807   1.814   1.820
  1.823   1.836   1.849   1.876   1.885   1.892   1.898   1.915
  1.925   1.930   1.948   1.971   1.998   2.004   2.014   2.033
  2.043   2.053   2.066   2.069   2.080   2.106   2.117   2.131
  2.141   2.161   2.186   2.202   2.209   2.220   2.239   2.250
  2.258   2.269   2.288   2.314   2.335   2.341   2.349   2.363
  2.409   2.417   2.440   2.463   2.472   2.491   2.501   2.507
  2.531   2.540   2.552   2.568   2.585   2.596   2.615   2.654
  2.675   2.691   2.713   2.720   2.743   2.768   2.770   2.793
  2.805   2.819   2.842   2.849   2.858   2.886   2.893   2.913
  2.928   2.951   2.975   2.994   3.018   3.026   3.040   3.052
  3.076   3.081   3.098   3.110   3.121   3.137   3.149   3.167
  3.185   3.193   3.212   3.247   3.258   3.272   3.286   3.299
  3.309   3.324   3.334   3.342   3.351   3.356   3.376   3.382
  3.400   3.414   3.428   3.436   3.452   3.468   3.472   3.478
  3.502   3.512   3.523   3.539   3.564   3.572   3.580   3.599
  3.610   3.615   3.620   3.666   3.678   3.705   3.723   3.736
  3.753   3.797   3.828   3.892   3.922   3.932   3.970   4.047
  4.061   4.108   4.114   4.159   4.207   4.237   4.261   4.275
  4.331   4.393   4.440   4.452   4.483   4.514   4.576   4.598
  4.609   4.620   4.680   4.755   4.812   4.842   4.878   4.923
  4.930   4.940   5.003   5.030   5.056   5.100   5.108   5.120
  5.139   5.156   5.162   5.193   5.232   5.248   5.261   5.272
  5.274   5.287   5.343   5.391   5.424   5.444   5.468   5.492
  5.494   5.503   5.518   5.558   5.559   5.606   5.647   5.650
  5.666   5.724   5.778   5.797   5.931   5.981   6.014   6.087
  6.115   6.123   6.144   6.155   6.207   6.253   6.390   6.404
  6.412   6.476   6.513   6.527   6.530   6.539   6.552   6.571
  6.582   6.595   6.622   6.637   6.650   6.705   6.734   6.748
  6.761   6.819   6.829   6.832   6.937   6.976   7.028   7.049
  7.059   7.105   7.113   7.139   7.158   7.169   7.185   7.276
  7.304   7.332   7.475   7.564   8.370  22.550  22.688  22.750
 22.938  23.509  43.859  44.063  44.190  44.199  44.317  44.421
 44.430
 
 Beta MOs
 -- Occupied --
-19.291 -19.282 -19.122 -19.073 -19.071 -19.068 -19.014 -10.270
-10.236 -10.170 -10.161 -10.153  -1.265  -1.073  -1.039  -0.978
 -0.976  -0.957  -0.893  -0.804  -0.740  -0.677  -0.636  -0.573
 -0.561  -0.536  -0.530  -0.499  -0.484  -0.470  -0.451  -0.437
 -0.433  -0.422  -0.404  -0.399  -0.395  -0.379  -0.370  -0.351
 -0.340  -0.333  -0.324  -0.277  -0.269  -0.261  -0.247  -0.228
 -0.211
 -- Virtual --
  0.079   0.088   0.106   0.113   0.124   0.133   0.139   0.149
  0.153   0.156   0.163   0.170   0.175   0.177   0.186   0.191
  0.192   0.195   0.201   0.207   0.215   0.217   0.225   0.231
  0.237   0.239   0.252   0.256   0.265   0.271   0.281   0.287
  0.293   0.296   0.303   0.310   0.320   0.326   0.328   0.340
  0.341   0.349   0.352   0.362   0.364   0.366   0.376   0.378
  0.384   0.388   0.391   0.395   0.405   0.409   0.417   0.426
  0.428   0.433   0.440   0.444   0.445   0.452   0.458   0.463
  0.465   0.472   0.475   0.483   0.489   0.496   0.498   0.503
  0.508   0.510   0.518   0.521   0.528   0.531   0.538   0.541
  0.545   0.549   0.557   0.560   0.566   0.568   0.573   0.580
  0.585   0.589   0.594   0.597   0.602   0.604   0.613   0.615
  0.621   0.624   0.628   0.635   0.641   0.650   0.656   0.659
  0.661   0.663   0.675   0.678   0.682   0.689   0.696   0.702
  0.704   0.714   0.719   0.730   0.732   0.739   0.747   0.756
  0.758   0.765   0.770   0.781   0.791   0.795   0.799   0.805
  0.818   0.820   0.826   0.828   0.837   0.845   0.848   0.856
  0.863   0.867   0.869   0.877   0.878   0.889   0.897   0.904
  0.907   0.911   0.919   0.922   0.928   0.933   0.939   0.945
  0.958   0.960   0.964   0.969   0.970   0.980   0.992   0.999
  1.009   1.018   1.024   1.037   1.047   1.052   1.059   1.070
  1.078   1.087   1.099   1.103   1.117   1.132   1.142   1.148
  1.152   1.168   1.185   1.191   1.199   1.220   1.233   1.244
  1.254   1.258   1.272   1.278   1.289   1.299   1.311   1.317
  1.321   1.350   1.352   1.365   1.373   1.394   1.405   1.410
  1.422   1.450   1.457   1.478   1.503   1.509   1.521   1.534
  1.550   1.565   1.581   1.595   1.605   1.610   1.621   1.653
  1.670   1.687   1.704   1.710   1.735   1.759   1.781   1.793
  1.815   1.842   1.871   1.880   1.914   1.929   1.953   1.963
  1.969   1.997   2.007   2.010   2.015   2.035   2.039   2.048
  2.054   2.069   2.087   2.092   2.096   2.107   2.113   2.136
  2.148   2.163   2.164   2.202   2.213   2.217   2.224   2.226
  2.257   2.283   2.291   2.306   2.324   2.331   2.348   2.364
  2.366   2.394   2.405   2.426   2.446   2.460   2.479   2.485
  2.495   2.517   2.530   2.536   2.551   2.566   2.587   2.602
  2.613   2.636   2.640   2.654   2.676   2.717   2.733   2.759
  2.764   2.784   2.801   2.830   2.841   2.857   2.868   2.877
  2.918   2.933   2.955   2.970   2.980   2.988   3.009   3.029
  3.035   3.050   3.054   3.061   3.094   3.104   3.118   3.122
  3.133   3.141   3.162   3.174   3.188   3.202   3.226   3.235
  3.282   3.293   3.315   3.333   3.337   3.355   3.381   3.398
  3.402   3.428   3.444   3.458   3.488   3.508   3.532   3.551
  3.558   3.581   3.598   3.607   3.616   3.621   3.640   3.644
  3.664   3.674   3.687   3.701   3.707   3.729   3.746   3.753
  3.767   3.786   3.801   3.809   3.814   3.838   3.859   3.865
  3.891   3.901   3.907   3.910   3.950   3.963   3.995   4.001
  4.040   4.075   4.112   4.165   4.208   4.226   4.250   4.270
  4.298   4.317   4.343   4.357   4.402   4.411   4.451   4.532
  4.551   4.687   4.733   4.745   4.777   4.804   4.817   4.870
  4.891   4.903   4.906   4.914   4.931   4.974   4.997   5.050
  5.101   5.106   5.166   5.201   5.211   5.230   5.266   5.329
  5.343   5.392   5.404   5.409   5.433   5.438   5.454   5.459
  5.470   5.495   5.504   5.569   5.571   5.592   5.598   5.625
  5.661   5.664   5.685   5.763   5.787   5.792   5.804   5.854
  5.885   5.963   6.072   6.079   6.112   6.118   6.228   6.249
  6.284   6.308   6.381   6.410   6.415   6.454   6.469   6.488
  6.511   6.532   6.593   6.596   6.611   6.685   6.707   6.724
  6.748   6.770   6.821   6.832   6.843   6.875   6.945   6.959
  7.028   7.042   7.064   7.083   7.110   7.120   7.125   7.175
  7.272   7.306   7.321   7.341   7.417   7.433   7.461   7.478
  7.487   7.503   7.568   7.755   8.357  22.844  22.982  23.045
 23.231  23.803  43.842  44.226  44.358  44.412  44.493  44.603
 44.720
 --------------------------------------------------------------
 
          Ground-State Mulliken Net Atomic Charges

     Atom                 Charge (a.u.)    Spin (a.u.)
  --------------------------------------------------------
      1 C                    -0.261734       0.113345
      2 C                     0.026200      -0.051451
      3 O                    -0.712246      -0.000286
      4 O                    -0.683428      -0.001915
      5 C                    -0.318380       0.037020
      6 H                     0.153970       0.024021
      7 H                     0.176922      -0.015482
      8 C                     1.274007       0.013508
      9 H                     0.150598      -0.015628
     10 H                     0.132164       0.043809
     11 C                    -1.397296       0.207687
     12 H                     0.245149      -0.024662
     13 H                     0.171013       0.003941
     14 H                     0.251208      -0.012471
     15 O                    -1.021826       0.028808
     16 O                    -0.544004       0.830621
     17 O                    -0.865506       0.002175
     18 H                     0.305025      -0.115372
     19 O                    -0.190064      -0.322420
     20 H                     0.384961      -0.033963
     21 O                    -0.276734      -0.711285
  --------------------------------------------------------
  Sum of atomic charges =    -3.000000
  Sum of spin   charges =     0.000000

 -----------------------------------------------------------------
                    Cartesian Multipole Moments
 -----------------------------------------------------------------
    Charge (ESU x 10^10)
               -14.4096
    Dipole Moment (Debye)
         X      -9.4000      Y      -3.2072      Z       4.1672
       Tot      10.7709
    Quadrupole Moments (Debye-Ang)
        XX     -98.2319     XY       6.9535     YY    -118.2374
        XZ       6.3362     YZ      16.3077     ZZ    -216.5198
    Octopole Moments (Debye-Ang^2)
       XXX     -57.1976    XXY     -13.5483    XYY     -24.4992
       YYY     -57.6924    XXZ     -20.1758    XYZ      11.7637
       YYZ      38.1515    XZZ     -52.6684    YZZ    -143.1282
       ZZZ     210.4426
    Hexadecapole Moments (Debye-Ang^3)
      XXXX    -496.1868   XXXY      53.8583   XXYY    -213.9272
      XYYY      80.1958   YYYY    -870.8910   XXXZ     143.7611
      XXYZ      26.1573   XYYZ      66.2688   YYYZ     254.6417
      XXZZ    -780.5631   XYZZ      65.9943   YYZZ    -991.3399
      XZZZ     421.1308   YZZZ     356.0504   ZZZZ   -5604.7151
 -----------------------------------------------------------------
 Calculating analytic gradient of the SCF energy
 Gradient of SCF Energy
            1           2           3           4           5           6
    1  -0.0557608  -0.0024642   0.0125248  -0.0291405   0.1913381   0.0674791
    2   0.1239139  -0.0188712  -0.0586963   0.0590078  -0.1825895   0.0029735
    3   0.1095818  -0.0747744   0.0388402   0.0450551  -0.1208887   0.0098306
            7           8           9          10          11          12
    1  -0.0378092  -0.0765000  -0.0947909   0.0405150  -0.1434261   0.0280859
    2  -0.0628458   0.0894486  -0.0094602   0.0627486   0.0139851  -0.1154306
    3  -0.0320760  -0.0300929  -0.0076177   0.0261517   0.0305462   0.0451614
           13          14          15          16          17          18
    1   0.0079659   0.0480492   0.0099593   0.0125209   0.0650919  -0.0081078
    2   0.0211172   0.0890785   0.0031851  -0.0304506  -0.0371736   0.0598906
    3  -0.1155794   0.0693464   0.0041293   0.0133819  -0.0416148   0.0310815
           19          20          21
    1   0.0596451  -0.0909911  -0.0041844
    2  -0.0598036   0.0116716   0.0383009
    3  -0.0258917   0.0405564  -0.0151270
 Max gradient component =       1.913E-01
 RMS gradient           =       6.588E-02
 Computing fast CPCM-ISWIG gradient
 Updating gradient with PCM contributions...
 -- total gradient after adding PCM contribution --
---------------------------------------------------
  Atom         X              Y              Z     
---------------------------------------------------
   1      -0.000013       0.000970       0.002197
   2       0.000888       0.000581      -0.001707
   3      -0.000141      -0.000875       0.000907
   4      -0.000551       0.000021       0.001238
   5       0.002061       0.000190      -0.002302
   6       0.000068      -0.000110      -0.000053
   7      -0.000189       0.000112      -0.000505
   8      -0.004922      -0.005623       0.001151
   9       0.000112       0.000137      -0.000500
  10       0.000676       0.000794       0.001433
  11       0.000706       0.000940       0.000262
  12      -0.000051      -0.000260      -0.000341
  13      -0.002461      -0.001733      -0.001511
  14       0.000727       0.000719       0.000554
  15       0.006156       0.010723       0.020819
  16       0.011305      -0.024221       0.071339
  17       0.002178       0.028768      -0.070442
  18      -0.006702      -0.014791      -0.029590
  19       0.025842      -0.052981       0.001094
  20      -0.024651       0.006622       0.016168
  21      -0.011037       0.050017      -0.010211
---------------------------------------------------
 Number of fixed atoms: 0
 Gradient time:  CPU 1426.42 s  wall 103.42 s
Archival summary:
1\1\c4-82\JobtypUnspecified\ProcedureUnspecified\BasisUnspecified\759(3-,1)\leeping\TueApr1620:43:382019TueApr1620:43:382019\0\\#,JobtypUnspecified,ProcedureUnspecified,BasisUnspecified,\\-3,1\O\C,1,1.45013\O,2,1.35992,1,110.869\C,2,1.54087,1,108.425,3,122.417,0\H,4,1.09373,2,108.843,1,-67.1234,0\H,4,1.09508,2,112.335,1,53.0361,0\H,4,1.09608,2,109.997,1,174.111,0\C,2,1.55059,1,103.689,3,-119.452,0\H,8,1.09587,2,106.473,1,65.3157,0\H,8,1.09655,2,106.403,1,179.066,0\C,8,1.5248,2,116.977,1,-57.983,0\H,11,1.09493,8,110.584,2,56.0909,0\H,11,1.09695,8,110.594,2,-60.7523,0\C,11,1.53761,8,115.893,2,178.491,0\O,14,1.25782,11,119.048,8,9.64127,0\O,14,1.26326,11,115.991,8,-171.118,0\H,3,1.67864,2,86.7878,1,29.9528,0\O,17,1.00133,3,143.51,2,-12.8649,0\H,18,1.55148,17,113.329,3,102.535,0\O,19,1.0231,18,175.45,17,139.217,0\O,20,1.37934,19,104.529,18,82.7336,0\\\@

 Total job time:  863.25s(wall), 11694.63s(cpu) 
 Tue Apr 16 20:43:38 2019

        *************************************************************
        *                                                           *
        *  Thank you very much for using Q-Chem.  Have a nice day.  *
        *                                                           *
        *************************************************************



Running Job 2 of 2 run.in
qchem run.in_1132.1 ./run.d/ 1
/home/leeping/opt/qchem/5.0.2-openmp/exe/qcprog.exe_s run.in_1132.1 ./run.d/
Check license passed

                  Welcome to Q-Chem
     A Quantum Leap Into The Future Of Chemistry


 Q-Chem 5.0, Q-Chem, Inc., Pleasanton, CA (2017)

 Yihan Shao,  Zhengting Gan,  E. Epifanovsky,  A. T. B. Gilbert,  M. Wormit,  
 J. Kussmann,  A. W. Lange,  A. Behn,  Jia Deng,  Xintian Feng,  D. Ghosh,  
 M. Goldey,  P. R. Horn,  L. D. Jacobson,  I. Kaliman,  T. Kus,  A. Landau,  
 Jie Liu,  E. I. Proynov,  R. M. Richard,  R. P. Steele,  E. J. Sundstrom,  
 H. L. Woodcock III,  P. M. Zimmerman,  D. Zuev,  B. Albrecht,  E. Alguire,  
 S. A. Baeppler,  D. Barton,  Z. Benda,  Y. A. Bernard,  E. J. Berquist,  
 K. B. Bravaya,  H. Burton,  D. Casanova,  Chun-Min Chang,  Yunqing Chen,  
 A. Chien,  K. D. Closser,  M. P. Coons,  S. Dasgupta,  A. L. Dempwolff,  
 M. Diedenhofen,  Hainam Do,  R. G. Edgar,  Po-Tung Fang,  S. Fatehi,  
 Qingguo Feng,  J. Fosso-Tande,  Qinghui Ge,  A. Ghysels,  G. Gidofalvi,  
 J. Gomes,  J. Gonthier,  A. Gunina,  M. W. D. Hanson-Heine,  
 P. H. P. Harbach,  A. W. Hauser,  J. E. Herr,  E. G. Hohenstein,  
 Z. C. Holden,  Kerwin Hui,  T.-C. Jagau,  Hyunjun Ji,  B. Kaduk,  
 K. Khistyaev,  Jaehoon Kim,  P. Klunzinger,  K. Koh,  D. Kosenkov,  
 L. Koulias,  T. Kowalczyk,  C. M. Krauter,  A. Kunitsa,  Ka Un Lao,  
 A. Laurent,  K. V. Lawler,  Joonho Lee,  D. Lefrancois,  S. Lehtola,  
 D. S. Levine,  Yi-Pei Li,  You-Sheng Lin,  Fenglai Liu,  E. Livshits,  
 A. Luenser,  P. Manohar,  E. Mansoor,  S. F. Manzer,  Shan-Ping Mao,  
 Yuezhi Mao,  N. Mardirossian,  A. V. Marenich,  T. Markovich,  
 L. A. Martinez-Martinez,  S. A. Maurer,  N. J. Mayhall,  S. C. McKenzie,  
 J.-M. Mewes,  A. F. Morrison,  J. W. Mullinax,  K. Nanda,  
 T. S. Nguyen-Beck,  R. Olivares-Amaya,  J. A. Parkhill,  T. M. Perrine,  
 F. Plasser,  S. Prager,  A. Prociuk,  E. Ramos,  D. R. Rehn,  F. Rob,  
 M. Schneider,  N. Sergueev,  S. M. Sharada,  S. Sharma,  D. W. Small,  
 T. Stauch,  T. Stein,  Yu-Chuan Su,  A. J. W. Thom,  A. Tkatchenko,  
 T. Tsuchimochi,  L. Vogt,  O. Vydrov,  M. A. Watson,  J. Wenzel,  
 M. de Wergifosse,  T. A. Wesolowski,  A. White,  J. Witte,  A. Yamada,  
 Jun Yang,  K. Yao,  S. Yeganeh,  S. R. Yost,  Zhi-Qiang You,  A. Zech,  
 Igor Ying Zhang,  Xing Zhang,  Yan Zhao,  Ying Zhu,  B. R. Brooks,  
 G. K. L. Chan,  C. J. Cramer,  M. S. Gordon,  W. J. Hehre,  A. Klamt,  
 M. W. Schmidt,  C. D. Sherrill,  D. G. Truhlar,  A. Aspuru-Guzik,  R. Baer,  
 A. T. Bell,  N. A. Besley,  Jeng-Da Chai,  R. A. DiStasio Jr.,  A. Dreuw,  
 B. D. Dunietz,  T. R. Furlani,  Chao-Ping Hsu,  Yousung Jung,  Jing Kong,  
 D. S. Lambrecht,  WanZhen Liang,  C. Ochsenfeld,  V. A. Rassolov,  
 L. V. Slipchenko,  J. E. Subotnik,  T. Van Voorhis,  J. M. Herbert,  
 A. I. Krylov,  P. M. W. Gill,  M. Head-Gordon

 Contributors to earlier versions of Q-Chem not listed above: 
 R. D. Adamson,  B. Austin,  J. Baker,  G. J. O. Beran,  K. Brandhorst,  
 S. T. Brown,  E. F. C. Byrd,  A. K. Chakraborty,  C.-L. Cheng,  
 Siu Hung Chien,  D. M. Chipman,  D. L. Crittenden,  H. Dachsel,  
 R. J. Doerksen,  A. D. Dutoi,  L. Fusti-Molnar,  W. A. Goddard III,  
 A. Golubeva-Zadorozhnaya,  S. R. Gwaltney,  G. Hawkins,  A. Heyden,  
 S. Hirata,  G. Kedziora,  F. J. Keil,  C. Kelley,  Jihan Kim,  R. A. King,  
 R. Z. Khaliullin,  P. P. Korambath,  W. Kurlancheek,  A. M. Lee,  M. S. Lee,  
 S. V. Levchenko,  Ching Yeh Lin,  D. Liotard,  R. C. Lochan,  I. Lotan,  
 P. E. Maslen,  N. Nair,  D. P. O'Neill,  D. Neuhauser,  E. Neuscamman,  
 C. M. Oana,  R. Olson,  B. Peters,  R. Peverati,  P. A. Pieniazek,  
 Y. M. Rhee,  J. Ritchie,  M. A. Rohrdanz,  E. Rosta,  N. J. Russ,  
 H. F. Schaefer III,  N. E. Schultz,  N. Shenvi,  A. C. Simmonett,  A. Sodt,  
 D. Stuck,  K. S. Thanthiriwatte,  V. Vanovschi,  Tao Wang,  A. Warshel,  
 C. F. Williams,  Q. Wu,  X. Xu,  W. Zhang

 Please cite Q-Chem as follows:
 Y. Shao et al., Mol. Phys. 113, 184-215 (2015)
 DOI: 10.1080/00268976.2014.952696

 Q-Chem 5.0.2 for Intel X86 EM64T Linux

 Parts of Q-Chem use Armadillo 5.200.1 (Boston Tea Smuggler).
 http://arma.sourceforge.net/

 Q-Chem begins on Tue Apr 16 20:43:39 2019  

Host: 
0

     Scratch files written to ./run.d//
 Dec517 15110_ 26548  26544 5633   
Processing $rem in /home/leeping/opt/qchem/5.0.2-openmp/config/preferences.
 MEM_STATIC 2000
 MEM_TOTAL  8000
 SYMMETRY   OFF
 SYM_IGNORE TRUE 
The previous job contains 0 fragments, simply inherited here
Symmetry turned off for PCM/SM12/SMD calculation

Checking the input file for inconsistencies... 	...done.

--------------------------------------------------------------
User input:
--------------------------------------------------------------

$molecule
read
$end

$rem
jobtype               force
method                wb97x-v
basis                 def2-tzvpd
symmetry              off
sym_ignore            true
incdft                false
incfock               0
!scf_algorithm        diis_gdm
scf_guess             read
scf_convergence       8
thresh                14
unrestricted          true
!purecart             112
max_scf_cycles        1000
geom_opt_max_cycles   500
geom_opt_dmax         100
geom_opt_tol_gradient 10
solvent_method        pcm
ideriv                1
rpath_tol_displacement 1000
rpath_max_cycles      100
rpath_direction       1
$end

$pcm
theory              cosmo
method              iswig
Radii               bondi
vdwScale            1.20
hpoints             110
heavypoints         110
$end

$solvent
dielectric 78.400000
$end

--------------------------------------------------------------
 ----------------------------------------------------------------
             Standard Nuclear Orientation (Angstroms)
    I     Atom           X                Y                Z
 ----------------------------------------------------------------
    1      C       0.0419821171     0.8003944009    -1.8234001406
    2      C       0.3426798993     0.9748480439    -3.3211962284
    3      O       0.0818877966     2.1103022940    -3.8096214806
    4      O       0.8059829744     0.0010116675    -3.9685743309
    5      C       0.5482132115    -0.4902201761    -1.1885252473
    6      H      -1.0473033432     0.8794160415    -1.7208851867
    7      H       0.4540161237     1.6720837245    -1.3044971239
    8      C       0.2902628250    -0.6758488962     0.3291518812
    9      H       1.6310711312    -0.5772805451    -1.3326156524
   10      H       0.0901414571    -1.3521610599    -1.6881704982
   11      C      -1.2160013599    -0.6114876526     0.6474536995
   12      H      -1.6607038716     0.3481123830     0.3635379005
   13      H      -1.3562403740    -0.7540880064     1.7227448493
   14      H      -1.7454893413    -1.4120830982     0.1182315786
   15      O       0.8415423414    -1.8326495073     0.7844409701
   16      O       0.9353452673     0.4754292411     0.9302377390
   17      O       1.1964523849    -0.0951238611     2.6224434994
   18      H       1.1653693858    -1.0068507851     2.2095782615
   19      O      -0.7883892504     0.4547970681     4.1640133589
   20      H      -0.0305211272     0.2150959747     3.5198819388
   21      O      -1.0940106710     1.7664146920     3.8659609795
 ----------------------------------------------------------------
 Nuclear Repulsion Energy =   716.9788510535 hartrees
 There are       49 alpha and       49 beta electrons
 Requested basis set is def2-TZVPD
 There are 208 shells and 546 basis functions

 Total QAlloc Memory Limit   8000 MB
 Mega-Array Size      1956 MB
 MEM_STATIC part      2000 MB
 Discretize the solute cavity surface with Lebedev spheres
	Using 110 Lebedev grid points for each H atom
	Using 110 Lebedev grid points for other atoms
	Atomic van der Waals radii will be scaled by 1.20
 Remove points where switching function is < 1.0e-08
 Keep 1252 surface tesserae and discard 1058 interior tesserae
 Molecular Surface Area = 230.194 Angst**2
 A cutoff of  1.0D-14 yielded  18785 shell pairs
 There are    128035 function pairs (    162158 Cartesian)
 
 -------------------------------------------------------
 OpenMP Integral Computing Module                       
 Release: version 1.0, May 2013, Q-Chem Inc. Pittsburgh 
 -------------------------------------------------------
 Integral Job Info:
 Integral job number is                      11
 Integral operator is                         1
 short-range coefficients              16700000
 long-range coefficients              100000000
 Omega coefficients                         300
 if combine SR and LR in K                    1
 Integral screening is                        0
 Integral computing path is                   2
 max size of driver memory is            800000
 size of driver memory is                776718
 size of scratch memory is              4473992
 max col of scratch BK array              10000
 max len of scratch array in speh3          662
 max len of scratch index in speh4           32
 max int batch size is                      520
 min int batch size is                       52
 fixed nKL is                                52
 max L of basis functions is                  3
 order of int derivative is                   0
 number of shells is                        208
 number of basis is                         618
 number of cartesian basis is               618
 number of contracted shell pairs         18785
 number of primitive shell pairs          37155
 maxK2 (contraction) of shell pair           36
 max number of K2 of shell pair               1
 max number of CS2 of shell pair           3200
 max number of PS2 of shell pair           4170
 mem total for path MDJ                  852508
 -------------------------------------------------------
 Smallest overlap matrix eigenvalue = 2.39E-06

 Scale SEOQF with 1.000000e-01/1.000000e-01/1.000000e-01

 Standard Electronic Orientation quadrupole field applied
 Nucleus-field energy     =    -0.0000000637 hartrees
 Guess MOs from SCF MO coefficient file
 Reading MOs from coefficient file
 Reading MOs from coefficient file
 Long-range K will be added via erf
 Coulomb attenuation parameter = 0.3 bohr**(-1)
 An unrestricted hybrid HF-DFT SCF calculation will be
 performed using Pulay DIIS extrapolation
 Polarizable Continuum solvation model will be applied
 Exchange:     0.1670 Hartree-Fock + 1.0000 wB97X-V + LR-HF
 Correlation:  1.0000 wB97X-V
 Using SG-2 standard quadrature grid
 Nonlocal Correlation:  VV10 with C = 0.0100 and b = 6.00
 Grid used for NLC:  SG-1 standard quadrature
 SCF converges when DIIS error is below 1.0E-08
Using Q-Chem read-in guess as SCF_GUESS READ specified.

 using 16 threads for integral computing
 -------------------------------------------------------
 OpenMP Integral computing Module                
 Release: version 1.0, May 2013, Q-Chem Inc. Pittsburgh 
 -------------------------------------------------------
 using 16 threads for integral computing
 -------------------------------------------------------
 OpenMP Integral computing Module                
 Release: version 1.0, May 2013, Q-Chem Inc. Pittsburgh 
 -------------------------------------------------------
 -------------------------------------------------------
 OpenMP BLAS3 based DFT computing Module                
 Release: version 1.0, May 2013, Q-Chem Inc. Pittsburgh 
 -------------------------------------------------------
 -------------------------------------------------------
 OpenMP BLAS3 based DFT computing Module                
 Release: version 1.0, May 2013, Q-Chem Inc. Pittsburgh 
 -------------------------------------------------------
 -------------------------------------------------------
 OpenMP BLAS3 based DFT computing Module                
 Release: version 1.0, May 2013, Q-Chem Inc. Pittsburgh 
 -------------------------------------------------------
 ---------------------------------------
  Cycle       Energy         DIIS Error
 ---------------------------------------
    1    -722.1078955491      4.42E-04
    2    -722.7304153794      4.14E-04
    3    -722.7458134656      2.08E-04
    4    -722.7495011967      1.32E-04
    5    -722.7540085046      6.26E-05
    6    -722.7551654279      3.01E-05
    7    -722.7554811640      1.84E-05
    8    -722.7555909360      1.12E-05
    9    -722.7556225092      5.27E-06
   10    -722.7556325045      2.08E-06
   11    -722.7556337900      1.19E-06
   12    -722.7556342450      5.75E-07
   13    -722.7556343522      2.73E-07
   14    -722.7556343813      1.78E-07
   15    -722.7556343901      9.12E-08
   16    -722.7556343970      6.25E-08
   17    -722.7556344004      4.62E-08
   18    -722.7556344024      3.62E-08
   19    -722.7556344039      3.01E-08
   20    -722.7556344057      2.49E-08
   21    -722.7556344071      1.81E-08
   22    -722.7556344081      1.02E-08
   23    -722.7556344083      5.20E-09 Convergence criterion met
 ---------------------------------------

************** Final PCM Free Energy Summary **************
 G_electrostatic  =      -0.61269301 hartree =    -384.47066576 kcal/mol
 G_cavitation     =       0.00000000 hartree =       0.00000000 kcal/mol
 G_dispersion     =       0.00000000 hartree =       0.00000000 kcal/mol
 G_repulsion      =       0.00000000 hartree =       0.00000000 kcal/mol
 --------------------------------------------------
 Non-electrostatic Free Energy =       0.00000000 hartree =       0.00000000 kcal/mol
 Total                         =      -0.61269301 hartree =    -384.47066576 kcal/mol
 --------------------------------------------------
 SCF Energy (H0 + V/2)                       =    -722.75563441 
 Solute Internal Energy (H0)                 =    -722.14294140 
 Total Free Energy (H0 + V/2 + non-elec)     =    -722.75563441 hartree
                                             = -453536.00580980 kcal/mol
***********************************************************

 <S^2> = 1.0071
 SCF time:  CPU 10268.36 s  wall 729.06 s
 SCF   energy in the final basis set = -722.75563441
 Total energy in the final basis set = -722.75563441
 
 --------------------------------------------------------------
 
                    Orbital Energies (a.u.)
 --------------------------------------------------------------
 
 Alpha MOs
 -- Occupied --
-19.279 -19.262 -19.135 -19.132 -19.127 -19.123 -19.085 -10.334
-10.295 -10.234 -10.221 -10.217  -1.234  -1.137  -1.090  -1.042
 -1.003  -0.964  -0.920  -0.869  -0.804  -0.741  -0.621  -0.602
 -0.594  -0.554  -0.542  -0.537  -0.525  -0.511  -0.501  -0.487
 -0.481  -0.477  -0.465  -0.443  -0.437  -0.408  -0.403  -0.395
 -0.379  -0.351  -0.342  -0.333  -0.325  -0.303  -0.292  -0.275
 -0.230
 -- Virtual --
 -0.014   0.062   0.074   0.079   0.089   0.091   0.097   0.106
  0.107   0.124   0.125   0.127   0.136   0.141   0.149   0.152
  0.157   0.166   0.168   0.170   0.182   0.186   0.189   0.192
  0.196   0.207   0.209   0.222   0.226   0.229   0.234   0.247
  0.250   0.253   0.255   0.263   0.274   0.282   0.286   0.291
  0.297   0.300   0.306   0.313   0.321   0.324   0.327   0.331
  0.337   0.344   0.348   0.353   0.362   0.368   0.373   0.376
  0.384   0.387   0.388   0.395   0.399   0.410   0.415   0.418
  0.421   0.426   0.431   0.433   0.438   0.444   0.452   0.456
  0.459   0.463   0.471   0.472   0.481   0.491   0.494   0.498
  0.504   0.511   0.514   0.515   0.519   0.524   0.528   0.536
  0.541   0.547   0.551   0.554   0.559   0.563   0.571   0.573
  0.578   0.582   0.586   0.593   0.598   0.604   0.608   0.609
  0.617   0.621   0.622   0.633   0.639   0.643   0.647   0.651
  0.659   0.669   0.673   0.677   0.684   0.688   0.702   0.710
  0.715   0.718   0.721   0.735   0.739   0.747   0.755   0.758
  0.768   0.769   0.785   0.785   0.790   0.795   0.803   0.810
  0.813   0.820   0.821   0.831   0.833   0.839   0.850   0.853
  0.857   0.863   0.865   0.872   0.873   0.884   0.892   0.900
  0.908   0.910   0.917   0.922   0.934   0.946   0.952   0.955
  0.964   0.975   0.987   0.992   0.999   1.009   1.015   1.029
  1.037   1.054   1.056   1.062   1.072   1.087   1.089   1.095
  1.114   1.119   1.133   1.144   1.164   1.171   1.186   1.197
  1.201   1.212   1.219   1.223   1.240   1.245   1.260   1.265
  1.279   1.297   1.317   1.321   1.334   1.337   1.354   1.363
  1.391   1.401   1.414   1.422   1.448   1.450   1.462   1.482
  1.493   1.508   1.528   1.551   1.554   1.573   1.592   1.624
  1.631   1.649   1.662   1.671   1.689   1.706   1.734   1.756
  1.781   1.824   1.860   1.870   1.882   1.898   1.904   1.919
  1.934   1.944   1.953   1.956   1.975   1.982   1.987   2.007
  2.014   2.027   2.034   2.045   2.051   2.055   2.070   2.081
  2.095   2.111   2.128   2.144   2.156   2.165   2.171   2.212
  2.222   2.232   2.251   2.262   2.267   2.275   2.301   2.313
  2.331   2.342   2.358   2.370   2.390   2.411   2.429   2.434
  2.441   2.473   2.482   2.488   2.506   2.528   2.539   2.561
  2.566   2.579   2.602   2.610   2.627   2.660   2.676   2.697
  2.715   2.728   2.744   2.775   2.781   2.799   2.812   2.844
  2.875   2.893   2.918   2.923   2.937   2.953   2.985   2.989
  2.997   2.999   3.016   3.027   3.048   3.059   3.073   3.076
  3.086   3.115   3.126   3.134   3.142   3.167   3.180   3.215
  3.231   3.237   3.273   3.286   3.297   3.315   3.327   3.342
  3.368   3.382   3.395   3.405   3.428   3.464   3.476   3.494
  3.499   3.526   3.545   3.550   3.557   3.561   3.578   3.584
  3.606   3.619   3.640   3.642   3.663   3.680   3.684   3.691
  3.706   3.725   3.739   3.749   3.754   3.777   3.798   3.810
  3.829   3.839   3.845   3.849   3.891   3.905   3.935   3.941
  3.978   4.015   4.051   4.106   4.148   4.163   4.198   4.249
  4.276   4.284   4.300   4.332   4.343   4.350   4.391   4.472
  4.489   4.624   4.670   4.682   4.714   4.743   4.807   4.829
  4.839   4.846   4.851   4.911   4.929   4.943   4.988   5.031
  5.044   5.106   5.116   5.152   5.214   5.253   5.273   5.277
  5.303   5.330   5.364   5.370   5.374   5.396   5.408   5.417
  5.443   5.456   5.483   5.505   5.537   5.561   5.587   5.603
  5.616   5.657   5.673   5.698   5.723   5.730   5.746   5.789
  5.831   5.902   6.008   6.017   6.127   6.158   6.171   6.209
  6.244   6.258   6.317   6.345   6.381   6.428   6.450   6.525
  6.545   6.582   6.607   6.620   6.641   6.642   6.651   6.694
  6.706   6.710   6.757   6.777   6.791   6.811   6.884   6.963
  6.969   6.978   7.022   7.052   7.059   7.086   7.108   7.115
  7.252   7.257   7.271   7.320   7.357   7.369   7.398   7.414
  7.448   7.483   7.507   7.689   8.373  22.780  22.919  22.984
 23.173  23.739  43.864  44.225  44.294  44.418  44.432  44.548
 44.651
 
 Beta MOs
 -- Occupied --
-19.288 -19.278 -19.135 -19.132 -19.112 -19.112 -19.085 -10.334
-10.295 -10.234 -10.221 -10.217  -1.261  -1.137  -1.072  -1.042
 -0.989  -0.964  -0.935  -0.865  -0.803  -0.739  -0.632  -0.596
 -0.593  -0.570  -0.558  -0.550  -0.535  -0.521  -0.507  -0.495
 -0.485  -0.475  -0.457  -0.434  -0.426  -0.407  -0.403  -0.395
 -0.384  -0.344  -0.342  -0.338  -0.332  -0.324  -0.292  -0.286
 -0.267
 -- Virtual --
  0.062   0.066   0.078   0.086   0.089   0.097   0.102   0.107
  0.116   0.125   0.127   0.130   0.138   0.144   0.148   0.154
  0.157   0.166   0.168   0.170   0.180   0.182   0.187   0.192
  0.196   0.204   0.207   0.220   0.225   0.228   0.236   0.247
  0.251   0.253   0.255   0.264   0.274   0.282   0.287   0.291
  0.297   0.300   0.307   0.312   0.321   0.324   0.328   0.331
  0.338   0.344   0.347   0.353   0.362   0.368   0.373   0.377
  0.384   0.387   0.388   0.395   0.400   0.412   0.415   0.418
  0.420   0.426   0.431   0.434   0.439   0.444   0.453   0.456
  0.459   0.463   0.471   0.472   0.481   0.491   0.494   0.498
  0.504   0.510   0.514   0.516   0.519   0.524   0.529   0.536
  0.539   0.547   0.550   0.554   0.559   0.563   0.571   0.573
  0.578   0.581   0.585   0.593   0.598   0.602   0.608   0.608
  0.617   0.620   0.622   0.632   0.639   0.642   0.647   0.651
  0.659   0.669   0.672   0.677   0.684   0.688   0.701   0.710
  0.715   0.717   0.722   0.736   0.738   0.747   0.754   0.758
  0.768   0.769   0.786   0.786   0.790   0.795   0.803   0.809
  0.813   0.820   0.820   0.831   0.833   0.839   0.850   0.854
  0.858   0.863   0.866   0.873   0.874   0.884   0.892   0.899
  0.908   0.911   0.918   0.922   0.933   0.945   0.950   0.955
  0.962   0.975   0.984   0.992   0.998   1.008   1.015   1.027
  1.036   1.051   1.055   1.061   1.072   1.087   1.090   1.096
  1.114   1.119   1.134   1.145   1.162   1.171   1.186   1.199
  1.201   1.216   1.220   1.225   1.240   1.245   1.261   1.266
  1.281   1.298   1.318   1.322   1.332   1.338   1.355   1.366
  1.392   1.402   1.419   1.422   1.449   1.452   1.463   1.484
  1.494   1.510   1.528   1.554   1.557   1.575   1.592   1.612
  1.630   1.650   1.661   1.667   1.688   1.706   1.735   1.750
  1.779   1.813   1.860   1.865   1.875   1.879   1.906   1.922
  1.935   1.944   1.955   1.959   1.975   1.982   1.991   2.005
  2.017   2.028   2.034   2.045   2.051   2.056   2.061   2.082
  2.097   2.113   2.132   2.146   2.156   2.166   2.177   2.210
  2.222   2.232   2.237   2.262   2.271   2.274   2.303   2.312
  2.332   2.343   2.355   2.370   2.391   2.412   2.431   2.435
  2.441   2.473   2.482   2.492   2.506   2.524   2.540   2.560
  2.569   2.580   2.607   2.610   2.629   2.661   2.679   2.698
  2.716   2.730   2.746   2.776   2.782   2.801   2.813   2.845
  2.877   2.892   2.919   2.924   2.938   2.945   2.956   2.987
  2.996   2.999   3.015   3.020   3.047   3.057   3.074   3.075
  3.086   3.113   3.121   3.132   3.137   3.166   3.179   3.194
  3.235   3.241   3.278   3.289   3.300   3.316   3.327   3.343
  3.367   3.373   3.395   3.404   3.429   3.466   3.477   3.494
  3.500   3.528   3.546   3.549   3.559   3.562   3.579   3.586
  3.608   3.619   3.641   3.646   3.664   3.678   3.684   3.693
  3.706   3.726   3.741   3.751   3.756   3.780   3.799   3.812
  3.833   3.842   3.846   3.852   3.893   3.918   3.939   3.943
  3.982   4.017   4.053   4.108   4.149   4.164   4.199   4.258
  4.280   4.289   4.300   4.319   4.343   4.351   4.392   4.473
  4.490   4.625   4.671   4.683   4.715   4.743   4.807   4.819
  4.830   4.840   4.851   4.909   4.913   4.933   4.993   5.003
  5.049   5.106   5.109   5.156   5.208   5.225   5.233   5.280
  5.316   5.331   5.368   5.379   5.380   5.401   5.418   5.424
  5.442   5.461   5.477   5.505   5.552   5.576   5.581   5.607
  5.615   5.667   5.673   5.711   5.723   5.734   5.754   5.790
  5.857   5.914   6.008   6.038   6.114   6.120   6.183   6.210
  6.244   6.258   6.317   6.346   6.386   6.434   6.452   6.472
  6.492   6.535   6.597   6.600   6.614   6.621   6.643   6.705
  6.728   6.741   6.758   6.778   6.803   6.845   6.909   6.953
  6.963   6.978   7.035   7.058   7.064   7.071   7.110   7.138
  7.257   7.264   7.276   7.318   7.363   7.369   7.398   7.414
  7.464   7.484   7.516   7.729   8.360  22.780  22.919  22.984
 23.172  23.739  43.846  44.232  44.295  44.414  44.431  44.564
 44.652
 --------------------------------------------------------------
 
          Ground-State Mulliken Net Atomic Charges

     Atom                 Charge (a.u.)    Spin (a.u.)
  --------------------------------------------------------
      1 C                    -0.185156       0.007152
      2 C                    -0.006107      -0.000253
      3 O                    -0.720745       0.000016
      4 O                    -0.694011       0.000109
      5 C                    -0.280940       0.022141
      6 H                     0.181694      -0.000638
      7 H                     0.160988       0.000020
      8 C                     1.276479      -0.002120
      9 H                     0.125866       0.003456
     10 H                     0.163226       0.003455
     11 C                    -1.295688       0.000946
     12 H                     0.231335      -0.003010
     13 H                     0.181675       0.000041
     14 H                     0.234371      -0.001069
     15 O                    -1.045008       0.005140
     16 O                    -0.627415       0.562627
     17 O                    -0.873869       0.446069
     18 H                     0.296451      -0.029059
     19 O                    -0.199990      -0.307624
     20 H                     0.369489      -0.016864
     21 O                    -0.292645      -0.690535
  --------------------------------------------------------
  Sum of atomic charges =    -3.000000
  Sum of spin   charges =     0.000000

 -----------------------------------------------------------------
                    Cartesian Multipole Moments
 -----------------------------------------------------------------
    Charge (ESU x 10^10)
               -14.4096
    Dipole Moment (Debye)
         X      -9.3734      Y      -2.8216      Z       3.3988
       Tot      10.3621
    Quadrupole Moments (Debye-Ang)
        XX     -96.8999     XY       8.0039     YY    -116.5755
        XZ       5.8161     YZ      16.2692     ZZ    -217.6670
    Octopole Moments (Debye-Ang^2)
       XXX     -54.2138    XXY     -11.2742    XYY     -22.8207
       YYY     -53.2536    XXZ     -22.3341    XYZ      12.3866
       YYZ      35.7987    XZZ     -52.5630    YZZ    -143.9180
       ZZZ     201.4916
    Hexadecapole Moments (Debye-Ang^3)
      XXXX    -479.1742   XXXY      61.2813   XXYY    -207.3537
      XYYY      87.6252   YYYY    -851.3533   XXXZ     140.0207
      XXYZ      26.5065   XYYZ      65.7265   YYYZ     256.4096
      XXZZ    -779.6691   XYZZ      70.5262   YYZZ    -993.0006
      XZZZ     420.2776   YZZZ     351.4050   ZZZZ   -5638.6133
 -----------------------------------------------------------------
 Calculating analytic gradient of the SCF energy
 Gradient of SCF Energy
            1           2           3           4           5           6
    1  -0.0625284   0.0000079   0.0120383  -0.0289799   0.1993491   0.0646140
    2   0.1148253  -0.0228607  -0.0587226   0.0572468  -0.2011771  -0.0003049
    3   0.1026675  -0.0748177   0.0412919   0.0485921  -0.1043165   0.0030743
            7           8           9          10          11          12
    1  -0.0380761  -0.1101297  -0.0908385   0.0406684  -0.1364265   0.0255674
    2  -0.0619718   0.1049420  -0.0114972   0.0654198   0.0235704  -0.1118161
    3  -0.0318388  -0.0635207  -0.0084571   0.0253474   0.0513366   0.0466053
           13          14          15          16          17          18
    1   0.0158743   0.0453370   0.0146909   0.0148182   0.0717867  -0.0010092
    2   0.0178139   0.0820079  -0.0073363   0.0096830  -0.0474895   0.0566561
    3  -0.1207956   0.0589663  -0.0065754  -0.0295396  -0.0000953   0.0564303
           19          20          21
    1   0.0596187  -0.0920810  -0.0043016
    2  -0.0632149   0.0130107   0.0412153
    3  -0.0245579   0.0450270  -0.0148241
 Max gradient component =       2.012E-01
 RMS gradient           =       6.784E-02
 Computing fast CPCM-ISWIG gradient
 Updating gradient with PCM contributions...
 -- total gradient after adding PCM contribution --
---------------------------------------------------
  Atom         X              Y              Z     
---------------------------------------------------
   1      -0.000762       0.001203       0.000683
   2       0.000561       0.000505      -0.001864
   3      -0.000012      -0.000927       0.001155
   4      -0.000312      -0.000184       0.001278
   5       0.004737       0.004690      -0.001273
   6       0.000259      -0.000030       0.000026
   7       0.000074       0.000526      -0.000148
   8      -0.009739      -0.020858       0.000906
   9      -0.000252      -0.000072      -0.000219
  10      -0.000006       0.000459       0.002739
  11       0.000419       0.001482       0.000935
  12       0.000147      -0.000069       0.000103
  13       0.000029       0.000111      -0.000075
  14       0.001362       0.000583       0.000033
  15       0.000371       0.010303       0.001609
  16       0.015020      -0.015872       0.061755
  17      -0.001506       0.026711      -0.072132
  18       0.000165      -0.011326      -0.003778
  19       0.025919      -0.055372       0.000216
  20      -0.024516       0.006967       0.019527
  21      -0.011959       0.051171      -0.011477
---------------------------------------------------
 Number of fixed atoms: 0
 Gradient time:  CPU 1371.98 s  wall 99.97 s
Archival summary:
1\1\c4-82\JobtypUnspecified\ProcedureUnspecified\BasisUnspecified\759(3-,1)\leeping\TueApr1620:57:292019TueApr1620:57:292019\0\\#,JobtypUnspecified,ProcedureUnspecified,BasisUnspecified,\\-3,1\O\C,1,1.45013\O,2,1.35992,1,110.869\C,2,1.54087,1,108.425,3,122.417,0\H,4,1.09373,2,108.843,1,-67.1234,0\H,4,1.09508,2,112.335,1,53.0361,0\H,4,1.09608,2,109.997,1,174.111,0\C,2,1.55059,1,103.689,3,-119.452,0\H,8,1.09587,2,106.473,1,65.3157,0\H,8,1.09655,2,106.403,1,179.066,0\C,8,1.5248,2,116.977,1,-57.983,0\H,11,1.09493,8,110.584,2,56.0909,0\H,11,1.09695,8,110.594,2,-60.7523,0\C,11,1.53761,8,115.893,2,178.491,0\O,14,1.25782,11,119.048,8,9.64127,0\O,14,1.26326,11,115.991,8,-171.118,0\H,3,1.67864,2,86.7878,1,29.9528,0\O,17,1.00133,3,143.51,2,-12.8649,0\H,18,1.55148,17,113.329,3,102.535,0\O,19,1.0231,18,175.45,17,139.217,0\O,20,1.37934,19,104.529,18,82.7336,0\\\@

 Total job time:  830.08s(wall), 11652.96s(cpu) 
 Tue Apr 16 20:57:29 2019

        *************************************************************
        *                                                           *
        *  Thank you very much for using Q-Chem.  Have a nice day.  *
        *                                                           *
        *************************************************************


