
Running Job 1 of 1 qc-freq2.in
qchem qc-freq2.in_13735.0 /scratch/leeping/1862743/qc-freq2.d/ 1
/home/leeping/opt/qchem/5.0.2-openmp/exe/qcprog.exe_s qc-freq2.in_13735.0 /scratch/leeping/1862743/qc-freq2.d/
Check license passed

                  Welcome to Q-Chem
     A Quantum Leap Into The Future Of Chemistry


 Q-Chem 5.0, Q-Chem, Inc., Pleasanton, CA (2017)

 Yihan Shao,  Zhengting Gan,  E. Epifanovsky,  A. T. B. Gilbert,  M. Wormit,  
 J. Kussmann,  A. W. Lange,  A. Behn,  Jia Deng,  Xintian Feng,  D. Ghosh,  
 M. Goldey,  P. R. Horn,  L. D. Jacobson,  I. Kaliman,  T. Kus,  A. Landau,  
 Jie Liu,  E. I. Proynov,  R. M. Richard,  R. P. Steele,  E. J. Sundstrom,  
 H. L. Woodcock III,  P. M. Zimmerman,  D. Zuev,  B. Albrecht,  E. Alguire,  
 S. A. Baeppler,  D. Barton,  Z. Benda,  Y. A. Bernard,  E. J. Berquist,  
 K. B. Bravaya,  H. Burton,  D. Casanova,  Chun-Min Chang,  Yunqing Chen,  
 A. Chien,  K. D. Closser,  M. P. Coons,  S. Dasgupta,  A. L. Dempwolff,  
 M. Diedenhofen,  Hainam Do,  R. G. Edgar,  Po-Tung Fang,  S. Fatehi,  
 Qingguo Feng,  J. Fosso-Tande,  Qinghui Ge,  A. Ghysels,  G. Gidofalvi,  
 J. Gomes,  J. Gonthier,  A. Gunina,  M. W. D. Hanson-Heine,  
 P. H. P. Harbach,  A. W. Hauser,  J. E. Herr,  E. G. Hohenstein,  
 Z. C. Holden,  Kerwin Hui,  T.-C. Jagau,  Hyunjun Ji,  B. Kaduk,  
 K. Khistyaev,  Jaehoon Kim,  P. Klunzinger,  K. Koh,  D. Kosenkov,  
 L. Koulias,  T. Kowalczyk,  C. M. Krauter,  A. Kunitsa,  Ka Un Lao,  
 A. Laurent,  K. V. Lawler,  Joonho Lee,  D. Lefrancois,  S. Lehtola,  
 D. S. Levine,  Yi-Pei Li,  You-Sheng Lin,  Fenglai Liu,  E. Livshits,  
 A. Luenser,  P. Manohar,  E. Mansoor,  S. F. Manzer,  Shan-Ping Mao,  
 Yuezhi Mao,  N. Mardirossian,  A. V. Marenich,  T. Markovich,  
 L. A. Martinez-Martinez,  S. A. Maurer,  N. J. Mayhall,  S. C. McKenzie,  
 J.-M. Mewes,  A. F. Morrison,  J. W. Mullinax,  K. Nanda,  
 T. S. Nguyen-Beck,  R. Olivares-Amaya,  J. A. Parkhill,  T. M. Perrine,  
 F. Plasser,  S. Prager,  A. Prociuk,  E. Ramos,  D. R. Rehn,  F. Rob,  
 M. Schneider,  N. Sergueev,  S. M. Sharada,  S. Sharma,  D. W. Small,  
 T. Stauch,  T. Stein,  Yu-Chuan Su,  A. J. W. Thom,  A. Tkatchenko,  
 T. Tsuchimochi,  L. Vogt,  O. Vydrov,  M. A. Watson,  J. Wenzel,  
 M. de Wergifosse,  T. A. Wesolowski,  A. White,  J. Witte,  A. Yamada,  
 Jun Yang,  K. Yao,  S. Yeganeh,  S. R. Yost,  Zhi-Qiang You,  A. Zech,  
 Igor Ying Zhang,  Xing Zhang,  Yan Zhao,  Ying Zhu,  B. R. Brooks,  
 G. K. L. Chan,  C. J. Cramer,  M. S. Gordon,  W. J. Hehre,  A. Klamt,  
 M. W. Schmidt,  C. D. Sherrill,  D. G. Truhlar,  A. Aspuru-Guzik,  R. Baer,  
 A. T. Bell,  N. A. Besley,  Jeng-Da Chai,  R. A. DiStasio Jr.,  A. Dreuw,  
 B. D. Dunietz,  T. R. Furlani,  Chao-Ping Hsu,  Yousung Jung,  Jing Kong,  
 D. S. Lambrecht,  WanZhen Liang,  C. Ochsenfeld,  V. A. Rassolov,  
 L. V. Slipchenko,  J. E. Subotnik,  T. Van Voorhis,  J. M. Herbert,  
 A. I. Krylov,  P. M. W. Gill,  M. Head-Gordon

 Contributors to earlier versions of Q-Chem not listed above: 
 R. D. Adamson,  B. Austin,  J. Baker,  G. J. O. Beran,  K. Brandhorst,  
 S. T. Brown,  E. F. C. Byrd,  A. K. Chakraborty,  C.-L. Cheng,  
 Siu Hung Chien,  D. M. Chipman,  D. L. Crittenden,  H. Dachsel,  
 R. J. Doerksen,  A. D. Dutoi,  L. Fusti-Molnar,  W. A. Goddard III,  
 A. Golubeva-Zadorozhnaya,  S. R. Gwaltney,  G. Hawkins,  A. Heyden,  
 S. Hirata,  G. Kedziora,  F. J. Keil,  C. Kelley,  Jihan Kim,  R. A. King,  
 R. Z. Khaliullin,  P. P. Korambath,  W. Kurlancheek,  A. M. Lee,  M. S. Lee,  
 S. V. Levchenko,  Ching Yeh Lin,  D. Liotard,  R. C. Lochan,  I. Lotan,  
 P. E. Maslen,  N. Nair,  D. P. O'Neill,  D. Neuhauser,  E. Neuscamman,  
 C. M. Oana,  R. Olson,  B. Peters,  R. Peverati,  P. A. Pieniazek,  
 Y. M. Rhee,  J. Ritchie,  M. A. Rohrdanz,  E. Rosta,  N. J. Russ,  
 H. F. Schaefer III,  N. E. Schultz,  N. Shenvi,  A. C. Simmonett,  A. Sodt,  
 D. Stuck,  K. S. Thanthiriwatte,  V. Vanovschi,  Tao Wang,  A. Warshel,  
 C. F. Williams,  Q. Wu,  X. Xu,  W. Zhang

 Please cite Q-Chem as follows:
 Y. Shao et al., Mol. Phys. 113, 184-215 (2015)
 DOI: 10.1080/00268976.2014.952696

 Q-Chem 5.0.2 for Intel X86 EM64T Linux

 Parts of Q-Chem use Armadillo 5.200.1 (Boston Tea Smuggler).
 http://arma.sourceforge.net/

 Q-Chem begins on Fri Mar 20 21:44:51 2020  

Host: 
0

     Scratch files written to /scratch/leeping/1862743/qc-freq2.d//
 Dec517 15110_ 26548  26544 5633   
Processing $rem in /home/leeping/opt/qchem/5.0.2-openmp/config/preferences.
 MEM_STATIC 2000
 MEM_TOTAL  8000
 SYMMETRY   OFF
 SYM_IGNORE TRUE 
Symmetry turned off for PCM/SM12/SMD calculation

Checking the input file for inconsistencies... 	...done.

--------------------------------------------------------------
User input:
--------------------------------------------------------------
$molecule
-2 1
C       -1.5178854514   -0.0283642891    0.5759557695
C        0.2057517228    0.6374386224   -0.9106966901
C        1.1033299788   -0.0121614035   -1.9357972493
H       -0.4062673118    1.4276411345   -1.3542945071
H        0.7824392374    1.0514729703   -0.0819866210
H        1.7020215162    0.7773466924   -2.4066561717
O       -0.6784452464   -0.3883704729   -0.3959347158
C       -2.3665865351   -1.1810588394    1.0325207710
H       -3.0458087513   -0.8532297096    1.8178725741
H       -2.9342699984   -1.5748418960    0.1857639995
H       -1.7225145584   -1.9819063138    1.4046270501
O       -1.5730511352    1.0986741653    1.0231862026
H        0.5078300706   -0.4764440119   -2.7269476219
C        2.0915527804   -1.0448562020   -1.3631982181
O        2.4715895196   -1.9504925740   -2.1500995982
O        2.4728232479   -0.8923432441   -0.1756195532
O        3.7787661804    2.2239690468   -0.2960481101
H        3.3677747961    1.3523399108   -0.2601047289
$end

$rem
jobtype               freq
method                wb97x-v
basis                 def2-tzvpd
symmetry              off
sym_ignore            true
incdft                false
incfock               0
!scf_algorithm        diis_gdm
scf_convergence       8
thresh                14
!purecart             112
max_scf_cycles        1000
geom_opt_max_cycles   500
geom_opt_dmax         100
geom_opt_tol_gradient 10
solvent_method        pcm
ideriv                1
rpath_tol_displacement 1000
rpath_max_cycles      100
rpath_direction       1
!scf_guess            read
scf_guess             read
$end

$pcm
theory              cosmo
method              iswig
Radii               bondi
vdwScale            1.20
hpoints             110
heavypoints         110
$end

$solvent
dielectric 78.400000
$end

--------------------------------------------------------------
 ----------------------------------------------------------------
             Standard Nuclear Orientation (Angstroms)
    I     Atom           X                Y                Z
 ----------------------------------------------------------------
    1      C      -1.5178854514    -0.0283642891     0.5759557695
    2      C       0.2057517228     0.6374386224    -0.9106966901
    3      C       1.1033299788    -0.0121614035    -1.9357972493
    4      H      -0.4062673118     1.4276411345    -1.3542945071
    5      H       0.7824392374     1.0514729703    -0.0819866210
    6      H       1.7020215162     0.7773466924    -2.4066561717
    7      O      -0.6784452464    -0.3883704729    -0.3959347158
    8      C      -2.3665865351    -1.1810588394     1.0325207710
    9      H      -3.0458087513    -0.8532297096     1.8178725741
   10      H      -2.9342699984    -1.5748418960     0.1857639995
   11      H      -1.7225145584    -1.9819063138     1.4046270501
   12      O      -1.5730511352     1.0986741653     1.0231862026
   13      H       0.5078300706    -0.4764440119    -2.7269476219
   14      C       2.0915527804    -1.0448562020    -1.3631982181
   15      O       2.4715895196    -1.9504925740    -2.1500995982
   16      O       2.4728232479    -0.8923432441    -0.1756195532
   17      O       3.7787661804     2.2239690468    -0.2960481101
   18      H       3.3677747961     1.3523399108    -0.2601047289
 ----------------------------------------------------------------
 Nuclear Repulsion Energy =   520.5238440555 hartrees
 There are       40 alpha and       40 beta electrons
 Requested basis set is def2-TZVPD
 There are 175 shells and 457 basis functions

 Total QAlloc Memory Limit   8000 MB
 Mega-Array Size      1956 MB
 MEM_STATIC part      2000 MB
 Discretize the solute cavity surface with Lebedev spheres
	Using 110 Lebedev grid points for each H atom
	Using 110 Lebedev grid points for other atoms
	Atomic van der Waals radii will be scaled by 1.20
 Remove points where switching function is < 1.0e-08
 Keep 1140 surface tesserae and discard 840 interior tesserae
 Molecular Surface Area = 210.604 Angst**2
 A cutoff of  1.0D-14 yielded  13742 shell pairs
 There are     94074 function pairs (    119653 Cartesian)
 
 -------------------------------------------------------
 OpenMP Integral Computing Module                       
 Release: version 1.0, May 2013, Q-Chem Inc. Pittsburgh 
 -------------------------------------------------------
 Integral Job Info:
 Integral job number is                      11
 Integral operator is                         1
 short-range coefficients              16700000
 long-range coefficients              100000000
 Omega coefficients                         300
 if combine SR and LR in K                    1
 Integral screening is                        0
 Integral computing path is                   2
 max size of driver memory is            800000
 size of driver memory is                776718
 size of scratch memory is              4473992
 max col of scratch BK array              10000
 max len of scratch array in speh3          662
 max len of scratch index in speh4           32
 max int batch size is                      520
 min int batch size is                       52
 fixed nKL is                                52
 max L of basis functions is                  3
 order of int derivative is                   0
 number of shells is                        175
 number of basis is                         517
 number of cartesian basis is               517
 number of contracted shell pairs         13742
 number of primitive shell pairs          27547
 maxK2 (contraction) of shell pair           36
 max number of K2 of shell pair               1
 max number of CS2 of shell pair           2304
 max number of PS2 of shell pair           3168
 mem total for path MDJ                  771976
 -------------------------------------------------------
 Smallest overlap matrix eigenvalue = 4.18E-06
 Guess MOs from SCF MO coefficient file
 Reading MOs from coefficient file
 Reading MOs from coefficient file
 Long-range K will be added via erf
 Coulomb attenuation parameter = 0.3 bohr**(-1)
 A restricted hybrid HF-DFT SCF calculation will be
 performed using Pulay DIIS extrapolation
 Polarizable Continuum solvation model will be applied
 Exchange:     0.1670 Hartree-Fock + 1.0000 wB97X-V + LR-HF
 Correlation:  1.0000 wB97X-V
 Using SG-2 standard quadrature grid
 Nonlocal Correlation:  VV10 with C = 0.0100 and b = 6.00
 Grid used for NLC:  SG-1 standard quadrature
 SCF converges when DIIS error is below 1.0E-08
Using Q-Chem read-in guess as SCF_GUESS READ specified.

 using 16 threads for integral computing
 -------------------------------------------------------
 OpenMP Integral computing Module                
 Release: version 1.0, May 2013, Q-Chem Inc. Pittsburgh 
 -------------------------------------------------------
 using 16 threads for integral computing
 -------------------------------------------------------
 OpenMP Integral computing Module                
 Release: version 1.0, May 2013, Q-Chem Inc. Pittsburgh 
 -------------------------------------------------------
 -------------------------------------------------------
 OpenMP BLAS3 based DFT computing Module                
 Release: version 1.0, May 2013, Q-Chem Inc. Pittsburgh 
 -------------------------------------------------------
 -------------------------------------------------------
 OpenMP BLAS3 based DFT computing Module                
 Release: version 1.0, May 2013, Q-Chem Inc. Pittsburgh 
 -------------------------------------------------------
 -------------------------------------------------------
 OpenMP BLAS3 based DFT computing Module                
 Release: version 1.0, May 2013, Q-Chem Inc. Pittsburgh 
 -------------------------------------------------------
 ---------------------------------------
  Cycle       Energy         DIIS Error
 ---------------------------------------
    1    -571.4526271380      4.87E-04
    2    -571.7989169463      5.44E-04
    3    -571.8097732126      2.58E-04
    4    -571.8115708258      1.81E-04
    5    -571.8127502942      1.36E-04
    6    -571.8133625499      1.05E-04
    7    -571.8137713649      7.92E-05
    8    -571.8140014556      5.93E-05
    9    -571.8141301555      4.45E-05
   10    -571.8142068076      3.27E-05
   11    -571.8142405594      2.57E-05
   12    -571.8142645369      1.93E-05
   13    -571.8142756480      1.55E-05
   14    -571.8142829191      1.24E-05
   15    -571.8142874597      9.92E-06
   16    -571.8142911151      7.38E-06
   17    -571.8142956476      9.88E-09 Convergence criterion met
 ---------------------------------------

************** Final PCM Free Energy Summary **************
 G_electrostatic  =      -0.36167030 hartree =    -226.95153685 kcal/mol
 G_cavitation     =       0.00000000 hartree =       0.00000000 kcal/mol
 G_dispersion     =       0.00000000 hartree =       0.00000000 kcal/mol
 G_repulsion      =       0.00000000 hartree =       0.00000000 kcal/mol
 --------------------------------------------------
 Non-electrostatic Free Energy =       0.00000000 hartree =       0.00000000 kcal/mol
 Total                         =      -0.36167030 hartree =    -226.95153685 kcal/mol
 --------------------------------------------------
 SCF Energy (H0 + V/2)                       =    -571.81429565 
 Solute Internal Energy (H0)                 =    -571.45262535 
 Total Free Energy (H0 + V/2 + non-elec)     =    -571.81429565 hartree
                                             = -358818.88617205 kcal/mol
***********************************************************

 SCF time:  CPU 3938.33 s  wall 283.80 s
 SCF   energy in the final basis set = -571.81429565
 Total energy in the final basis set = -571.81429565
 
 --------------------------------------------------------------
 
                    Orbital Energies (a.u.)
 --------------------------------------------------------------
 
 Alpha MOs
 -- Occupied --
-19.255 -19.200 -19.142 -19.141 -19.088 -10.402 -10.344 -10.314
-10.268 -10.255  -1.240  -1.149  -1.144  -1.053  -0.960  -0.915
 -0.866  -0.768  -0.686  -0.625  -0.610  -0.601  -0.582  -0.554
 -0.537  -0.526  -0.511  -0.509  -0.486  -0.469  -0.457  -0.447
 -0.441  -0.411  -0.388  -0.349  -0.339  -0.333  -0.309  -0.308
 -- Virtual --
  0.058   0.073   0.080   0.085   0.097   0.101   0.103   0.113
  0.118   0.123   0.131   0.135   0.138   0.147   0.153   0.160
  0.164   0.170   0.174   0.186   0.190   0.195   0.204   0.208
  0.215   0.219   0.232   0.235   0.237   0.252   0.259   0.269
  0.271   0.276   0.287   0.290   0.296   0.305   0.311   0.316
  0.321   0.329   0.334   0.338   0.344   0.351   0.358   0.359
  0.364   0.369   0.375   0.381   0.388   0.389   0.396   0.400
  0.404   0.414   0.418   0.424   0.425   0.427   0.438   0.440
  0.445   0.448   0.456   0.466   0.466   0.470   0.472   0.483
  0.493   0.496   0.500   0.507   0.516   0.521   0.526   0.528
  0.536   0.541   0.544   0.550   0.556   0.561   0.566   0.572
  0.579   0.586   0.592   0.594   0.603   0.612   0.622   0.630
  0.636   0.638   0.644   0.658   0.666   0.669   0.671   0.679
  0.680   0.698   0.701   0.715   0.719   0.732   0.736   0.738
  0.746   0.756   0.758   0.771   0.774   0.779   0.783   0.796
  0.797   0.807   0.810   0.817   0.820   0.829   0.831   0.832
  0.840   0.857   0.858   0.864   0.880   0.884   0.900   0.906
  0.917   0.920   0.929   0.945   0.954   0.976   0.988   0.999
  1.012   1.022   1.033   1.035   1.051   1.064   1.073   1.083
  1.092   1.100   1.115   1.135   1.159   1.165   1.186   1.190
  1.198   1.207   1.231   1.243   1.264   1.276   1.293   1.302
  1.325   1.333   1.341   1.344   1.367   1.378   1.395   1.397
  1.409   1.413   1.424   1.459   1.468   1.499   1.522   1.547
  1.551   1.600   1.627   1.664   1.719   1.722   1.729   1.766
  1.785   1.835   1.852   1.889   1.891   1.900   1.910   1.917
  1.923   1.937   1.956   1.960   1.970   1.977   1.988   1.991
  1.998   2.017   2.038   2.043   2.070   2.083   2.109   2.116
  2.123   2.155   2.188   2.195   2.207   2.232   2.242   2.255
  2.263   2.288   2.302   2.327   2.333   2.356   2.379   2.388
  2.401   2.444   2.450   2.473   2.490   2.510   2.518   2.535
  2.545   2.562   2.571   2.610   2.622   2.632   2.661   2.671
  2.688   2.718   2.758   2.765   2.770   2.815   2.839   2.846
  2.872   2.890   2.903   2.929   2.945   2.975   2.980   2.987
  3.003   3.013   3.046   3.085   3.095   3.114   3.118   3.153
  3.182   3.210   3.220   3.235   3.260   3.270   3.284   3.312
  3.323   3.327   3.343   3.350   3.375   3.396   3.418   3.435
  3.446   3.462   3.474   3.481   3.500   3.514   3.522   3.548
  3.554   3.574   3.579   3.592   3.601   3.620   3.632   3.640
  3.651   3.677   3.695   3.705   3.712   3.728   3.746   3.759
  3.773   3.790   3.801   3.838   3.916   3.955   3.988   4.030
  4.085   4.102   4.103   4.115   4.144   4.160   4.201   4.279
  4.330   4.362   4.382   4.400   4.561   4.578   4.639   4.670
  4.686   4.762   4.796   4.812   4.830   4.873   4.909   5.023
  5.036   5.097   5.156   5.289   5.324   5.350   5.352   5.354
  5.361   5.371   5.377   5.378   5.390   5.432   5.509   5.589
  5.662   5.675   5.682   5.716   5.719   5.764   5.778   5.855
  6.007   6.059   6.149   6.262   6.306   6.323   6.335   6.345
  6.451   6.469   6.622   6.629   6.634   6.639   6.650   6.658
  6.702   6.723   6.729   6.737   6.776   6.794   6.825   6.916
  6.954   6.974   7.007   7.053   7.074   7.078   7.230   7.247
  7.301   7.373   7.384   7.405   7.419   7.552   7.643  22.628
 22.822  22.842  23.645  23.749  44.002  44.337  44.361  44.462
 44.620
 --------------------------------------------------------------
 
          Ground-State Mulliken Net Atomic Charges

     Atom                 Charge (a.u.)
  ----------------------------------------
      1 C                     0.455566
      2 C                    -0.275657
      3 C                    -0.082086
      4 H                     0.310871
      5 H                     0.169586
      6 H                     0.231272
      7 O                    -0.183582
      8 C                    -0.732337
      9 H                     0.237420
     10 H                     0.242697
     11 H                     0.242477
     12 O                    -0.534143
     13 H                     0.232171
     14 C                     0.126915
     15 O                    -0.721353
     16 O                    -0.683296
     17 O                    -1.125394
     18 H                     0.088873
  ----------------------------------------
  Sum of atomic charges =    -2.000000

 -----------------------------------------------------------------
                    Cartesian Multipole Moments
 -----------------------------------------------------------------
    Charge (ESU x 10^10)
                -9.6064
    Dipole Moment (Debye)
         X     -30.7623      Y      -6.2336      Z       4.7977
       Tot      31.7521
    Quadrupole Moments (Debye-Ang)
        XX    -170.2526     XY     -18.1928     YY    -109.3564
        XZ      19.7136     YZ     -14.8960     ZZ     -77.5962
    Octopole Moments (Debye-Ang^2)
       XXX    -538.0518    XXY    -127.4762    XYY    -191.3467
       YYY     -28.6921    XXZ      86.5767    XYZ     -13.4705
       YYZ      63.3067    XZZ     -85.5361    YZZ      27.9389
       ZZZ     118.8006
    Hexadecapole Moments (Debye-Ang^3)
      XXXX   -3344.3646   XXXY    -598.8285   XXYY    -950.9191
      XYYY    -246.4539   YYYY    -910.6401   XXXZ     506.8061
      XXYZ     -71.8427   XYYZ     216.4166   YYYZ    -121.3635
      XXZZ    -535.3960   XYZZ      43.3614   YYZZ    -294.4653
      XZZZ     412.4045   YZZZ    -148.8251   ZZZZ    -712.1451
 -----------------------------------------------------------------
 Calculating analytic gradient of the SCF energy
 Gradient of SCF Energy
            1           2           3           4           5           6
    1   0.0190639   0.0521665  -0.0394462   0.0437331  -0.0519279  -0.0480371
    2   0.0460514   0.0256905   0.0386466  -0.0474151  -0.0260305  -0.0543212
    3  -0.0127293   0.0284218  -0.0709790   0.0222761  -0.0530168   0.0267819
            7           8           9          10          11          12
    1  -0.0139895  -0.0289278   0.0334808   0.0227534  -0.0319949   0.0018715
    2   0.0019286  -0.0218261  -0.0168534   0.0178235   0.0386132  -0.0552758
    3   0.0143651   0.0304033  -0.0380489   0.0354202  -0.0164847  -0.0139815
           13          14          15          16          17          18
    1   0.0328794   0.0436082  -0.0182997  -0.0201073  -0.0551205   0.0582942
    2   0.0280534  -0.0281785   0.0538003  -0.0053044  -0.0865777   0.0911752
    3   0.0398963   0.0389009   0.0301197  -0.0589052  -0.0138776   0.0114377
 Max gradient component =       9.118E-02
 RMS gradient           =       3.936E-02
 Computing fast CPCM-ISWIG gradient
 Updating gradient with PCM contributions...
 -- total gradient after adding PCM contribution --
---------------------------------------------------
  Atom         X              Y              Z     
---------------------------------------------------
   1       0.000005      -0.000003      -0.000005
   2       0.000006       0.000006      -0.000004
   3      -0.000003      -0.000004       0.000005
   4      -0.000000      -0.000001       0.000001
   5      -0.000000      -0.000001      -0.000000
   6       0.000001       0.000001      -0.000001
   7      -0.000005      -0.000003       0.000005
   8      -0.000000      -0.000001       0.000000
   9      -0.000000      -0.000000       0.000000
  10      -0.000001       0.000000       0.000000
  11      -0.000000       0.000001      -0.000000
  12      -0.000002       0.000003       0.000001
  13       0.000000       0.000001      -0.000001
  14      -0.000000       0.000002       0.000001
  15       0.000001      -0.000001      -0.000001
  16      -0.000002       0.000000      -0.000002
  17       0.000001       0.000002       0.000000
  18      -0.000000      -0.000001       0.000000
---------------------------------------------------
 Number of fixed atoms: 0
 Gradient time:  CPU 804.82 s  wall 59.15 s
 ######################################################
 ######################################################
 # Starting finite difference calculation for IDERIV  #
 Finite diff step size:  1.88973e-03 a.u.
 ----------------------------------------------------------------
             Standard Nuclear Orientation (Angstroms)
    I     Atom           X                Y                Z
 ----------------------------------------------------------------
    1      C      -1.5168854514    -0.0283642891     0.5759557695
    2      C       0.2057517228     0.6374386224    -0.9106966901
    3      C       1.1033299788    -0.0121614035    -1.9357972493
    4      H      -0.4062673118     1.4276411345    -1.3542945071
    5      H       0.7824392374     1.0514729703    -0.0819866210
    6      H       1.7020215162     0.7773466924    -2.4066561717
    7      O      -0.6784452464    -0.3883704729    -0.3959347158
    8      C      -2.3665865351    -1.1810588394     1.0325207710
    9      H      -3.0458087513    -0.8532297096     1.8178725741
   10      H      -2.9342699984    -1.5748418960     0.1857639995
   11      H      -1.7225145584    -1.9819063138     1.4046270501
   12      O      -1.5730511352     1.0986741653     1.0231862026
   13      H       0.5078300706    -0.4764440119    -2.7269476219
   14      C       2.0915527804    -1.0448562020    -1.3631982181
   15      O       2.4715895196    -1.9504925740    -2.1500995982
   16      O       2.4728232479    -0.8923432441    -0.1756195532
   17      O       3.7787661804     2.2239690468    -0.2960481101
   18      H       3.3677747961     1.3523399108    -0.2601047289
 ----------------------------------------------------------------
 Nuclear Repulsion Energy =   520.5344136541 hartrees
 There are       40 alpha and       40 beta electrons
 Discretize the solute cavity surface with Lebedev spheres
	Using 110 Lebedev grid points for each H atom
	Using 110 Lebedev grid points for other atoms
	Atomic van der Waals radii will be scaled by 1.20
 Remove points where switching function is < 1.0e-08
 Keep 1140 surface tesserae and discard 840 interior tesserae
 Molecular Surface Area = 210.607 Angst**2
 Requested basis set is def2-TZVPD
 There are 175 shells and 457 basis functions
 A cutoff of  1.0D-14 yielded  13742 shell pairs
 There are     94074 function pairs (    119653 Cartesian)
 Smallest overlap matrix eigenvalue = 4.18E-06
 Guess MOs from SCF MO coefficient file
 Reading MOs from coefficient file
 Reading MOs from coefficient file
 Long-range K will be added via erf
 Coulomb attenuation parameter = 0.3 bohr**(-1)
 A restricted hybrid HF-DFT SCF calculation will be
 performed using Pulay DIIS extrapolation
 Polarizable Continuum solvation model will be applied
 Exchange:     0.1670 Hartree-Fock + 1.0000 wB97X-V + LR-HF
 Correlation:  1.0000 wB97X-V
 Using SG-2 standard quadrature grid
 Nonlocal Correlation:  VV10 with C = 0.0100 and b = 6.00
 Grid used for NLC:  SG-1 standard quadrature
 SCF converges when DIIS error is below 1.0E-08
Using Q-Chem read-in guess as SCF_GUESS READ specified.

 using 16 threads for integral computing
 -------------------------------------------------------
 OpenMP Integral computing Module                
 Release: version 1.0, May 2013, Q-Chem Inc. Pittsburgh 
 -------------------------------------------------------
 using 16 threads for integral computing
 -------------------------------------------------------
 OpenMP Integral computing Module                
 Release: version 1.0, May 2013, Q-Chem Inc. Pittsburgh 
 -------------------------------------------------------
 -------------------------------------------------------
 OpenMP BLAS3 based DFT computing Module                
 Release: version 1.0, May 2013, Q-Chem Inc. Pittsburgh 
 -------------------------------------------------------
 -------------------------------------------------------
 OpenMP BLAS3 based DFT computing Module                
 Release: version 1.0, May 2013, Q-Chem Inc. Pittsburgh 
 -------------------------------------------------------
 -------------------------------------------------------
 OpenMP BLAS3 based DFT computing Module                
 Release: version 1.0, May 2013, Q-Chem Inc. Pittsburgh 
 -------------------------------------------------------
 ---------------------------------------
  Cycle       Energy         DIIS Error
 ---------------------------------------
    1    -571.4532823742      4.87E-04
    2    -571.7989239754      5.44E-04
    3    -571.8097783186      2.58E-04
    4    -571.8115755814      1.81E-04
    5    -571.8127589708      1.36E-04
    6    -571.8133803132      1.04E-04
    7    -571.8138078917      7.63E-05
    8    -571.8140565183      5.34E-05
    9    -571.8142012117      3.35E-05
   10    -571.8142778676      1.43E-05
   11    -571.8142920624      5.84E-06
   12    -571.8142947106      1.40E-06
   13    -571.8142948624      3.34E-07
   14    -571.8142948711      6.13E-08
   15    -571.8142948714      2.86E-08
   16    -571.8142948714      6.50E-09 Convergence criterion met
 ---------------------------------------

************** Final PCM Free Energy Summary **************
 G_electrostatic  =      -0.36162455 hartree =    -226.92283232 kcal/mol
 G_cavitation     =       0.00000000 hartree =       0.00000000 kcal/mol
 G_dispersion     =       0.00000000 hartree =       0.00000000 kcal/mol
 G_repulsion      =       0.00000000 hartree =       0.00000000 kcal/mol
 --------------------------------------------------
 Non-electrostatic Free Energy =       0.00000000 hartree =       0.00000000 kcal/mol
 Total                         =      -0.36162455 hartree =    -226.92283232 kcal/mol
 --------------------------------------------------
 SCF Energy (H0 + V/2)                       =    -571.81429487 
 Solute Internal Energy (H0)                 =    -571.45267032 
 Total Free Energy (H0 + V/2 + non-elec)     =    -571.81429487 hartree
                                             = -358818.88568501 kcal/mol
***********************************************************

 SCF time:  CPU 3707.48 s  wall 267.36 s
 SCF   energy in the final basis set = -571.81429487
 Total energy in the final basis set = -571.81429487
 
 --------------------------------------------------------------
 
                    Orbital Energies (a.u.)
 --------------------------------------------------------------
 
 Alpha MOs
 -- Occupied --
-19.255 -19.200 -19.142 -19.141 -19.088 -10.402 -10.344 -10.314
-10.268 -10.255  -1.240  -1.149  -1.144  -1.053  -0.960  -0.915
 -0.866  -0.768  -0.686  -0.625  -0.610  -0.601  -0.582  -0.554
 -0.537  -0.526  -0.511  -0.509  -0.486  -0.469  -0.457  -0.447
 -0.441  -0.411  -0.388  -0.349  -0.339  -0.333  -0.309  -0.308
 -- Virtual --
  0.058   0.073   0.080   0.085   0.097   0.101   0.103   0.113
  0.118   0.123   0.131   0.135   0.138   0.147   0.153   0.160
  0.164   0.170   0.174   0.186   0.190   0.195   0.204   0.208
  0.215   0.219   0.232   0.235   0.237   0.252   0.259   0.269
  0.271   0.276   0.287   0.290   0.296   0.305   0.311   0.316
  0.321   0.328   0.334   0.338   0.344   0.351   0.358   0.359
  0.364   0.369   0.375   0.381   0.388   0.389   0.396   0.400
  0.404   0.414   0.418   0.424   0.424   0.427   0.438   0.440
  0.445   0.448   0.456   0.466   0.466   0.470   0.472   0.483
  0.493   0.496   0.500   0.507   0.516   0.521   0.526   0.528
  0.536   0.541   0.544   0.550   0.556   0.561   0.566   0.572
  0.579   0.586   0.592   0.594   0.603   0.612   0.622   0.630
  0.636   0.638   0.644   0.658   0.666   0.669   0.671   0.679
  0.680   0.698   0.701   0.715   0.719   0.732   0.737   0.738
  0.746   0.756   0.758   0.771   0.774   0.779   0.783   0.796
  0.797   0.807   0.810   0.817   0.820   0.829   0.831   0.832
  0.840   0.857   0.859   0.864   0.880   0.884   0.900   0.906
  0.917   0.920   0.929   0.945   0.954   0.976   0.988   0.999
  1.012   1.022   1.033   1.035   1.051   1.064   1.073   1.083
  1.092   1.100   1.115   1.135   1.159   1.165   1.186   1.190
  1.198   1.206   1.231   1.243   1.264   1.276   1.293   1.302
  1.324   1.333   1.341   1.344   1.367   1.378   1.395   1.397
  1.409   1.413   1.424   1.459   1.468   1.499   1.522   1.547
  1.551   1.600   1.627   1.664   1.719   1.722   1.729   1.766
  1.785   1.835   1.852   1.889   1.891   1.900   1.910   1.917
  1.923   1.937   1.956   1.960   1.970   1.977   1.988   1.991
  1.998   2.017   2.038   2.043   2.070   2.083   2.109   2.116
  2.123   2.155   2.188   2.195   2.207   2.232   2.242   2.255
  2.263   2.288   2.302   2.327   2.333   2.356   2.379   2.388
  2.401   2.444   2.450   2.473   2.490   2.510   2.518   2.534
  2.545   2.562   2.571   2.610   2.621   2.632   2.661   2.671
  2.688   2.718   2.758   2.765   2.770   2.815   2.839   2.846
  2.872   2.890   2.903   2.929   2.945   2.975   2.980   2.987
  3.003   3.013   3.046   3.085   3.095   3.114   3.118   3.153
  3.182   3.210   3.220   3.235   3.260   3.270   3.284   3.312
  3.323   3.328   3.343   3.350   3.375   3.396   3.418   3.435
  3.446   3.462   3.474   3.481   3.500   3.514   3.523   3.548
  3.554   3.574   3.579   3.592   3.601   3.621   3.632   3.640
  3.651   3.677   3.695   3.705   3.712   3.728   3.746   3.759
  3.773   3.790   3.801   3.838   3.916   3.955   3.988   4.030
  4.085   4.101   4.103   4.115   4.144   4.160   4.201   4.279
  4.330   4.362   4.382   4.400   4.561   4.578   4.639   4.670
  4.686   4.762   4.796   4.812   4.830   4.873   4.910   5.023
  5.036   5.097   5.156   5.289   5.324   5.350   5.352   5.354
  5.361   5.371   5.377   5.378   5.390   5.433   5.509   5.589
  5.661   5.675   5.682   5.716   5.719   5.764   5.778   5.855
  6.007   6.060   6.150   6.262   6.306   6.323   6.335   6.345
  6.451   6.468   6.622   6.629   6.634   6.639   6.650   6.658
  6.702   6.723   6.729   6.737   6.776   6.794   6.825   6.916
  6.954   6.974   7.007   7.053   7.074   7.078   7.230   7.247
  7.301   7.373   7.384   7.405   7.419   7.552   7.643  22.627
 22.822  22.842  23.647  23.749  44.002  44.337  44.361  44.462
 44.620
 --------------------------------------------------------------
 
          Ground-State Mulliken Net Atomic Charges

     Atom                 Charge (a.u.)
  ----------------------------------------
      1 C                     0.455797
      2 C                    -0.275665
      3 C                    -0.082173
      4 H                     0.311015
      5 H                     0.169683
      6 H                     0.231281
      7 O                    -0.183476
      8 C                    -0.732651
      9 H                     0.237400
     10 H                     0.242732
     11 H                     0.242370
     12 O                    -0.534274
     13 H                     0.232179
     14 C                     0.126931
     15 O                    -0.721345
     16 O                    -0.683289
     17 O                    -1.125390
     18 H                     0.088875
  ----------------------------------------
  Sum of atomic charges =    -2.000000

 -----------------------------------------------------------------
                    Cartesian Multipole Moments
 -----------------------------------------------------------------
    Charge (ESU x 10^10)
                -9.6064
    Dipole Moment (Debye)
         X     -30.7557      Y      -6.2330      Z       4.7931
       Tot      31.7449
    Quadrupole Moments (Debye-Ang)
        XX    -170.2666     XY     -18.1959     YY    -109.3599
        XZ      19.7199     YZ     -14.8941     ZZ     -77.5971
    Octopole Moments (Debye-Ang^2)
       XXX    -538.0179    XXY    -127.4678    XYY    -191.3370
       YYY     -28.6831    XXZ      86.5595    XYZ     -13.4752
       YYZ      63.2943    XZZ     -85.5297    YZZ      27.9422
       ZZZ     118.7811
    Hexadecapole Moments (Debye-Ang^3)
      XXXX   -3344.3655   XXXY    -598.8562   XXYY    -950.9223
      XYYY    -246.4788   YYYY    -910.6685   XXXZ     506.8245
      XXYZ     -71.8294   XYYZ     216.4260   YYYZ    -121.3488
      XXZZ    -535.3949   XYZZ      43.3503   YYZZ    -294.4728
      XZZZ     412.4115   YZZZ    -148.8152   ZZZZ    -712.1445
 -----------------------------------------------------------------
 Calculating analytic gradient of the SCF energy
 Gradient of SCF Energy
            1           2           3           4           5           6
    1   0.0196562   0.0521132  -0.0394443   0.0437393  -0.0519434  -0.0480357
    2   0.0462604   0.0256459   0.0386483  -0.0473927  -0.0260363  -0.0543181
    3  -0.0131571   0.0284647  -0.0709703   0.0222631  -0.0530054   0.0267800
            7           8           9          10          11          12
    1  -0.0142668  -0.0291094   0.0334765   0.0227411  -0.0319790   0.0017933
    2   0.0019584  -0.0220199  -0.0168805   0.0178110   0.0386513  -0.0552835
    3   0.0146011   0.0305508  -0.0380643   0.0354341  -0.0165090  -0.0139510
           13          14          15          16          17          18
    1   0.0328760   0.0436029  -0.0182957  -0.0200984  -0.0551154   0.0582897
    2   0.0280457  -0.0281751   0.0537915  -0.0053057  -0.0865669   0.0911661
    3   0.0398847   0.0388961   0.0301160  -0.0588955  -0.0138737   0.0114356
 Max gradient component =       9.117E-02
 RMS gradient           =       3.938E-02
 Computing fast CPCM-ISWIG gradient
 Updating gradient with PCM contributions...
 -- total gradient after adding PCM contribution --
---------------------------------------------------
  Atom         X              Y              Z     
---------------------------------------------------
   1       0.000817       0.000141      -0.000312
   2      -0.000063      -0.000013       0.000057
   3      -0.000003      -0.000006       0.000007
   4       0.000005       0.000007      -0.000004
   5       0.000005       0.000005       0.000000
   6       0.000002       0.000001      -0.000001
   7      -0.000318       0.000007       0.000190
   8      -0.000252      -0.000106       0.000040
   9      -0.000022      -0.000030       0.000006
  10      -0.000019      -0.000025       0.000014
  11       0.000029       0.000036      -0.000016
  12      -0.000183      -0.000019       0.000022
  13       0.000001       0.000000      -0.000001
  14      -0.000005       0.000008       0.000001
  15       0.000003      -0.000005      -0.000002
  16       0.000003      -0.000002      -0.000002
  17       0.000002       0.000002       0.000000
  18      -0.000000      -0.000001       0.000000
---------------------------------------------------
 Number of fixed atoms: 0
 Gradient time:  CPU 815.55 s  wall 59.67 s
 ----------------------------------------------------------------
             Standard Nuclear Orientation (Angstroms)
    I     Atom           X                Y                Z
 ----------------------------------------------------------------
    1      C      -1.5188854514    -0.0283642891     0.5759557695
    2      C       0.2057517228     0.6374386224    -0.9106966901
    3      C       1.1033299788    -0.0121614035    -1.9357972493
    4      H      -0.4062673118     1.4276411345    -1.3542945071
    5      H       0.7824392374     1.0514729703    -0.0819866210
    6      H       1.7020215162     0.7773466924    -2.4066561717
    7      O      -0.6784452464    -0.3883704729    -0.3959347158
    8      C      -2.3665865351    -1.1810588394     1.0325207710
    9      H      -3.0458087513    -0.8532297096     1.8178725741
   10      H      -2.9342699984    -1.5748418960     0.1857639995
   11      H      -1.7225145584    -1.9819063138     1.4046270501
   12      O      -1.5730511352     1.0986741653     1.0231862026
   13      H       0.5078300706    -0.4764440119    -2.7269476219
   14      C       2.0915527804    -1.0448562020    -1.3631982181
   15      O       2.4715895196    -1.9504925740    -2.1500995982
   16      O       2.4728232479    -0.8923432441    -0.1756195532
   17      O       3.7787661804     2.2239690468    -0.2960481101
   18      H       3.3677747961     1.3523399108    -0.2601047289
 ----------------------------------------------------------------
 Nuclear Repulsion Energy =   520.5132645977 hartrees
 There are       40 alpha and       40 beta electrons
 Discretize the solute cavity surface with Lebedev spheres
	Using 110 Lebedev grid points for each H atom
	Using 110 Lebedev grid points for other atoms
	Atomic van der Waals radii will be scaled by 1.20
 Remove points where switching function is < 1.0e-08
 Keep 1140 surface tesserae and discard 840 interior tesserae
 Molecular Surface Area = 210.602 Angst**2
 Requested basis set is def2-TZVPD
 There are 175 shells and 457 basis functions
 A cutoff of  1.0D-14 yielded  13742 shell pairs
 There are     94074 function pairs (    119653 Cartesian)
 Smallest overlap matrix eigenvalue = 4.18E-06
 Guess MOs from SCF MO coefficient file
 Reading MOs from coefficient file
 Reading MOs from coefficient file
 Long-range K will be added via erf
 Coulomb attenuation parameter = 0.3 bohr**(-1)
 A restricted hybrid HF-DFT SCF calculation will be
 performed using Pulay DIIS extrapolation
 Polarizable Continuum solvation model will be applied
 Exchange:     0.1670 Hartree-Fock + 1.0000 wB97X-V + LR-HF
 Correlation:  1.0000 wB97X-V
 Using SG-2 standard quadrature grid
 Nonlocal Correlation:  VV10 with C = 0.0100 and b = 6.00
 Grid used for NLC:  SG-1 standard quadrature
 SCF converges when DIIS error is below 1.0E-08
Using Q-Chem read-in guess as SCF_GUESS READ specified.

 using 16 threads for integral computing
 -------------------------------------------------------
 OpenMP Integral computing Module                
 Release: version 1.0, May 2013, Q-Chem Inc. Pittsburgh 
 -------------------------------------------------------
 using 16 threads for integral computing
 -------------------------------------------------------
 OpenMP Integral computing Module                
 Release: version 1.0, May 2013, Q-Chem Inc. Pittsburgh 
 -------------------------------------------------------
 -------------------------------------------------------
 OpenMP BLAS3 based DFT computing Module                
 Release: version 1.0, May 2013, Q-Chem Inc. Pittsburgh 
 -------------------------------------------------------
 -------------------------------------------------------
 OpenMP BLAS3 based DFT computing Module                
 Release: version 1.0, May 2013, Q-Chem Inc. Pittsburgh 
 -------------------------------------------------------
 -------------------------------------------------------
 OpenMP BLAS3 based DFT computing Module                
 Release: version 1.0, May 2013, Q-Chem Inc. Pittsburgh 
 -------------------------------------------------------
 ---------------------------------------
  Cycle       Energy         DIIS Error
 ---------------------------------------
    1    -571.4513543341      4.87E-04
    2    -571.7989071699      5.44E-04
    3    -571.8097690276      2.58E-04
    4    -571.8115698898      1.81E-04
    5    -571.8127639089      1.35E-04
    6    -571.8134233006      1.02E-04
    7    -571.8138870875      6.98E-05
    8    -571.8141500788      4.16E-05
    9    -571.8142675171      1.82E-05
   10    -571.8142936609      3.89E-06
   11    -571.8142947669      1.24E-06
   12    -571.8142948871      1.75E-07
   13    -571.8142948893      3.59E-08
   14    -571.8142948894      9.05E-09 Convergence criterion met
 ---------------------------------------

************** Final PCM Free Energy Summary **************
 G_electrostatic  =      -0.36171598 hartree =    -226.98020440 kcal/mol
 G_cavitation     =       0.00000000 hartree =       0.00000000 kcal/mol
 G_dispersion     =       0.00000000 hartree =       0.00000000 kcal/mol
 G_repulsion      =       0.00000000 hartree =       0.00000000 kcal/mol
 --------------------------------------------------
 Non-electrostatic Free Energy =       0.00000000 hartree =       0.00000000 kcal/mol
 Total                         =      -0.36171598 hartree =    -226.98020440 kcal/mol
 --------------------------------------------------
 SCF Energy (H0 + V/2)                       =    -571.81429489 
 Solute Internal Energy (H0)                 =    -571.45257891 
 Total Free Energy (H0 + V/2 + non-elec)     =    -571.81429489 hartree
                                             = -358818.88569628 kcal/mol
***********************************************************

 SCF time:  CPU 3248.40 s  wall 234.05 s
 SCF   energy in the final basis set = -571.81429489
 Total energy in the final basis set = -571.81429489
 
 --------------------------------------------------------------
 
                    Orbital Energies (a.u.)
 --------------------------------------------------------------
 
 Alpha MOs
 -- Occupied --
-19.255 -19.200 -19.142 -19.141 -19.088 -10.402 -10.344 -10.314
-10.268 -10.255  -1.239  -1.149  -1.144  -1.052  -0.960  -0.915
 -0.866  -0.768  -0.686  -0.625  -0.610  -0.601  -0.582  -0.554
 -0.537  -0.526  -0.511  -0.509  -0.486  -0.469  -0.457  -0.447
 -0.441  -0.410  -0.388  -0.349  -0.339  -0.333  -0.309  -0.308
 -- Virtual --
  0.058   0.073   0.080   0.085   0.097   0.101   0.103   0.113
  0.118   0.123   0.131   0.135   0.138   0.147   0.153   0.160
  0.164   0.170   0.174   0.186   0.190   0.195   0.204   0.208
  0.215   0.219   0.232   0.235   0.237   0.252   0.259   0.269
  0.271   0.276   0.287   0.290   0.296   0.305   0.311   0.315
  0.321   0.329   0.334   0.338   0.344   0.351   0.358   0.359
  0.364   0.369   0.375   0.381   0.388   0.389   0.396   0.400
  0.404   0.414   0.418   0.424   0.425   0.427   0.438   0.440
  0.445   0.448   0.456   0.466   0.466   0.470   0.472   0.483
  0.493   0.496   0.500   0.507   0.516   0.521   0.526   0.528
  0.536   0.541   0.544   0.550   0.556   0.561   0.566   0.572
  0.579   0.586   0.592   0.594   0.603   0.612   0.622   0.630
  0.636   0.638   0.644   0.658   0.666   0.669   0.671   0.679
  0.680   0.698   0.701   0.715   0.719   0.732   0.736   0.738
  0.746   0.756   0.758   0.771   0.775   0.779   0.783   0.796
  0.797   0.807   0.810   0.817   0.820   0.829   0.831   0.832
  0.840   0.857   0.858   0.864   0.880   0.884   0.900   0.906
  0.917   0.919   0.929   0.945   0.954   0.976   0.988   0.999
  1.012   1.022   1.033   1.035   1.051   1.064   1.073   1.083
  1.092   1.100   1.114   1.135   1.159   1.165   1.186   1.190
  1.198   1.207   1.231   1.243   1.264   1.276   1.293   1.303
  1.325   1.333   1.341   1.344   1.367   1.378   1.395   1.397
  1.408   1.413   1.424   1.459   1.468   1.500   1.522   1.547
  1.550   1.600   1.627   1.664   1.719   1.722   1.729   1.766
  1.785   1.835   1.852   1.889   1.891   1.900   1.910   1.917
  1.923   1.937   1.956   1.960   1.970   1.977   1.988   1.991
  1.998   2.017   2.038   2.043   2.070   2.083   2.109   2.116
  2.123   2.155   2.188   2.195   2.207   2.232   2.242   2.255
  2.263   2.288   2.302   2.327   2.333   2.356   2.379   2.388
  2.401   2.444   2.450   2.473   2.490   2.510   2.518   2.535
  2.545   2.562   2.571   2.610   2.622   2.632   2.661   2.671
  2.688   2.718   2.758   2.765   2.770   2.814   2.839   2.846
  2.872   2.890   2.903   2.929   2.945   2.975   2.980   2.987
  3.003   3.013   3.046   3.085   3.095   3.114   3.118   3.153
  3.182   3.210   3.220   3.235   3.260   3.270   3.284   3.312
  3.323   3.327   3.343   3.350   3.375   3.396   3.418   3.435
  3.446   3.462   3.474   3.481   3.500   3.514   3.522   3.547
  3.554   3.574   3.578   3.592   3.601   3.620   3.632   3.640
  3.652   3.677   3.695   3.705   3.712   3.728   3.746   3.759
  3.773   3.790   3.801   3.838   3.916   3.956   3.988   4.030
  4.086   4.102   4.103   4.115   4.144   4.160   4.201   4.279
  4.330   4.362   4.382   4.400   4.562   4.578   4.640   4.670
  4.686   4.762   4.797   4.812   4.830   4.873   4.909   5.023
  5.036   5.097   5.156   5.289   5.324   5.350   5.352   5.354
  5.361   5.371   5.377   5.378   5.390   5.432   5.509   5.588
  5.662   5.675   5.682   5.716   5.719   5.764   5.778   5.855
  6.007   6.059   6.148   6.262   6.306   6.323   6.335   6.345
  6.451   6.469   6.622   6.629   6.634   6.639   6.649   6.657
  6.702   6.723   6.729   6.737   6.776   6.794   6.825   6.915
  6.954   6.974   7.007   7.052   7.073   7.078   7.230   7.247
  7.301   7.373   7.384   7.405   7.419   7.552   7.643  22.628
 22.822  22.842  23.644  23.749  44.002  44.337  44.361  44.462
 44.620
 --------------------------------------------------------------
 
          Ground-State Mulliken Net Atomic Charges

     Atom                 Charge (a.u.)
  ----------------------------------------
      1 C                     0.455335
      2 C                    -0.275649
      3 C                    -0.081999
      4 H                     0.310728
      5 H                     0.169490
      6 H                     0.231264
      7 O                    -0.183691
      8 C                    -0.732020
      9 H                     0.237439
     10 H                     0.242661
     11 H                     0.242583
     12 O                    -0.534013
     13 H                     0.232163
     14 C                     0.126898
     15 O                    -0.721360
     16 O                    -0.683303
     17 O                    -1.125397
     18 H                     0.088869
  ----------------------------------------
  Sum of atomic charges =    -2.000000

 -----------------------------------------------------------------
                    Cartesian Multipole Moments
 -----------------------------------------------------------------
    Charge (ESU x 10^10)
                -9.6064
    Dipole Moment (Debye)
         X     -30.7689      Y      -6.2341      Z       4.8022
       Tot      31.7593
    Quadrupole Moments (Debye-Ang)
        XX    -170.2387     XY     -18.1897     YY    -109.3528
        XZ      19.7073     YZ     -14.8979     ZZ     -77.5953
    Octopole Moments (Debye-Ang^2)
       XXX    -538.0859    XXY    -127.4845    XYY    -191.3562
       YYY     -28.7009    XXZ      86.5939    XYZ     -13.4659
       YYZ      63.3190    XZZ     -85.5424    YZZ      27.9356
       ZZZ     118.8201
    Hexadecapole Moments (Debye-Ang^3)
      XXXX   -3344.3663   XXXY    -598.8010   XXYY    -950.9161
      XYYY    -246.4285   YYYY    -910.6115   XXXZ     506.7882
      XXYZ     -71.8560   XYYZ     216.4074   YYYZ    -121.3782
      XXZZ    -535.3972   XYZZ      43.3725   YYZZ    -294.4578
      XZZZ     412.3974   YZZZ    -148.8349   ZZZZ    -712.1456
 -----------------------------------------------------------------
 Calculating analytic gradient of the SCF energy
 Gradient of SCF Energy
            1           2           3           4           5           6
    1   0.0184723   0.0522195  -0.0394479   0.0437266  -0.0519123  -0.0480381
    2   0.0458400   0.0257346   0.0386445  -0.0474372  -0.0260248  -0.0543238
    3  -0.0123025   0.0283791  -0.0709874   0.0222888  -0.0530280   0.0267837
            7           8           9          10          11          12
    1  -0.0137134  -0.0287458   0.0334851   0.0227657  -0.0320107   0.0019498
    2   0.0018993  -0.0216315  -0.0168262   0.0178360   0.0385749  -0.0552669
    3   0.0141295   0.0302555  -0.0380333   0.0354063  -0.0164603  -0.0140116
           13          14          15          16          17          18
    1   0.0328829   0.0436139  -0.0183042  -0.0201164  -0.0551250   0.0582981
    2   0.0280612  -0.0281818   0.0538089  -0.0053029  -0.0865884   0.0911840
    3   0.0399078   0.0389056   0.0301233  -0.0589149  -0.0138813   0.0114397
 Max gradient component =       9.118E-02
 RMS gradient           =       3.934E-02
 Computing fast CPCM-ISWIG gradient
 Updating gradient with PCM contributions...
 -- total gradient after adding PCM contribution --
---------------------------------------------------
  Atom         X              Y              Z     
---------------------------------------------------
   1      -0.000807      -0.000149       0.000301
   2       0.000074       0.000025      -0.000065
   3      -0.000002      -0.000003       0.000002
   4      -0.000006      -0.000009       0.000005
   5      -0.000005      -0.000008       0.000000
   6      -0.000001       0.000000      -0.000001
   7       0.000307      -0.000012      -0.000178
   8       0.000252       0.000106      -0.000040
   9       0.000021       0.000029      -0.000006
  10       0.000018       0.000025      -0.000013
  11      -0.000029      -0.000035       0.000016
  12       0.000180       0.000026      -0.000019
  13      -0.000000       0.000001      -0.000001
  14       0.000004      -0.000003       0.000001
  15      -0.000002       0.000002       0.000000
  16      -0.000006       0.000003      -0.000001
  17       0.000001       0.000002       0.000000
  18      -0.000000      -0.000001       0.000000
---------------------------------------------------
 Number of fixed atoms: 0
 Gradient time:  CPU 791.31 s  wall 58.03 s
 ----------------------------------------------------------------
             Standard Nuclear Orientation (Angstroms)
    I     Atom           X                Y                Z
 ----------------------------------------------------------------
    1      C      -1.5178854514    -0.0273642891     0.5759557695
    2      C       0.2057517228     0.6374386224    -0.9106966901
    3      C       1.1033299788    -0.0121614035    -1.9357972493
    4      H      -0.4062673118     1.4276411345    -1.3542945071
    5      H       0.7824392374     1.0514729703    -0.0819866210
    6      H       1.7020215162     0.7773466924    -2.4066561717
    7      O      -0.6784452464    -0.3883704729    -0.3959347158
    8      C      -2.3665865351    -1.1810588394     1.0325207710
    9      H      -3.0458087513    -0.8532297096     1.8178725741
   10      H      -2.9342699984    -1.5748418960     0.1857639995
   11      H      -1.7225145584    -1.9819063138     1.4046270501
   12      O      -1.5730511352     1.0986741653     1.0231862026
   13      H       0.5078300706    -0.4764440119    -2.7269476219
   14      C       2.0915527804    -1.0448562020    -1.3631982181
   15      O       2.4715895196    -1.9504925740    -2.1500995982
   16      O       2.4728232479    -0.8923432441    -0.1756195532
   17      O       3.7787661804     2.2239690468    -0.2960481101
   18      H       3.3677747961     1.3523399108    -0.2601047289
 ----------------------------------------------------------------
 Nuclear Repulsion Energy =   520.5289251788 hartrees
 There are       40 alpha and       40 beta electrons
 Discretize the solute cavity surface with Lebedev spheres
	Using 110 Lebedev grid points for each H atom
	Using 110 Lebedev grid points for other atoms
	Atomic van der Waals radii will be scaled by 1.20
 Remove points where switching function is < 1.0e-08
 Keep 1140 surface tesserae and discard 840 interior tesserae
 Molecular Surface Area = 210.607 Angst**2
 Requested basis set is def2-TZVPD
 There are 175 shells and 457 basis functions
 A cutoff of  1.0D-14 yielded  13742 shell pairs
 There are     94074 function pairs (    119653 Cartesian)
 Smallest overlap matrix eigenvalue = 4.18E-06
 Guess MOs from SCF MO coefficient file
 Reading MOs from coefficient file
 Reading MOs from coefficient file
 Long-range K will be added via erf
 Coulomb attenuation parameter = 0.3 bohr**(-1)
 A restricted hybrid HF-DFT SCF calculation will be
 performed using Pulay DIIS extrapolation
 Polarizable Continuum solvation model will be applied
 Exchange:     0.1670 Hartree-Fock + 1.0000 wB97X-V + LR-HF
 Correlation:  1.0000 wB97X-V
 Using SG-2 standard quadrature grid
 Nonlocal Correlation:  VV10 with C = 0.0100 and b = 6.00
 Grid used for NLC:  SG-1 standard quadrature
 SCF converges when DIIS error is below 1.0E-08
Using Q-Chem read-in guess as SCF_GUESS READ specified.

 using 16 threads for integral computing
 -------------------------------------------------------
 OpenMP Integral computing Module                
 Release: version 1.0, May 2013, Q-Chem Inc. Pittsburgh 
 -------------------------------------------------------
 using 16 threads for integral computing
 -------------------------------------------------------
 OpenMP Integral computing Module                
 Release: version 1.0, May 2013, Q-Chem Inc. Pittsburgh 
 -------------------------------------------------------
 -------------------------------------------------------
 OpenMP BLAS3 based DFT computing Module                
 Release: version 1.0, May 2013, Q-Chem Inc. Pittsburgh 
 -------------------------------------------------------
 -------------------------------------------------------
 OpenMP BLAS3 based DFT computing Module                
 Release: version 1.0, May 2013, Q-Chem Inc. Pittsburgh 
 -------------------------------------------------------
 -------------------------------------------------------
 OpenMP BLAS3 based DFT computing Module                
 Release: version 1.0, May 2013, Q-Chem Inc. Pittsburgh 
 -------------------------------------------------------
 ---------------------------------------
  Cycle       Energy         DIIS Error
 ---------------------------------------
    1    -571.4538796501      4.88E-04
    2    -571.7989067862      5.44E-04
    3    -571.8097774044      2.58E-04
    4    -571.8115783723      1.81E-04
    5    -571.8127682144      1.35E-04
    6    -571.8134087431      1.03E-04
    7    -571.8138635376      7.17E-05
    8    -571.8141242130      4.51E-05
    9    -571.8142532655      2.22E-05
   10    -571.8142914492      5.63E-06
   11    -571.8142938118      1.71E-06
   12    -571.8142940390      3.29E-07
   13    -571.8142940473      7.70E-08
   14    -571.8142940478      1.06E-08
   15    -571.8142940478      7.01E-09 Convergence criterion met
 ---------------------------------------

************** Final PCM Free Energy Summary **************
 G_electrostatic  =      -0.36164574 hartree =    -226.93612400 kcal/mol
 G_cavitation     =       0.00000000 hartree =       0.00000000 kcal/mol
 G_dispersion     =       0.00000000 hartree =       0.00000000 kcal/mol
 G_repulsion      =       0.00000000 hartree =       0.00000000 kcal/mol
 --------------------------------------------------
 Non-electrostatic Free Energy =       0.00000000 hartree =       0.00000000 kcal/mol
 Total                         =      -0.36164574 hartree =    -226.93612400 kcal/mol
 --------------------------------------------------
 SCF Energy (H0 + V/2)                       =    -571.81429405 
 Solute Internal Energy (H0)                 =    -571.45264831 
 Total Free Energy (H0 + V/2 + non-elec)     =    -571.81429405 hartree
                                             = -358818.88516816 kcal/mol
***********************************************************

 SCF time:  CPU 3504.55 s  wall 252.51 s
 SCF   energy in the final basis set = -571.81429405
 Total energy in the final basis set = -571.81429405
 
 --------------------------------------------------------------
 
                    Orbital Energies (a.u.)
 --------------------------------------------------------------
 
 Alpha MOs
 -- Occupied --
-19.255 -19.200 -19.142 -19.141 -19.088 -10.402 -10.344 -10.314
-10.268 -10.255  -1.240  -1.149  -1.144  -1.052  -0.960  -0.915
 -0.866  -0.768  -0.686  -0.625  -0.610  -0.601  -0.582  -0.554
 -0.537  -0.526  -0.511  -0.509  -0.486  -0.469  -0.457  -0.447
 -0.441  -0.411  -0.388  -0.349  -0.339  -0.333  -0.309  -0.308
 -- Virtual --
  0.058   0.073   0.080   0.085   0.097   0.101   0.103   0.113
  0.118   0.123   0.131   0.135   0.138   0.147   0.153   0.160
  0.164   0.170   0.174   0.186   0.190   0.195   0.204   0.208
  0.215   0.219   0.232   0.235   0.237   0.252   0.259   0.269
  0.271   0.276   0.287   0.290   0.296   0.305   0.311   0.316
  0.321   0.328   0.334   0.338   0.344   0.351   0.358   0.359
  0.364   0.369   0.375   0.381   0.388   0.389   0.396   0.400
  0.404   0.414   0.418   0.424   0.424   0.427   0.438   0.440
  0.445   0.448   0.456   0.466   0.466   0.470   0.472   0.483
  0.493   0.496   0.500   0.507   0.516   0.521   0.526   0.528
  0.536   0.541   0.544   0.550   0.556   0.561   0.566   0.572
  0.579   0.586   0.592   0.594   0.603   0.612   0.622   0.630
  0.636   0.638   0.644   0.658   0.666   0.669   0.671   0.679
  0.680   0.698   0.701   0.715   0.719   0.732   0.737   0.738
  0.746   0.756   0.758   0.771   0.775   0.779   0.783   0.796
  0.797   0.807   0.810   0.817   0.820   0.829   0.831   0.832
  0.840   0.857   0.858   0.864   0.880   0.884   0.900   0.906
  0.917   0.920   0.929   0.945   0.954   0.976   0.988   0.999
  1.012   1.022   1.033   1.035   1.051   1.064   1.073   1.083
  1.092   1.100   1.115   1.135   1.159   1.165   1.186   1.190
  1.198   1.207   1.231   1.243   1.264   1.276   1.293   1.303
  1.325   1.333   1.341   1.344   1.367   1.378   1.395   1.397
  1.409   1.413   1.424   1.459   1.468   1.500   1.522   1.547
  1.550   1.600   1.627   1.664   1.719   1.722   1.729   1.766
  1.785   1.835   1.852   1.889   1.891   1.900   1.910   1.917
  1.923   1.937   1.956   1.960   1.970   1.977   1.988   1.991
  1.998   2.017   2.038   2.043   2.070   2.083   2.109   2.116
  2.123   2.155   2.188   2.195   2.207   2.232   2.242   2.255
  2.264   2.288   2.302   2.327   2.333   2.356   2.379   2.388
  2.401   2.444   2.450   2.473   2.490   2.510   2.518   2.535
  2.545   2.562   2.571   2.610   2.622   2.632   2.661   2.671
  2.688   2.718   2.758   2.765   2.770   2.815   2.839   2.846
  2.872   2.890   2.903   2.929   2.945   2.975   2.980   2.987
  3.003   3.013   3.046   3.085   3.095   3.114   3.118   3.153
  3.182   3.210   3.220   3.235   3.260   3.270   3.284   3.312
  3.323   3.327   3.343   3.350   3.375   3.396   3.418   3.435
  3.446   3.462   3.474   3.481   3.500   3.514   3.522   3.548
  3.554   3.574   3.579   3.592   3.601   3.620   3.632   3.641
  3.651   3.677   3.695   3.705   3.712   3.728   3.746   3.759
  3.773   3.790   3.801   3.838   3.916   3.955   3.988   4.030
  4.085   4.102   4.103   4.115   4.144   4.160   4.201   4.279
  4.330   4.362   4.382   4.400   4.561   4.578   4.639   4.670
  4.686   4.762   4.796   4.812   4.830   4.873   4.909   5.023
  5.035   5.096   5.156   5.289   5.324   5.350   5.352   5.354
  5.361   5.371   5.377   5.378   5.390   5.433   5.509   5.589
  5.662   5.675   5.682   5.716   5.719   5.765   5.778   5.855
  6.007   6.060   6.149   6.262   6.306   6.323   6.337   6.345
  6.451   6.470   6.622   6.629   6.634   6.639   6.650   6.658
  6.702   6.723   6.729   6.737   6.776   6.794   6.826   6.916
  6.954   6.974   7.007   7.053   7.074   7.078   7.230   7.247
  7.301   7.373   7.384   7.405   7.419   7.552   7.643  22.627
 22.822  22.842  23.646  23.749  44.002  44.337  44.362  44.462
 44.620
 --------------------------------------------------------------
 
          Ground-State Mulliken Net Atomic Charges

     Atom                 Charge (a.u.)
  ----------------------------------------
      1 C                     0.454559
      2 C                    -0.275770
      3 C                    -0.082244
      4 H                     0.310979
      5 H                     0.169689
      6 H                     0.231251
      7 O                    -0.183607
      8 C                    -0.732401
      9 H                     0.237400
     10 H                     0.242639
     11 H                     0.242470
     12 O                    -0.532906
     13 H                     0.232198
     14 C                     0.126932
     15 O                    -0.721361
     16 O                    -0.683302
     17 O                    -1.125397
     18 H                     0.088873
  ----------------------------------------
  Sum of atomic charges =    -2.000000

 -----------------------------------------------------------------
                    Cartesian Multipole Moments
 -----------------------------------------------------------------
    Charge (ESU x 10^10)
                -9.6064
    Dipole Moment (Debye)
         X     -30.7633      Y      -6.2243      Z       4.8011
       Tot      31.7517
    Quadrupole Moments (Debye-Ang)
        XX    -170.2573     XY     -18.2108     YY    -109.3561
        XZ      19.7129     YZ     -14.8866     ZZ     -77.5956
    Octopole Moments (Debye-Ang^2)
       XXX    -538.0379    XXY    -127.4381    XYY    -191.3486
       YYY     -28.6848    XXZ      86.5770    XYZ     -13.4866
       YYZ      63.3105    XZZ     -85.5387    YZZ      27.9495
       ZZZ     118.8154
    Hexadecapole Moments (Debye-Ang^3)
      XXXX   -3344.4734   XXXY    -598.9228   XXYY    -950.9317
      XYYY    -246.4754   YYYY    -910.6445   XXXZ     506.8342
      XXYZ     -71.8071   XYYZ     216.4188   YYYZ    -121.3489
      XXZZ    -535.4153   XYZZ      43.3379   YYZZ    -294.4678
      XZZZ     412.4108   YZZZ    -148.8003   ZZZZ    -712.1483
 -----------------------------------------------------------------
 Calculating analytic gradient of the SCF energy
 Gradient of SCF Energy
            1           2           3           4           5           6
    1   0.0191686   0.0521999  -0.0394832   0.0437256  -0.0519296  -0.0480364
    2   0.0477464   0.0257277   0.0386691  -0.0474226  -0.0260338  -0.0543239
    3  -0.0122829   0.0284133  -0.0709759   0.0223079  -0.0530111   0.0267796
            7           8           9          10          11          12
    1  -0.0139544  -0.0290648   0.0335105   0.0227631  -0.0320243   0.0018685
    2   0.0017598  -0.0221866  -0.0168359   0.0178246   0.0386072  -0.0564892
    3   0.0142835   0.0304158  -0.0380715   0.0354404  -0.0164798  -0.0143934
           13          14          15          16          17          18
    1   0.0328840   0.0436150  -0.0183044  -0.0201134  -0.0551178   0.0582934
    2   0.0280534  -0.0281895   0.0538046  -0.0053068  -0.0865811   0.0911765
    3   0.0398959   0.0389091   0.0301224  -0.0589115  -0.0138803   0.0114387
 Max gradient component =       9.118E-02
 RMS gradient           =       3.944E-02
 Computing fast CPCM-ISWIG gradient
 Updating gradient with PCM contributions...
 -- total gradient after adding PCM contribution --
---------------------------------------------------
  Atom         X              Y              Z     
---------------------------------------------------
   1       0.000149       0.001697       0.000283
   2      -0.000007       0.000047       0.000025
   3      -0.000011      -0.000019       0.000007
   4      -0.000005      -0.000007       0.000008
   5      -0.000009      -0.000005       0.000001
   6      -0.000003       0.000003       0.000003
   7      -0.000002      -0.000233      -0.000032
   8      -0.000107      -0.000283       0.000070
   9       0.000018       0.000016      -0.000011
  10      -0.000005      -0.000017       0.000002
  11      -0.000025      -0.000037       0.000008
  12       0.000006      -0.001165      -0.000360
  13       0.000001       0.000001      -0.000002
  14       0.000004      -0.000002       0.000001
  15      -0.000001       0.000001      -0.000000
  16      -0.000004       0.000002      -0.000002
  17       0.000001       0.000002       0.000000
  18      -0.000000      -0.000001       0.000000
---------------------------------------------------
 Number of fixed atoms: 0
 Gradient time:  CPU 795.48 s  wall 58.43 s
 ----------------------------------------------------------------
             Standard Nuclear Orientation (Angstroms)
    I     Atom           X                Y                Z
 ----------------------------------------------------------------
    1      C      -1.5178854514    -0.0293642891     0.5759557695
    2      C       0.2057517228     0.6374386224    -0.9106966901
    3      C       1.1033299788    -0.0121614035    -1.9357972493
    4      H      -0.4062673118     1.4276411345    -1.3542945071
    5      H       0.7824392374     1.0514729703    -0.0819866210
    6      H       1.7020215162     0.7773466924    -2.4066561717
    7      O      -0.6784452464    -0.3883704729    -0.3959347158
    8      C      -2.3665865351    -1.1810588394     1.0325207710
    9      H      -3.0458087513    -0.8532297096     1.8178725741
   10      H      -2.9342699984    -1.5748418960     0.1857639995
   11      H      -1.7225145584    -1.9819063138     1.4046270501
   12      O      -1.5730511352     1.0986741653     1.0231862026
   13      H       0.5078300706    -0.4764440119    -2.7269476219
   14      C       2.0915527804    -1.0448562020    -1.3631982181
   15      O       2.4715895196    -1.9504925740    -2.1500995982
   16      O       2.4728232479    -0.8923432441    -0.1756195532
   17      O       3.7787661804     2.2239690468    -0.2960481101
   18      H       3.3677747961     1.3523399108    -0.2601047289
 ----------------------------------------------------------------
 Nuclear Repulsion Energy =   520.5187795189 hartrees
 There are       40 alpha and       40 beta electrons
 Discretize the solute cavity surface with Lebedev spheres
	Using 110 Lebedev grid points for each H atom
	Using 110 Lebedev grid points for other atoms
	Atomic van der Waals radii will be scaled by 1.20
 Remove points where switching function is < 1.0e-08
 Keep 1140 surface tesserae and discard 840 interior tesserae
 Molecular Surface Area = 210.602 Angst**2
 Requested basis set is def2-TZVPD
 There are 175 shells and 457 basis functions
 A cutoff of  1.0D-14 yielded  13742 shell pairs
 There are     94074 function pairs (    119653 Cartesian)
 Smallest overlap matrix eigenvalue = 4.18E-06
 Guess MOs from SCF MO coefficient file
 Reading MOs from coefficient file
 Reading MOs from coefficient file
 Long-range K will be added via erf
 Coulomb attenuation parameter = 0.3 bohr**(-1)
 A restricted hybrid HF-DFT SCF calculation will be
 performed using Pulay DIIS extrapolation
 Polarizable Continuum solvation model will be applied
 Exchange:     0.1670 Hartree-Fock + 1.0000 wB97X-V + LR-HF
 Correlation:  1.0000 wB97X-V
 Using SG-2 standard quadrature grid
 Nonlocal Correlation:  VV10 with C = 0.0100 and b = 6.00
 Grid used for NLC:  SG-1 standard quadrature
 SCF converges when DIIS error is below 1.0E-08
Using Q-Chem read-in guess as SCF_GUESS READ specified.

 using 16 threads for integral computing
 -------------------------------------------------------
 OpenMP Integral computing Module                
 Release: version 1.0, May 2013, Q-Chem Inc. Pittsburgh 
 -------------------------------------------------------
 using 16 threads for integral computing
 -------------------------------------------------------
 OpenMP Integral computing Module                
 Release: version 1.0, May 2013, Q-Chem Inc. Pittsburgh 
 -------------------------------------------------------
 -------------------------------------------------------
 OpenMP BLAS3 based DFT computing Module                
 Release: version 1.0, May 2013, Q-Chem Inc. Pittsburgh 
 -------------------------------------------------------
 -------------------------------------------------------
 OpenMP BLAS3 based DFT computing Module                
 Release: version 1.0, May 2013, Q-Chem Inc. Pittsburgh 
 -------------------------------------------------------
 -------------------------------------------------------
 OpenMP BLAS3 based DFT computing Module                
 Release: version 1.0, May 2013, Q-Chem Inc. Pittsburgh 
 -------------------------------------------------------
 ---------------------------------------
  Cycle       Energy         DIIS Error
 ---------------------------------------
    1    -571.4513713210      4.88E-04
    2    -571.7989365731      5.43E-04
    3    -571.8097810404      2.58E-04
    4    -571.8115788622      1.81E-04
    5    -571.8127877377      1.34E-04
    6    -571.8134757325      9.87E-05
    7    -571.8139623139      6.30E-05
    8    -571.8142063581      3.24E-05
    9    -571.8142838669      1.11E-05
   10    -571.8142937238      2.01E-06
   11    -571.8142940267      4.41E-07
   12    -571.8142940406      8.46E-08
   13    -571.8142940411      2.20E-08
   14    -571.8142940411      6.72E-09 Convergence criterion met
 ---------------------------------------

************** Final PCM Free Energy Summary **************
 G_electrostatic  =      -0.36169504 hartree =    -226.96706088 kcal/mol
 G_cavitation     =       0.00000000 hartree =       0.00000000 kcal/mol
 G_dispersion     =       0.00000000 hartree =       0.00000000 kcal/mol
 G_repulsion      =       0.00000000 hartree =       0.00000000 kcal/mol
 --------------------------------------------------
 Non-electrostatic Free Energy =       0.00000000 hartree =       0.00000000 kcal/mol
 Total                         =      -0.36169504 hartree =    -226.96706088 kcal/mol
 --------------------------------------------------
 SCF Energy (H0 + V/2)                       =    -571.81429404 
 Solute Internal Energy (H0)                 =    -571.45259900 
 Total Free Energy (H0 + V/2 + non-elec)     =    -571.81429404 hartree
                                             = -358818.88516397 kcal/mol
***********************************************************

 SCF time:  CPU 3298.97 s  wall 237.43 s
 SCF   energy in the final basis set = -571.81429404
 Total energy in the final basis set = -571.81429404
 
 --------------------------------------------------------------
 
                    Orbital Energies (a.u.)
 --------------------------------------------------------------
 
 Alpha MOs
 -- Occupied --
-19.255 -19.200 -19.142 -19.141 -19.088 -10.402 -10.344 -10.314
-10.268 -10.255  -1.239  -1.149  -1.144  -1.053  -0.960  -0.915
 -0.866  -0.768  -0.686  -0.625  -0.610  -0.601  -0.582  -0.554
 -0.537  -0.526  -0.511  -0.509  -0.486  -0.469  -0.457  -0.447
 -0.441  -0.410  -0.388  -0.349  -0.339  -0.333  -0.309  -0.308
 -- Virtual --
  0.058   0.073   0.080   0.085   0.097   0.101   0.103   0.113
  0.118   0.123   0.131   0.135   0.138   0.147   0.153   0.160
  0.164   0.170   0.174   0.186   0.190   0.195   0.204   0.208
  0.215   0.219   0.232   0.235   0.237   0.252   0.259   0.269
  0.271   0.276   0.287   0.290   0.296   0.305   0.311   0.315
  0.321   0.329   0.334   0.338   0.344   0.351   0.358   0.359
  0.364   0.369   0.375   0.381   0.388   0.389   0.396   0.400
  0.404   0.414   0.418   0.424   0.425   0.427   0.438   0.440
  0.445   0.448   0.456   0.466   0.466   0.470   0.472   0.483
  0.493   0.496   0.500   0.507   0.516   0.521   0.526   0.528
  0.536   0.541   0.544   0.550   0.556   0.561   0.566   0.572
  0.579   0.586   0.592   0.594   0.603   0.612   0.622   0.630
  0.636   0.638   0.644   0.658   0.666   0.669   0.671   0.679
  0.680   0.698   0.701   0.715   0.719   0.732   0.736   0.738
  0.746   0.756   0.758   0.770   0.774   0.779   0.783   0.796
  0.797   0.807   0.810   0.817   0.820   0.829   0.831   0.832
  0.840   0.857   0.858   0.864   0.880   0.884   0.900   0.906
  0.917   0.919   0.929   0.945   0.954   0.976   0.988   0.999
  1.012   1.022   1.033   1.035   1.051   1.064   1.073   1.083
  1.092   1.100   1.114   1.135   1.159   1.165   1.186   1.190
  1.198   1.207   1.231   1.243   1.264   1.276   1.293   1.302
  1.325   1.333   1.341   1.344   1.367   1.379   1.395   1.397
  1.408   1.413   1.424   1.459   1.468   1.499   1.522   1.547
  1.551   1.600   1.627   1.664   1.719   1.721   1.729   1.766
  1.785   1.835   1.852   1.889   1.891   1.900   1.910   1.917
  1.923   1.937   1.956   1.960   1.970   1.977   1.988   1.991
  1.997   2.017   2.038   2.043   2.070   2.083   2.109   2.116
  2.123   2.155   2.188   2.195   2.207   2.232   2.242   2.255
  2.263   2.288   2.302   2.327   2.333   2.356   2.379   2.388
  2.401   2.444   2.450   2.473   2.490   2.510   2.518   2.534
  2.545   2.562   2.571   2.610   2.622   2.632   2.661   2.671
  2.688   2.718   2.758   2.765   2.770   2.815   2.839   2.846
  2.872   2.890   2.903   2.929   2.945   2.975   2.980   2.987
  3.003   3.013   3.046   3.085   3.095   3.114   3.118   3.153
  3.182   3.210   3.220   3.235   3.260   3.270   3.284   3.313
  3.323   3.328   3.343   3.350   3.375   3.396   3.418   3.435
  3.446   3.462   3.474   3.481   3.500   3.514   3.522   3.547
  3.554   3.574   3.579   3.592   3.601   3.620   3.632   3.640
  3.651   3.677   3.695   3.705   3.712   3.728   3.746   3.759
  3.773   3.790   3.801   3.838   3.916   3.956   3.988   4.030
  4.086   4.102   4.103   4.115   4.144   4.160   4.201   4.279
  4.330   4.362   4.382   4.400   4.562   4.578   4.640   4.670
  4.686   4.762   4.797   4.812   4.831   4.873   4.909   5.023
  5.036   5.097   5.156   5.289   5.324   5.350   5.352   5.354
  5.361   5.371   5.377   5.378   5.390   5.432   5.509   5.588
  5.661   5.675   5.682   5.716   5.719   5.764   5.778   5.854
  6.007   6.058   6.149   6.262   6.306   6.323   6.333   6.345
  6.451   6.468   6.622   6.629   6.634   6.639   6.649   6.657
  6.702   6.723   6.729   6.737   6.776   6.794   6.825   6.915
  6.954   6.974   7.007   7.053   7.073   7.078   7.230   7.247
  7.301   7.373   7.383   7.405   7.419   7.551   7.643  22.628
 22.822  22.842  23.644  23.749  44.002  44.337  44.361  44.462
 44.620
 --------------------------------------------------------------
 
          Ground-State Mulliken Net Atomic Charges

     Atom                 Charge (a.u.)
  ----------------------------------------
      1 C                     0.456566
      2 C                    -0.275545
      3 C                    -0.081929
      4 H                     0.310765
      5 H                     0.169483
      6 H                     0.231294
      7 O                    -0.183560
      8 C                    -0.732270
      9 H                     0.237441
     10 H                     0.242755
     11 H                     0.242484
     12 O                    -0.535372
     13 H                     0.232145
     14 C                     0.126897
     15 O                    -0.721344
     16 O                    -0.683290
     17 O                    -1.125391
     18 H                     0.088871
  ----------------------------------------
  Sum of atomic charges =    -2.000000

 -----------------------------------------------------------------
                    Cartesian Multipole Moments
 -----------------------------------------------------------------
    Charge (ESU x 10^10)
                -9.6064
    Dipole Moment (Debye)
         X     -30.7614      Y      -6.2428      Z       4.7943
       Tot      31.7525
    Quadrupole Moments (Debye-Ang)
        XX    -170.2480     XY     -18.1748     YY    -109.3566
        XZ      19.7143     YZ     -14.9054     ZZ     -77.5969
    Octopole Moments (Debye-Ang^2)
       XXX    -538.0657    XXY    -127.5141    XYY    -191.3447
       YYY     -28.6992    XXZ      86.5766    XYZ     -13.4545
       YYZ      63.3030    XZZ     -85.5334    YZZ      27.9283
       ZZZ     118.7858
    Hexadecapole Moments (Debye-Ang^3)
      XXXX   -3344.2564   XXXY    -598.7336   XXYY    -950.9065
      XYYY    -246.4319   YYYY    -910.6356   XXXZ     506.7787
      XXYZ     -71.8783   XYYZ     216.4146   YYYZ    -121.3781
      XXZZ    -535.3767   XYZZ      43.3850   YYZZ    -294.4628
      XZZZ     412.3981   YZZZ    -148.8499   ZZZZ    -712.1416
 -----------------------------------------------------------------
 Calculating analytic gradient of the SCF energy
 Gradient of SCF Energy
            1           2           3           4           5           6
    1   0.0189585   0.0521332  -0.0394093   0.0437407  -0.0519264  -0.0480377
    2   0.0443618   0.0256530   0.0386241  -0.0474076  -0.0260274  -0.0543184
    3  -0.0131717   0.0284304  -0.0709824   0.0222442  -0.0530224   0.0267842
            7           8           9          10          11          12
    1  -0.0140251  -0.0287900   0.0334512   0.0227437  -0.0319656   0.0018748
    2   0.0020977  -0.0214642  -0.0168709   0.0178225   0.0386194  -0.0540697
    3   0.0144458   0.0303909  -0.0380263   0.0354001  -0.0164896  -0.0135730
           13          14          15          16          17          18
    1   0.0328751   0.0436021  -0.0182957  -0.0201015  -0.0551230   0.0582949
    2   0.0280537  -0.0281676   0.0537961  -0.0053019  -0.0865747   0.0911741
    3   0.0398969   0.0388930   0.0301171  -0.0588992  -0.0138748   0.0114368
 Max gradient component =       9.117E-02
 RMS gradient           =       3.928E-02
 Computing fast CPCM-ISWIG gradient
 Updating gradient with PCM contributions...
 -- total gradient after adding PCM contribution --
---------------------------------------------------
  Atom         X              Y              Z     
---------------------------------------------------
   1      -0.000141      -0.001696      -0.000289
   2       0.000018      -0.000036      -0.000032
   3       0.000006       0.000010       0.000002
   4       0.000005       0.000005      -0.000006
[...]
 C         -0.038  0.030 -0.013   -0.104 -0.097  0.054    0.014 -0.037  0.022
 O         -0.008  0.036  0.038    0.021  0.013 -0.022    0.002 -0.012 -0.030
 O         -0.006 -0.016 -0.056    0.032  0.022  0.018    0.027  0.011  0.079
 O          0.000  0.000  0.000    0.000  0.000 -0.000   -0.000 -0.000  0.000
 H          0.000 -0.000 -0.000   -0.000  0.000  0.004   -0.001  0.000 -0.000
 TransDip   0.034 -0.016 -0.055   -0.007 -0.154 -0.068    0.025 -0.042 -0.088

 Mode:                25                     26                     27
 Frequency:      1068.59                1071.91                1110.20
 Force Cnst:      1.3299                 1.6099                 1.6712
 Red. Mass:       1.9767                 2.3782                 2.3013
 IR Active:          YES                    YES                    YES
 IR Intens:       45.027                115.416                 38.663
 Raman Active:       YES                    YES                    YES
               X      Y      Z        X      Y      Z        X      Y      Z
 C         -0.125  0.049 -0.131   -0.086  0.023 -0.079    0.029  0.013 -0.003
 C          0.043  0.071  0.013   -0.103 -0.127 -0.003   -0.066 -0.026  0.207
 C         -0.027 -0.046 -0.026    0.058  0.069  0.039    0.008 -0.109 -0.168
 H         -0.046 -0.013 -0.005    0.018  0.030  0.097   -0.289 -0.231  0.121
 H         -0.012  0.113  0.027    0.032 -0.206 -0.046   -0.367  0.321  0.249
 H          0.144 -0.109  0.073   -0.201  0.148 -0.137    0.418 -0.329 -0.026
 O         -0.033 -0.064  0.042    0.121  0.108 -0.044    0.062  0.061 -0.079
 C          0.137 -0.064  0.063    0.001  0.030  0.147   -0.042  0.007  0.033
 H         -0.114  0.277 -0.293   -0.383 -0.330 -0.042   -0.095 -0.176  0.063
 H          0.051  0.458 -0.139    0.332  0.357 -0.244    0.057 -0.034 -0.017
 H         -0.436 -0.472  0.124   -0.082 -0.186 -0.191    0.045  0.025 -0.068
 O          0.026  0.015  0.035    0.016 -0.049  0.003   -0.009  0.005  0.005
 H         -0.026  0.108 -0.113    0.121 -0.263  0.181    0.054  0.061 -0.302
 C          0.039  0.031 -0.016   -0.069 -0.049  0.026    0.041  0.045 -0.021
 O         -0.012  0.003  0.008    0.019 -0.004 -0.011   -0.024  0.020  0.012
 O         -0.003 -0.009  0.008    0.003  0.014 -0.021    0.005 -0.012  0.025
 O          0.000 -0.000  0.000   -0.000  0.000 -0.000   -0.000 -0.000  0.000
 H         -0.001  0.000 -0.002    0.002 -0.001  0.003   -0.002  0.001 -0.000
 TransDip   0.049  0.087 -0.190   -0.285 -0.087  0.171   -0.160 -0.070  0.096

 Mode:                28                     29                     30
 Frequency:      1232.47                1276.13                1294.52
 Force Cnst:      1.0962                 1.1707                 2.8826
 Red. Mass:       1.2248                 1.2201                 2.9195
 IR Active:          YES                    YES                    YES
 IR Intens:       14.644                 14.653                653.425
 Raman Active:       YES                    YES                    YES
               X      Y      Z        X      Y      Z        X      Y      Z
 C          0.009  0.002 -0.003   -0.012 -0.002  0.014    0.244  0.047 -0.229
 C          0.048  0.054  0.078    0.028 -0.061 -0.014    0.050  0.018 -0.055
 C         -0.001 -0.014 -0.021   -0.038  0.074  0.058    0.029 -0.020  0.009
 H         -0.227 -0.158  0.085   -0.425 -0.279  0.247   -0.377 -0.132  0.298
 H          0.246  0.347 -0.194    0.442  0.144 -0.399   -0.133 -0.093  0.118
 H         -0.338  0.336  0.131    0.384 -0.312 -0.041   -0.094  0.074  0.013
 O         -0.026 -0.027 -0.033   -0.022  0.025 -0.024   -0.121  0.028  0.118
 C          0.002 -0.003 -0.002    0.002 -0.001 -0.000   -0.039  0.037  0.053
 H          0.003 -0.000 -0.002    0.010  0.021 -0.003   -0.245 -0.465  0.085
 H         -0.010 -0.008  0.008    0.001  0.019 -0.008    0.075 -0.306  0.119
 H         -0.010 -0.008  0.006    0.012  0.010  0.003   -0.207 -0.215 -0.164
 O         -0.005  0.012  0.006    0.001 -0.006 -0.006   -0.024 -0.024  0.015
 H          0.477 -0.438 -0.124   -0.115  0.014  0.159   -0.104  0.099  0.041
 C         -0.047 -0.025  0.023    0.027  0.020 -0.010    0.026 -0.034  0.012
 O          0.011 -0.005 -0.011    0.002 -0.015 -0.004   -0.011  0.027  0.022
 O          0.002  0.005 -0.013   -0.006 -0.002  0.001   -0.009 -0.002 -0.030
 O         -0.000 -0.000 -0.000   -0.000 -0.000  0.000    0.000  0.000  0.000
 H          0.001 -0.001  0.001    0.000 -0.000 -0.002   -0.000  0.001  0.000
 TransDip   0.031  0.075  0.091    0.046 -0.041  0.106    0.610 -0.102 -0.536

 Mode:                31                     32                     33
 Frequency:      1348.33                1397.44                1422.20
 Force Cnst:      1.8579                 1.5847                 1.9978
 Red. Mass:       1.7345                 1.3773                 1.6764
 IR Active:          YES                    YES                    YES
 IR Intens:       41.912                 73.751                132.655
 Raman Active:       YES                    YES                    YES
               X      Y      Z        X      Y      Z        X      Y      Z
 C         -0.052 -0.017  0.046    0.031 -0.004 -0.032    0.091  0.025 -0.083
 C         -0.018  0.021 -0.023    0.078 -0.015 -0.064   -0.097  0.037  0.091
 C          0.120 -0.113 -0.007   -0.052  0.026  0.009    0.062 -0.030  0.009
 H         -0.360 -0.004  0.395   -0.164 -0.046  0.218    0.144 -0.056 -0.388
 H          0.087  0.053 -0.101   -0.359 -0.028  0.242    0.491 -0.117 -0.246
 H         -0.371  0.283  0.024    0.050  0.001  0.104   -0.096 -0.071 -0.274
 O          0.023  0.008 -0.038   -0.007  0.019  0.016   -0.033 -0.019  0.023
 C         -0.001 -0.020 -0.005   -0.072 -0.098  0.039   -0.069 -0.077  0.044
 H          0.059  0.132 -0.016    0.103  0.342  0.005    0.054  0.240  0.016
 H         -0.001  0.130 -0.070    0.109  0.390 -0.304    0.126  0.202 -0.218
 H          0.107  0.091  0.038    0.421  0.286  0.002    0.282  0.150 -0.072
 O          0.005  0.010 -0.002   -0.003  0.007  0.005   -0.010  0.004  0.012
 H         -0.404  0.428  0.059    0.117 -0.178  0.009   -0.020  0.273 -0.118
 C          0.060 -0.085  0.023    0.005  0.005  0.012   -0.039  0.023 -0.036
 O         -0.034  0.075  0.051    0.004 -0.010 -0.005    0.005 -0.008 -0.006
 O         -0.020 -0.002 -0.057   -0.003 -0.000 -0.008    0.015  0.001  0.035
 O         -0.000 -0.000 -0.000   -0.000 -0.000  0.000    0.000  0.000 -0.000
 H          0.002 -0.001  0.002   -0.000  0.000  0.000   -0.001 -0.000 -0.001
 TransDip   0.039 -0.179  0.098    0.231  0.102 -0.110    0.112  0.112 -0.333

 Mode:                34                     35                     36
 Frequency:      1442.66                1445.90                1452.88
 Force Cnst:      1.8855                 2.9238                 1.3182
 Red. Mass:       1.5376                 2.3737                 1.0599
 IR Active:          YES                    YES                    YES
 IR Intens:      134.950                166.292                 26.029
 Raman Active:       YES                    YES                    YES
               X      Y      Z        X      Y      Z        X      Y      Z
 C          0.028  0.009 -0.025   -0.002 -0.003  0.001    0.022  0.020 -0.015
 C         -0.049  0.009  0.046   -0.012  0.029 -0.023   -0.008  0.005  0.009
 C         -0.008  0.040 -0.098    0.101 -0.080 -0.057    0.003  0.001 -0.006
 H          0.225  0.064 -0.249   -0.187  0.001  0.170    0.009 -0.016 -0.050
 H          0.150  0.018 -0.096    0.008 -0.072  0.011    0.039 -0.028 -0.008
 H          0.319  0.142  0.504    0.079  0.280  0.537    0.017  0.005  0.019
 O         -0.009 -0.015  0.010   -0.001  0.002  0.000   -0.005 -0.000  0.005
 C         -0.019 -0.016  0.012    0.001  0.001 -0.000    0.031 -0.013 -0.036
 H          0.026  0.076  0.012    0.003  0.002  0.001   -0.156 -0.459  0.005
 H          0.061  0.004 -0.052    0.005 -0.007  0.001   -0.410  0.454  0.052
 H          0.048  0.007 -0.050   -0.005 -0.005 -0.004    0.068  0.292  0.536
 O         -0.003  0.002  0.004    0.000  0.002  0.001   -0.003 -0.024 -0.006
 H         -0.305 -0.404  0.395   -0.472 -0.161  0.443   -0.017 -0.016  0.019
 C          0.090 -0.082  0.049   -0.164  0.167 -0.085    0.003 -0.003  0.000
 O         -0.026  0.050  0.033    0.047 -0.092 -0.064   -0.001  0.002  0.001
 O         -0.027 -0.002 -0.063    0.047 -0.000  0.114   -0.000 -0.000 -0.001
 O         -0.000 -0.000 -0.000    0.000  0.000  0.000    0.000  0.000 -0.000
 H          0.001 -0.000  0.001   -0.003  0.001 -0.004   -0.000  0.000 -0.000
 TransDip   0.257 -0.213  0.164   -0.289  0.287 -0.070    0.003  0.150  0.064

 Mode:                37                     38                     39
 Frequency:      1460.60                1490.47                1599.74
 Force Cnst:      1.3115                 1.4641                15.4496
 Red. Mass:       1.0434                 1.1186                10.2463
 IR Active:          YES                    YES                    YES
 IR Intens:       12.780                 25.435               1288.676
 Raman Active:       YES                    YES                    YES
               X      Y      Z        X      Y      Z        X      Y      Z
 C         -0.018  0.006 -0.019    0.031  0.018 -0.026    0.008  0.010 -0.005
 C          0.001 -0.000  0.000   -0.020 -0.074 -0.007   -0.014 -0.005  0.025
 C          0.000 -0.000  0.001    0.011 -0.003  0.005    0.025 -0.050 -0.048
 H         -0.005 -0.005  0.001    0.386  0.464  0.352    0.020 -0.051 -0.087
 H          0.002 -0.001 -0.000   -0.111  0.633 -0.279    0.076 -0.015 -0.019
 H         -0.003 -0.002 -0.006    0.006 -0.029 -0.040   -0.063  0.002 -0.085
 O          0.002 -0.000  0.002   -0.019 -0.018  0.012   -0.004  0.001  0.001
 C         -0.035  0.011 -0.034   -0.010 -0.012  0.006   -0.002 -0.003  0.001
 H          0.491 -0.161  0.492   -0.006 -0.004  0.008   -0.001  0.001  0.001
 H          0.389  0.016 -0.308    0.000  0.032 -0.022    0.001  0.001 -0.002
 H         -0.314 -0.037  0.375    0.028  0.021  0.011    0.003  0.000 -0.001
 O          0.002 -0.001  0.002   -0.004 -0.007  0.002   -0.001 -0.005 -0.002
 H          0.004  0.004 -0.004   -0.040  0.058  0.007   -0.212  0.374 -0.095
 C         -0.001  0.000 -0.000   -0.011  0.014 -0.006    0.010  0.360  0.684
 O          0.000 -0.000 -0.000    0.003 -0.006 -0.004    0.078 -0.202 -0.189
 O          0.000  0.000  0.000    0.003  0.000  0.008   -0.082 -0.047 -0.286
 O          0.000 -0.000 -0.000   -0.000 -0.000  0.000   -0.001 -0.001  0.000
 H         -0.000  0.000 -0.000   -0.000 -0.000 -0.000    0.008  0.007 -0.006
 TransDip   0.082 -0.026  0.076   -0.031  0.158  0.008    0.003  0.576  0.995

 Mode:                40                     41                     42
 Frequency:      1763.03                3066.65                3078.64
 Force Cnst:     19.9806                 5.8917                 5.7893
 Red. Mass:      10.9103                 1.0633                 1.0367
 IR Active:          YES                    YES                    YES
 IR Intens:      588.448                 14.208                  0.454
 Raman Active:       YES                    YES                    YES
               X      Y      Z        X      Y      Z        X      Y      Z
 C          0.022  0.725  0.230   -0.000  0.000  0.000    0.002  0.001 -0.001
 C          0.020  0.033 -0.007   -0.006  0.013 -0.003   -0.001  0.002  0.000
 C         -0.004 -0.013 -0.000   -0.016 -0.032  0.060    0.000  0.000 -0.001
 H         -0.119 -0.036  0.019    0.116 -0.147  0.088    0.012 -0.015  0.008
 H         -0.043 -0.057  0.104   -0.045 -0.027 -0.062   -0.007 -0.005 -0.011
 H         -0.041  0.043  0.040    0.462  0.604 -0.355   -0.005 -0.006  0.004
 O         -0.006 -0.045 -0.009    0.000  0.000 -0.000    0.000  0.000 -0.000
 C         -0.036 -0.083  0.007   -0.000 -0.000 -0.000   -0.021 -0.046  0.006
 H          0.089  0.279  0.006    0.001 -0.001 -0.002    0.282 -0.142 -0.328
 H          0.034 -0.170  0.006    0.002  0.001  0.003    0.324  0.218  0.484
 H         -0.055 -0.136 -0.087   -0.002  0.003 -0.001   -0.377  0.461 -0.219
 O          0.013 -0.445 -0.168   -0.000 -0.000  0.000   -0.000  0.000  0.000
 H          0.013 -0.012 -0.015   -0.271 -0.220 -0.347    0.003  0.002  0.004
 C          0.004 -0.008 -0.006   -0.001  0.001  0.000    0.000 -0.000 -0.000
 O         -0.002  0.004  0.003    0.000 -0.000 -0.000   -0.000  0.000  0.000
 O         -0.001  0.001  0.001    0.000 -0.000 -0.000   -0.000  0.000  0.000
 O         -0.000 -0.000 -0.000   -0.000 -0.000 -0.000    0.000  0.000  0.000
 H          0.000 -0.000  0.001    0.000  0.000  0.000   -0.000  0.000  0.000
 TransDip  -0.133  0.677  0.356   -0.030  0.017  0.116   -0.014 -0.016  0.003

 Mode:                43                     44                     45
 Frequency:      3089.21                3118.36                3151.64
 Force Cnst:      5.9662                 6.3061                 6.4701
 Red. Mass:       1.0611                 1.1007                 1.1056
 IR Active:          YES                    YES                    YES
 IR Intens:       38.486                 22.400                 31.182
 Raman Active:       YES                    YES                    YES
               X      Y      Z        X      Y      Z        X      Y      Z
 C          0.001 -0.002 -0.002    0.000  0.000 -0.000    0.000 -0.000 -0.000
 C          0.018 -0.065 -0.006    0.012 -0.006  0.014   -0.059  0.003 -0.069
 C          0.000 -0.002  0.017   -0.060 -0.059 -0.032   -0.011 -0.010 -0.009
 H         -0.467  0.585 -0.339   -0.084  0.111 -0.062    0.274 -0.349  0.188
 H          0.279  0.182  0.395   -0.066 -0.048 -0.095    0.429  0.312  0.635
 H          0.087  0.107 -0.067    0.271  0.361 -0.227    0.033  0.041 -0.027
 O         -0.002 -0.001  0.001    0.000  0.000 -0.000    0.000 -0.000  0.000
 C         -0.001 -0.001  0.001    0.000 -0.000  0.000   -0.013  0.004 -0.012
 H          0.010 -0.006 -0.012    0.000 -0.000 -0.000    0.001 -0.001 -0.006
 H          0.008  0.006  0.012    0.000  0.000  0.000    0.071  0.052  0.107
 H         -0.010  0.012 -0.005   -0.001  0.001 -0.000    0.081 -0.102  0.046
 O          0.000  0.001  0.000   -0.000  0.000  0.000    0.000  0.000  0.000
 H         -0.092 -0.072 -0.119    0.451  0.356  0.606    0.094  0.079  0.130
 C         -0.001  0.001 -0.000    0.000 -0.002 -0.001    0.000 -0.001 -0.001
 O          0.000 -0.000 -0.000    0.000  0.000  0.000    0.000  0.000  0.000
 O          0.000  0.000  0.000   -0.000  0.000  0.000   -0.000  0.000  0.001
 O         -0.000 -0.000 -0.000   -0.000  0.000 -0.000   -0.000  0.000 -0.000
 H          0.000 -0.000 -0.000   -0.000 -0.000  0.000    0.001 -0.001 -0.000
 TransDip   0.031 -0.184  0.070   -0.089 -0.097 -0.076   -0.125 -0.007 -0.128

 Mode:                46                     47                     48
 Frequency:      3151.86                3188.12                3821.15
 Force Cnst:      6.4463                 6.6168                 9.1787
 Red. Mass:       1.1014                 1.1049                 1.0669
 IR Active:          YES                    YES                    YES
 IR Intens:        0.540                  9.146                 18.500
 Raman Active:       YES                    YES                    YES
               X      Y      Z        X      Y      Z        X      Y      Z
 C         -0.001  0.000 -0.001    0.000 -0.002 -0.001   -0.000 -0.000  0.000
 C          0.012 -0.001  0.014   -0.000 -0.000 -0.000   -0.000 -0.000  0.000
 C          0.002  0.002  0.002    0.000  0.000  0.000   -0.000 -0.000 -0.000
 H         -0.055  0.070 -0.038   -0.001  0.002 -0.001    0.000 -0.000 -0.000
 H         -0.086 -0.062 -0.127    0.003  0.002  0.003    0.000  0.000  0.000
 H         -0.006 -0.008  0.005    0.000  0.000 -0.000    0.000  0.000 -0.000
 O          0.000  0.000 -0.000   -0.000  0.000  0.000    0.000 -0.000 -0.000
 C         -0.063  0.021 -0.062    0.047 -0.049 -0.065    0.000  0.000  0.000
 H         -0.000 -0.001 -0.020   -0.556  0.268  0.642    0.000 -0.000 -0.000
 H          0.355  0.259  0.535    0.177  0.110  0.247   -0.000 -0.000 -0.000
 H          0.401 -0.512  0.227   -0.178  0.221 -0.115    0.000 -0.000 -0.000
 O         -0.000 -0.000 -0.000   -0.000  0.001  0.000   -0.000 -0.000 -0.000
 H         -0.019 -0.016 -0.026   -0.000 -0.000 -0.000    0.000  0.000  0.000
 C         -0.000  0.000  0.000   -0.000  0.000 -0.000   -0.000 -0.000 -0.001
 O         -0.000 -0.000 -0.000    0.000 -0.000 -0.000   -0.000  0.000  0.000
 O          0.000 -0.000 -0.000    0.000 -0.000  0.000    0.000  0.000  0.000
 O          0.000 -0.000  0.000   -0.000 -0.000  0.000   -0.027 -0.057  0.002
 H         -0.000  0.000 -0.000    0.000  0.000 -0.000    0.426  0.902 -0.037
 TransDip  -0.015  0.013 -0.013    0.062 -0.026 -0.070    0.064  0.121  0.017

 STANDARD THERMODYNAMIC QUANTITIES AT   298.15 K  AND     1.00 ATM

   This Molecule has  0 Imaginary Frequencies
   Zero point vibrational energy:       82.803 kcal/mol

   Atom    1 Element C  Has Mass   12.00000
   Atom    2 Element C  Has Mass   12.00000
   Atom    3 Element C  Has Mass   12.00000
   Atom    4 Element H  Has Mass    1.00783
   Atom    5 Element H  Has Mass    1.00783
   Atom    6 Element H  Has Mass    1.00783
   Atom    7 Element O  Has Mass   15.99491
   Atom    8 Element C  Has Mass   12.00000
   Atom    9 Element H  Has Mass    1.00783
   Atom   10 Element H  Has Mass    1.00783
   Atom   11 Element H  Has Mass    1.00783
   Atom   12 Element O  Has Mass   15.99491
   Atom   13 Element H  Has Mass    1.00783
   Atom   14 Element C  Has Mass   12.00000
   Atom   15 Element O  Has Mass   15.99491
   Atom   16 Element O  Has Mass   15.99491
   Atom   17 Element O  Has Mass   15.99491
   Atom   18 Element H  Has Mass    1.00783
   Molecular Mass:   148.037190 amu
   Principal axes and moments of inertia in amu*Bohr^2:
                             1           2           3
    Eigenvalues --     1133.16433  2702.92629  3357.57304
          X               0.92889     0.12978     0.34688
          Y               0.02537     0.91210    -0.40918
          Z              -0.36949     0.38888     0.84395
   Rotational Symmetry Number is   1
   The Molecule is an Asymmetric Top
   Translational Enthalpy:        0.889 kcal/mol
   Rotational Enthalpy:           0.889 kcal/mol
   Vibrational Enthalpy:         89.011 kcal/mol
   gas constant (RT):             0.592 kcal/mol
   Translational Entropy:        40.887  cal/mol.K
   Rotational Entropy:           30.709  cal/mol.K
   Vibrational Entropy:          47.308  cal/mol.K

   Total Enthalpy:               91.381 kcal/mol
   Total Entropy:               118.904  cal/mol.K
Archival summary:
1\1\c5-64\FREQ\ProcedureUnspecified\BasisUnspecified\558(2-,1)\leeping\SatMar2107:40:092020SatMar2107:40:092020\0\\#,FREQ,ProcedureUnspecified,BasisUnspecified,\\-2,1\O\C,1,1.33373\O,2,1.21378,1,123.212\C,1,1.44882,2,116.866,3,0.630215,0\H,4,1.09122,1,108.744,2,56.324,0\H,4,1.09351,1,108.313,2,-62.2977,0\C,2,1.50248,1,111.708,3,-179.975,0\H,7,1.08885,2,109.91,1,-179.475,0\H,7,1.09285,2,109.537,1,-58.4137,0\H,7,1.093,2,109.434,1,59.5789,0\C,4,1.50946,1,107.427,2,177.005,0\H,11,1.09366,4,110.499,1,57.4579,0\H,11,1.09702,4,107.836,1,174.072,0\C,11,1.53978,4,114.691,1,-66.8784,0\O,14,1.25657,11,117.696,4,-28.3797,0\O,14,1.2585,11,116.354,4,153.476,0\H,15,2.41799,14,101.067,11,-55.8917,0\O,17,0.964336,15,176.492,14,-101.721,0\\\@

 Total job time:  35718.08s(wall), 493710.02s(cpu) 
 Sat Mar 21 07:40:09 2020

        *************************************************************
        *                                                           *
        *  Thank you very much for using Q-Chem.  Have a nice day.  *
        *                                                           *
        *************************************************************


