
Running Job 1 of 1 qc-freq1.in
qchem qc-freq1.in_27070.0 /scratch/leeping/1862936/qc-freq1.d/ 1
/home/leeping/opt/qchem/5.0.2-openmp/exe/qcprog.exe_s qc-freq1.in_27070.0 /scratch/leeping/1862936/qc-freq1.d/
Check license passed

                  Welcome to Q-Chem
     A Quantum Leap Into The Future Of Chemistry


 Q-Chem 5.0, Q-Chem, Inc., Pleasanton, CA (2017)

 Yihan Shao,  Zhengting Gan,  E. Epifanovsky,  A. T. B. Gilbert,  M. Wormit,  
 J. Kussmann,  A. W. Lange,  A. Behn,  Jia Deng,  Xintian Feng,  D. Ghosh,  
 M. Goldey,  P. R. Horn,  L. D. Jacobson,  I. Kaliman,  T. Kus,  A. Landau,  
 Jie Liu,  E. I. Proynov,  R. M. Richard,  R. P. Steele,  E. J. Sundstrom,  
 H. L. Woodcock III,  P. M. Zimmerman,  D. Zuev,  B. Albrecht,  E. Alguire,  
 S. A. Baeppler,  D. Barton,  Z. Benda,  Y. A. Bernard,  E. J. Berquist,  
 K. B. Bravaya,  H. Burton,  D. Casanova,  Chun-Min Chang,  Yunqing Chen,  
 A. Chien,  K. D. Closser,  M. P. Coons,  S. Dasgupta,  A. L. Dempwolff,  
 M. Diedenhofen,  Hainam Do,  R. G. Edgar,  Po-Tung Fang,  S. Fatehi,  
 Qingguo Feng,  J. Fosso-Tande,  Qinghui Ge,  A. Ghysels,  G. Gidofalvi,  
 J. Gomes,  J. Gonthier,  A. Gunina,  M. W. D. Hanson-Heine,  
 P. H. P. Harbach,  A. W. Hauser,  J. E. Herr,  E. G. Hohenstein,  
 Z. C. Holden,  Kerwin Hui,  T.-C. Jagau,  Hyunjun Ji,  B. Kaduk,  
 K. Khistyaev,  Jaehoon Kim,  P. Klunzinger,  K. Koh,  D. Kosenkov,  
 L. Koulias,  T. Kowalczyk,  C. M. Krauter,  A. Kunitsa,  Ka Un Lao,  
 A. Laurent,  K. V. Lawler,  Joonho Lee,  D. Lefrancois,  S. Lehtola,  
 D. S. Levine,  Yi-Pei Li,  You-Sheng Lin,  Fenglai Liu,  E. Livshits,  
 A. Luenser,  P. Manohar,  E. Mansoor,  S. F. Manzer,  Shan-Ping Mao,  
 Yuezhi Mao,  N. Mardirossian,  A. V. Marenich,  T. Markovich,  
 L. A. Martinez-Martinez,  S. A. Maurer,  N. J. Mayhall,  S. C. McKenzie,  
 J.-M. Mewes,  A. F. Morrison,  J. W. Mullinax,  K. Nanda,  
 T. S. Nguyen-Beck,  R. Olivares-Amaya,  J. A. Parkhill,  T. M. Perrine,  
 F. Plasser,  S. Prager,  A. Prociuk,  E. Ramos,  D. R. Rehn,  F. Rob,  
 M. Schneider,  N. Sergueev,  S. M. Sharada,  S. Sharma,  D. W. Small,  
 T. Stauch,  T. Stein,  Yu-Chuan Su,  A. J. W. Thom,  A. Tkatchenko,  
 T. Tsuchimochi,  L. Vogt,  O. Vydrov,  M. A. Watson,  J. Wenzel,  
 M. de Wergifosse,  T. A. Wesolowski,  A. White,  J. Witte,  A. Yamada,  
 Jun Yang,  K. Yao,  S. Yeganeh,  S. R. Yost,  Zhi-Qiang You,  A. Zech,  
 Igor Ying Zhang,  Xing Zhang,  Yan Zhao,  Ying Zhu,  B. R. Brooks,  
 G. K. L. Chan,  C. J. Cramer,  M. S. Gordon,  W. J. Hehre,  A. Klamt,  
 M. W. Schmidt,  C. D. Sherrill,  D. G. Truhlar,  A. Aspuru-Guzik,  R. Baer,  
 A. T. Bell,  N. A. Besley,  Jeng-Da Chai,  R. A. DiStasio Jr.,  A. Dreuw,  
 B. D. Dunietz,  T. R. Furlani,  Chao-Ping Hsu,  Yousung Jung,  Jing Kong,  
 D. S. Lambrecht,  WanZhen Liang,  C. Ochsenfeld,  V. A. Rassolov,  
 L. V. Slipchenko,  J. E. Subotnik,  T. Van Voorhis,  J. M. Herbert,  
 A. I. Krylov,  P. M. W. Gill,  M. Head-Gordon

 Contributors to earlier versions of Q-Chem not listed above: 
 R. D. Adamson,  B. Austin,  J. Baker,  G. J. O. Beran,  K. Brandhorst,  
 S. T. Brown,  E. F. C. Byrd,  A. K. Chakraborty,  C.-L. Cheng,  
 Siu Hung Chien,  D. M. Chipman,  D. L. Crittenden,  H. Dachsel,  
 R. J. Doerksen,  A. D. Dutoi,  L. Fusti-Molnar,  W. A. Goddard III,  
 A. Golubeva-Zadorozhnaya,  S. R. Gwaltney,  G. Hawkins,  A. Heyden,  
 S. Hirata,  G. Kedziora,  F. J. Keil,  C. Kelley,  Jihan Kim,  R. A. King,  
 R. Z. Khaliullin,  P. P. Korambath,  W. Kurlancheek,  A. M. Lee,  M. S. Lee,  
 S. V. Levchenko,  Ching Yeh Lin,  D. Liotard,  R. C. Lochan,  I. Lotan,  
 P. E. Maslen,  N. Nair,  D. P. O'Neill,  D. Neuhauser,  E. Neuscamman,  
 C. M. Oana,  R. Olson,  B. Peters,  R. Peverati,  P. A. Pieniazek,  
 Y. M. Rhee,  J. Ritchie,  M. A. Rohrdanz,  E. Rosta,  N. J. Russ,  
 H. F. Schaefer III,  N. E. Schultz,  N. Shenvi,  A. C. Simmonett,  A. Sodt,  
 D. Stuck,  K. S. Thanthiriwatte,  V. Vanovschi,  Tao Wang,  A. Warshel,  
 C. F. Williams,  Q. Wu,  X. Xu,  W. Zhang

 Please cite Q-Chem as follows:
 Y. Shao et al., Mol. Phys. 113, 184-215 (2015)
 DOI: 10.1080/00268976.2014.952696

 Q-Chem 5.0.2 for Intel X86 EM64T Linux

 Parts of Q-Chem use Armadillo 5.200.1 (Boston Tea Smuggler).
 http://arma.sourceforge.net/

 Q-Chem begins on Sat Mar 21 00:29:50 2020  

Host: 
0

     Scratch files written to /scratch/leeping/1862936/qc-freq1.d//
 Dec517 15110_ 26548  26544 5633   
Processing $rem in /home/leeping/opt/qchem/5.0.2-openmp/config/preferences.
 MEM_STATIC 2000
 MEM_TOTAL  8000
 SYMMETRY   OFF
 SYM_IGNORE TRUE 
Symmetry turned off for PCM/SM12/SMD calculation

Checking the input file for inconsistencies... 	...done.

--------------------------------------------------------------
User input:
--------------------------------------------------------------
$molecule
-2 1
C       -0.4350709012   -0.0419873244   -1.7678488720
C       -1.4791253161    0.3376385993   -2.8266134729
O       -2.1181591909   -0.6032154502   -3.3688119869
O       -1.6508406212    1.5649942768   -3.0528833528
C       -1.1054672309   -0.1329567606   -0.3951085884
H        0.3563497815    0.7107848510   -1.7357845681
H        0.0023254825   -1.0147784406   -2.0170776304
O       -0.2259819677   -0.5893008152    0.6240019180
H       -1.9257496639   -0.8583283083   -0.4394685029
H       -1.5163550344    0.8395487810   -0.1073337790
C        0.4733360558    0.4479514030    1.3982011497
C        0.9487305351   -0.2822927871    2.6551244956
H        1.6054412618    0.3836308008    3.2208421802
H        1.4865281796   -1.2041298577    2.4227080901
H        0.0764180816   -0.5250926384    3.2677911932
O       -0.1558612775    1.5561248383    1.5666778353
O        1.6789375923    0.7768818717    0.5576660761
O        2.3633210604   -0.4177299567    0.1588671874
H        1.6158126019   -0.9632915330   -0.1473598516
$end

$rem
jobtype               freq
method                wb97x-v
basis                 def2-tzvpd
symmetry              off
sym_ignore            true
incdft                false
incfock               0
!scf_algorithm        diis_gdm
scf_convergence       8
thresh                14
!purecart             112
max_scf_cycles        1000
geom_opt_max_cycles   500
geom_opt_dmax         100
geom_opt_tol_gradient 10
solvent_method        pcm
ideriv                1
rpath_tol_displacement 1000
rpath_max_cycles      100
rpath_direction       1
!scf_guess            read
scf_guess             read
$end

$pcm
theory              cosmo
method              iswig
Radii               bondi
vdwScale            1.20
hpoints             110
heavypoints         110
$end

$solvent
dielectric 78.400000
$end

--------------------------------------------------------------
 ----------------------------------------------------------------
             Standard Nuclear Orientation (Angstroms)
    I     Atom           X                Y                Z
 ----------------------------------------------------------------
    1      C      -0.4350709012    -0.0419873244    -1.7678488720
    2      C      -1.4791253161     0.3376385993    -2.8266134729
    3      O      -2.1181591909    -0.6032154502    -3.3688119869
    4      O      -1.6508406212     1.5649942768    -3.0528833528
    5      C      -1.1054672309    -0.1329567606    -0.3951085884
    6      H       0.3563497815     0.7107848510    -1.7357845681
    7      H       0.0023254825    -1.0147784406    -2.0170776304
    8      O      -0.2259819677    -0.5893008152     0.6240019180
    9      H      -1.9257496639    -0.8583283083    -0.4394685029
   10      H      -1.5163550344     0.8395487810    -0.1073337790
   11      C       0.4733360558     0.4479514030     1.3982011497
   12      C       0.9487305351    -0.2822927871     2.6551244956
   13      H       1.6054412618     0.3836308008     3.2208421802
   14      H       1.4865281796    -1.2041298577     2.4227080901
   15      H       0.0764180816    -0.5250926384     3.2677911932
   16      O      -0.1558612775     1.5561248383     1.5666778353
   17      O       1.6789375923     0.7768818717     0.5576660761
   18      O       2.3633210604    -0.4177299567     0.1588671874
   19      H       1.6158126019    -0.9632915330    -0.1473598516
 ----------------------------------------------------------------
 Nuclear Repulsion Energy =   655.2100963147 hartrees
 There are       44 alpha and       44 beta electrons
 Requested basis set is def2-TZVPD
 There are 189 shells and 497 basis functions

 Total QAlloc Memory Limit   8000 MB
 Mega-Array Size      1956 MB
 MEM_STATIC part      2000 MB
 Discretize the solute cavity surface with Lebedev spheres
	Using 110 Lebedev grid points for each H atom
	Using 110 Lebedev grid points for other atoms
	Atomic van der Waals radii will be scaled by 1.20
 Remove points where switching function is < 1.0e-08
 Keep 1112 surface tesserae and discard 978 interior tesserae
 Molecular Surface Area = 196.596 Angst**2
 A cutoff of  1.0D-14 yielded  16234 shell pairs
 There are    112406 function pairs (    143302 Cartesian)
 
 -------------------------------------------------------
 OpenMP Integral Computing Module                       
 Release: version 1.0, May 2013, Q-Chem Inc. Pittsburgh 
 -------------------------------------------------------
 Integral Job Info:
 Integral job number is                      11
 Integral operator is                         1
 short-range coefficients              16700000
 long-range coefficients              100000000
 Omega coefficients                         300
 if combine SR and LR in K                    1
 Integral screening is                        0
 Integral computing path is                   2
 max size of driver memory is            800000
 size of driver memory is                776718
 size of scratch memory is              4473992
 max col of scratch BK array              10000
 max len of scratch array in speh3          662
 max len of scratch index in speh4           32
 max int batch size is                      520
 min int batch size is                       52
 fixed nKL is                                52
 max L of basis functions is                  3
 order of int derivative is                   0
 number of shells is                        189
 number of basis is                         563
 number of cartesian basis is               563
 number of contracted shell pairs         16234
 number of primitive shell pairs          32716
 maxK2 (contraction) of shell pair           36
 max number of K2 of shell pair               1
 max number of CS2 of shell pair           2658
 max number of PS2 of shell pair           3780
 mem total for path MDJ                  831028
 -------------------------------------------------------
 Smallest overlap matrix eigenvalue = 4.78E-06
 Guess MOs from SCF MO coefficient file
 Reading MOs from coefficient file
 Reading MOs from coefficient file
 Long-range K will be added via erf
 Coulomb attenuation parameter = 0.3 bohr**(-1)
 A restricted hybrid HF-DFT SCF calculation will be
 performed using Pulay DIIS extrapolation
 Polarizable Continuum solvation model will be applied
 Exchange:     0.1670 Hartree-Fock + 1.0000 wB97X-V + LR-HF
 Correlation:  1.0000 wB97X-V
 Using SG-2 standard quadrature grid
 Nonlocal Correlation:  VV10 with C = 0.0100 and b = 6.00
 Grid used for NLC:  SG-1 standard quadrature
 SCF converges when DIIS error is below 1.0E-08
Using Q-Chem read-in guess as SCF_GUESS READ specified.

 using 16 threads for integral computing
 -------------------------------------------------------
 OpenMP Integral computing Module                
 Release: version 1.0, May 2013, Q-Chem Inc. Pittsburgh 
 -------------------------------------------------------
 using 16 threads for integral computing
 -------------------------------------------------------
 OpenMP Integral computing Module                
 Release: version 1.0, May 2013, Q-Chem Inc. Pittsburgh 
 -------------------------------------------------------
 -------------------------------------------------------
 OpenMP BLAS3 based DFT computing Module                
 Release: version 1.0, May 2013, Q-Chem Inc. Pittsburgh 
 -------------------------------------------------------
 -------------------------------------------------------
 OpenMP BLAS3 based DFT computing Module                
 Release: version 1.0, May 2013, Q-Chem Inc. Pittsburgh 
 -------------------------------------------------------
 -------------------------------------------------------
 OpenMP BLAS3 based DFT computing Module                
 Release: version 1.0, May 2013, Q-Chem Inc. Pittsburgh 
 -------------------------------------------------------
 ---------------------------------------
  Cycle       Energy         DIIS Error
 ---------------------------------------
    1    -646.6574648111      3.58E-04
    2    -646.9528938397      4.12E-04
    3    -646.9596179156      1.83E-04
    4    -646.9606737693      1.32E-04
    5    -646.9613340090      9.94E-05
    6    -646.9616559444      7.98E-05
    7    -646.9618735430      6.33E-05
    8    -646.9620163831      4.95E-05
    9    -646.9621287995      3.51E-05
   10    -646.9621732361      2.74E-05
   11    -646.9622042538      2.04E-05
   12    -646.9622195846      1.57E-05
   13    -646.9622286592      1.22E-05
   14    -646.9622339149      9.58E-06
   15    -646.9622369864      7.63E-06
   16    -646.9622393835      5.67E-06
   17    -646.9622423278      3.82E-09 Convergence criterion met
 ---------------------------------------

************** Final PCM Free Energy Summary **************
 G_electrostatic  =      -0.30477921 hartree =    -191.25183883 kcal/mol
 G_cavitation     =       0.00000000 hartree =       0.00000000 kcal/mol
 G_dispersion     =       0.00000000 hartree =       0.00000000 kcal/mol
 G_repulsion      =       0.00000000 hartree =       0.00000000 kcal/mol
 --------------------------------------------------
 Non-electrostatic Free Energy =       0.00000000 hartree =       0.00000000 kcal/mol
 Total                         =      -0.30477921 hartree =    -191.25183883 kcal/mol
 --------------------------------------------------
 SCF Energy (H0 + V/2)                       =    -646.96224233 
 Solute Internal Energy (H0)                 =    -646.65746312 
 Total Free Energy (H0 + V/2 + non-elec)     =    -646.96224233 hartree
                                             = -405974.93444009 kcal/mol
***********************************************************

 SCF time:  CPU 5575.35 s  wall 391.17 s
 SCF   energy in the final basis set = -646.96224233
 Total energy in the final basis set = -646.96224233
 
 --------------------------------------------------------------
 
                    Orbital Energies (a.u.)
 --------------------------------------------------------------
 
 Alpha MOs
 -- Occupied --
-19.242 -19.234 -19.194 -19.140 -19.140 -19.116 -10.374 -10.341
-10.294 -10.243 -10.235  -1.233  -1.147  -1.143  -1.070  -1.049
 -0.973  -0.879  -0.833  -0.745  -0.669  -0.632  -0.605  -0.585
 -0.560  -0.544  -0.537  -0.525  -0.519  -0.511  -0.492  -0.474
 -0.467  -0.461  -0.449  -0.433  -0.405  -0.367  -0.349  -0.346
 -0.336  -0.331  -0.329  -0.317
 -- Virtual --
  0.060   0.073   0.076   0.082   0.100   0.103   0.106   0.112
  0.119   0.127   0.136   0.140   0.146   0.148   0.150   0.165
  0.167   0.176   0.177   0.183   0.186   0.187   0.198   0.212
  0.216   0.228   0.233   0.238   0.245   0.248   0.256   0.258
  0.265   0.272   0.280   0.283   0.289   0.297   0.301   0.305
  0.306   0.318   0.320   0.331   0.337   0.343   0.347   0.351
  0.353   0.361   0.366   0.370   0.375   0.378   0.385   0.393
  0.398   0.404   0.407   0.408   0.414   0.417   0.420   0.428
  0.432   0.438   0.446   0.451   0.457   0.463   0.464   0.474
  0.478   0.484   0.492   0.497   0.502   0.508   0.512   0.518
  0.522   0.525   0.532   0.536   0.539   0.551   0.554   0.555
  0.563   0.577   0.580   0.581   0.595   0.602   0.605   0.611
  0.618   0.621   0.635   0.643   0.648   0.652   0.657   0.663
  0.671   0.681   0.689   0.694   0.701   0.704   0.716   0.725
  0.729   0.734   0.739   0.744   0.754   0.762   0.766   0.770
  0.785   0.788   0.791   0.795   0.800   0.804   0.809   0.815
  0.820   0.833   0.841   0.849   0.857   0.859   0.863   0.869
  0.876   0.880   0.887   0.894   0.902   0.909   0.914   0.923
  0.931   0.941   0.957   0.969   0.979   0.988   1.001   1.016
  1.023   1.033   1.038   1.049   1.061   1.081   1.090   1.097
  1.105   1.116   1.123   1.141   1.154   1.168   1.176   1.193
  1.200   1.208   1.223   1.228   1.247   1.253   1.266   1.285
  1.303   1.313   1.333   1.339   1.341   1.358   1.367   1.375
  1.382   1.398   1.410   1.431   1.448   1.463   1.472   1.493
  1.502   1.528   1.540   1.549   1.569   1.586   1.607   1.616
  1.636   1.660   1.699   1.720   1.751   1.775   1.802   1.848
  1.877   1.890   1.902   1.907   1.920   1.939   1.960   1.971
  1.987   1.990   2.002   2.016   2.020   2.029   2.038   2.045
  2.052   2.074   2.080   2.095   2.127   2.137   2.148   2.168
  2.181   2.191   2.210   2.217   2.232   2.264   2.271   2.282
  2.313   2.336   2.356   2.369   2.384   2.391   2.399   2.433
  2.442   2.467   2.470   2.486   2.492   2.518   2.540   2.563
  2.575   2.598   2.610   2.622   2.638   2.656   2.668   2.691
  2.704   2.727   2.745   2.758   2.777   2.797   2.835   2.848
  2.868   2.886   2.908   2.920   2.943   2.959   2.970   2.973
  3.000   3.010   3.039   3.053   3.067   3.079   3.080   3.112
  3.142   3.156   3.200   3.214   3.232   3.267   3.283   3.305
  3.319   3.329   3.339   3.357   3.390   3.396   3.402   3.416
  3.436   3.446   3.460   3.486   3.505   3.522   3.526   3.540
  3.560   3.572   3.582   3.597   3.608   3.619   3.637   3.641
  3.666   3.685   3.688   3.701   3.706   3.718   3.728   3.756
  3.773   3.791   3.810   3.832   3.835   3.849   3.889   3.903
  3.917   3.930   3.975   4.017   4.051   4.069   4.107   4.119
  4.156   4.160   4.207   4.216   4.269   4.279   4.297   4.369
  4.423   4.508   4.584   4.615   4.633   4.643   4.674   4.721
  4.791   4.808   4.829   4.850   4.854   4.953   4.980   4.987
  5.083   5.114   5.173   5.177   5.221   5.318   5.320   5.333
  5.354   5.358   5.378   5.391   5.427   5.501   5.510   5.524
  5.556   5.605   5.625   5.706   5.714   5.716   5.734   5.775
  5.804   5.849   5.987   6.011   6.064   6.076   6.103   6.222
  6.265   6.293   6.304   6.311   6.323   6.401   6.452   6.484
  6.585   6.621   6.630   6.640   6.683   6.695   6.714   6.749
  6.771   6.774   6.810   6.849   6.864   6.942   6.964   6.972
  7.006   7.053   7.067   7.111   7.192   7.212   7.233   7.327
  7.343   7.358   7.379   7.410   7.419   7.527   7.574   7.646
  7.701   8.338  22.709  22.904  22.928  23.261  23.718  44.245
 44.349  44.424  44.501  44.663  44.742
 --------------------------------------------------------------
 
          Ground-State Mulliken Net Atomic Charges

     Atom                 Charge (a.u.)
  ----------------------------------------
      1 C                     0.127053
      2 C                    -0.039005
      3 O                    -0.694327
      4 O                    -0.694482
      5 C                    -0.327093
      6 H                     0.139126
      7 H                     0.251634
      8 O                    -0.458511
      9 H                     0.195476
     10 H                     0.223626
     11 C                     0.784740
     12 C                    -1.019039
     13 H                     0.254228
     14 H                     0.188700
     15 H                     0.226934
     16 O                    -0.837429
     17 O                    -0.288021
     18 O                    -0.406738
     19 H                     0.373128
  ----------------------------------------
  Sum of atomic charges =    -2.000000

 -----------------------------------------------------------------
                    Cartesian Multipole Moments
 -----------------------------------------------------------------
    Charge (ESU x 10^10)
                -9.6064
    Dipole Moment (Debye)
         X       6.6218      Y      -8.8853      Z      10.4632
       Tot      15.2406
    Quadrupole Moments (Debye-Ang)
        XX    -102.7519     XY       2.4124     YY     -92.0182
        XZ     -34.9353     YZ       0.3419     ZZ    -134.6199
    Octopole Moments (Debye-Ang^2)
       XXX      46.0933    XXY     -22.9202    XYY      30.7730
       YYY     -82.1076    XXZ      96.8235    XYZ      -7.8401
       YYZ      40.2785    XZZ     136.1008    YZZ     -52.5029
       ZZZ     257.8785
    Hexadecapole Moments (Debye-Ang^3)
      XXXX   -1055.0109   XXXY      41.1718   XXYY    -241.8760
      XYYY      50.8128   YYYY    -428.1682   XXXZ    -585.3512
      XXYZ      20.9837   XYYZ    -197.5769   YYYZ      43.0041
      XXZZ    -714.0002   XYZZ      47.1620   YYZZ    -502.8375
      XZZZ    -833.9192   YZZZ      68.5998   ZZZZ   -2525.8090
 -----------------------------------------------------------------
 Calculating analytic gradient of the SCF energy
 Gradient of SCF Energy
            1           2           3           4           5           6
    1   0.1441666  -0.0676639   0.0331891   0.0143614  -0.1266137  -0.0501656
    2   0.0160163   0.0069850   0.0389498  -0.0538858   0.0279204  -0.0386199
    3  -0.0130805  -0.0097585   0.0285678   0.0185102   0.0161651  -0.0080074
            7           8           9          10          11          12
    1  -0.0167945  -0.0032752   0.0424308   0.0295899  -0.0267222   0.0271711
    2   0.0371426   0.0009203   0.0375882  -0.0723346  -0.0013680  -0.0220869
    3   0.0036511  -0.0014664  -0.0063040  -0.0246229  -0.0526001   0.0974865
           13          14          15          16          17          18
    1  -0.0470129  -0.0340403   0.0623988   0.0254684  -0.0243332  -0.0280570
    2  -0.0499495   0.0613102   0.0175323  -0.0185044   0.0381097  -0.0569661
    3  -0.0321061   0.0116243  -0.0396042   0.0080373   0.0187105  -0.0295635
           19
    1   0.0459024
    2   0.0312401
    3   0.0143608
 Max gradient component =       1.442E-01
 RMS gradient           =       4.354E-02
 Computing fast CPCM-ISWIG gradient
 Updating gradient with PCM contributions...
 -- total gradient after adding PCM contribution --
---------------------------------------------------
  Atom         X              Y              Z     
---------------------------------------------------
   1      -0.000033      -0.000011      -0.000017
   2      -0.000002       0.000012       0.000003
   3       0.000013      -0.000012       0.000007
   4       0.000001       0.000011      -0.000002
   5       0.000007      -0.000026       0.000066
   6       0.000011       0.000001      -0.000006
   7       0.000029       0.000007       0.000002
   8      -0.000013      -0.000010      -0.000069
   9       0.000000      -0.000004      -0.000011
  10      -0.000000       0.000002      -0.000009
  11      -0.000060       0.000068       0.000087
  12       0.000008      -0.000003      -0.000014
  13      -0.000012       0.000004       0.000004
  14       0.000002       0.000002      -0.000001
  15      -0.000005      -0.000005      -0.000003
  16       0.000026      -0.000044      -0.000009
  17       0.000041      -0.000020      -0.000043
  18      -0.000029       0.000022       0.000015
  19       0.000017       0.000007      -0.000001
---------------------------------------------------
 Number of fixed atoms: 0
 Gradient time:  CPU 1145.45 s  wall 81.63 s
 ######################################################
 ######################################################
 # Starting finite difference calculation for IDERIV  #
 Finite diff step size:  1.88973e-03 a.u.
 ----------------------------------------------------------------
             Standard Nuclear Orientation (Angstroms)
    I     Atom           X                Y                Z
 ----------------------------------------------------------------
    1      C      -0.4340709012    -0.0419873244    -1.7678488720
    2      C      -1.4791253161     0.3376385993    -2.8266134729
    3      O      -2.1181591909    -0.6032154502    -3.3688119869
    4      O      -1.6508406212     1.5649942768    -3.0528833528
    5      C      -1.1054672309    -0.1329567606    -0.3951085884
    6      H       0.3563497815     0.7107848510    -1.7357845681
    7      H       0.0023254825    -1.0147784406    -2.0170776304
    8      O      -0.2259819677    -0.5893008152     0.6240019180
    9      H      -1.9257496639    -0.8583283083    -0.4394685029
   10      H      -1.5163550344     0.8395487810    -0.1073337790
   11      C       0.4733360558     0.4479514030     1.3982011497
   12      C       0.9487305351    -0.2822927871     2.6551244956
   13      H       1.6054412618     0.3836308008     3.2208421802
   14      H       1.4865281796    -1.2041298577     2.4227080901
   15      H       0.0764180816    -0.5250926384     3.2677911932
   16      O      -0.1558612775     1.5561248383     1.5666778353
   17      O       1.6789375923     0.7768818717     0.5576660761
   18      O       2.3633210604    -0.4177299567     0.1588671874
   19      H       1.6158126019    -0.9632915330    -0.1473598516
 ----------------------------------------------------------------
 Nuclear Repulsion Energy =   655.2027998106 hartrees
 There are       44 alpha and       44 beta electrons
 Discretize the solute cavity surface with Lebedev spheres
	Using 110 Lebedev grid points for each H atom
	Using 110 Lebedev grid points for other atoms
	Atomic van der Waals radii will be scaled by 1.20
 Remove points where switching function is < 1.0e-08
 Keep 1113 surface tesserae and discard 977 interior tesserae
 Molecular Surface Area = 196.598 Angst**2
 Requested basis set is def2-TZVPD
 There are 189 shells and 497 basis functions
 A cutoff of  1.0D-14 yielded  16234 shell pairs
 There are    112406 function pairs (    143302 Cartesian)
 Smallest overlap matrix eigenvalue = 4.78E-06
 Guess MOs from SCF MO coefficient file
 Reading MOs from coefficient file
 Reading MOs from coefficient file
 Long-range K will be added via erf
 Coulomb attenuation parameter = 0.3 bohr**(-1)
 A restricted hybrid HF-DFT SCF calculation will be
 performed using Pulay DIIS extrapolation
 Polarizable Continuum solvation model will be applied
 Exchange:     0.1670 Hartree-Fock + 1.0000 wB97X-V + LR-HF
 Correlation:  1.0000 wB97X-V
 Using SG-2 standard quadrature grid
 Nonlocal Correlation:  VV10 with C = 0.0100 and b = 6.00
 Grid used for NLC:  SG-1 standard quadrature
 SCF converges when DIIS error is below 1.0E-08
Using Q-Chem read-in guess as SCF_GUESS READ specified.

 using 16 threads for integral computing
 -------------------------------------------------------
 OpenMP Integral computing Module                
 Release: version 1.0, May 2013, Q-Chem Inc. Pittsburgh 
 -------------------------------------------------------
 using 16 threads for integral computing
 -------------------------------------------------------
 OpenMP Integral computing Module                
 Release: version 1.0, May 2013, Q-Chem Inc. Pittsburgh 
 -------------------------------------------------------
 -------------------------------------------------------
 OpenMP BLAS3 based DFT computing Module                
 Release: version 1.0, May 2013, Q-Chem Inc. Pittsburgh 
 -------------------------------------------------------
 -------------------------------------------------------
 OpenMP BLAS3 based DFT computing Module                
 Release: version 1.0, May 2013, Q-Chem Inc. Pittsburgh 
 -------------------------------------------------------
 -------------------------------------------------------
 OpenMP BLAS3 based DFT computing Module                
 Release: version 1.0, May 2013, Q-Chem Inc. Pittsburgh 
 -------------------------------------------------------
 ---------------------------------------
  Cycle       Energy         DIIS Error
 ---------------------------------------
    1    -646.6579505231      3.58E-04
    2    -646.9528884862      4.12E-04
    3    -646.9596173342      1.83E-04
    4    -646.9606746089      1.32E-04
    5    -646.9613393363      9.90E-05
    6    -646.9616772620      7.83E-05
    7    -646.9619410830      5.71E-05
    8    -646.9621181733      3.66E-05
    9    -646.9622208461      1.50E-05
   10    -646.9622388157      5.35E-06
   11    -646.9622413155      1.12E-06
   12    -646.9622414238      2.36E-07
   13    -646.9622414286      3.73E-08
   14    -646.9622414287      8.31E-09 Convergence criterion met
 ---------------------------------------

************** Final PCM Free Energy Summary **************
 G_electrostatic  =      -0.30477821 hartree =    -191.25121234 kcal/mol
 G_cavitation     =       0.00000000 hartree =       0.00000000 kcal/mol
 G_dispersion     =       0.00000000 hartree =       0.00000000 kcal/mol
 G_repulsion      =       0.00000000 hartree =       0.00000000 kcal/mol
 --------------------------------------------------
 Non-electrostatic Free Energy =       0.00000000 hartree =       0.00000000 kcal/mol
 Total                         =      -0.30477821 hartree =    -191.25121234 kcal/mol
 --------------------------------------------------
 SCF Energy (H0 + V/2)                       =    -646.96224143 
 Solute Internal Energy (H0)                 =    -646.65746322 
 Total Free Energy (H0 + V/2 + non-elec)     =    -646.96224143 hartree
                                             = -405974.93387590 kcal/mol
***********************************************************

 SCF time:  CPU 4586.91 s  wall 323.94 s
 SCF   energy in the final basis set = -646.96224143
 Total energy in the final basis set = -646.96224143
 
 --------------------------------------------------------------
 
                    Orbital Energies (a.u.)
 --------------------------------------------------------------
 
 Alpha MOs
 -- Occupied --
-19.242 -19.234 -19.194 -19.140 -19.140 -19.116 -10.374 -10.341
-10.294 -10.243 -10.235  -1.233  -1.147  -1.143  -1.070  -1.049
 -0.973  -0.879  -0.833  -0.745  -0.669  -0.632  -0.604  -0.585
 -0.560  -0.544  -0.537  -0.525  -0.519  -0.511  -0.492  -0.474
 -0.467  -0.461  -0.449  -0.433  -0.405  -0.367  -0.349  -0.346
 -0.336  -0.331  -0.329  -0.317
 -- Virtual --
  0.060   0.073   0.076   0.082   0.100   0.103   0.106   0.112
  0.119   0.127   0.136   0.140   0.146   0.148   0.150   0.165
  0.167   0.176   0.177   0.183   0.186   0.187   0.198   0.212
  0.216   0.228   0.233   0.238   0.245   0.248   0.256   0.258
  0.265   0.272   0.280   0.283   0.289   0.297   0.300   0.305
  0.306   0.318   0.320   0.331   0.337   0.343   0.347   0.351
  0.353   0.361   0.366   0.370   0.375   0.378   0.385   0.393
  0.398   0.404   0.407   0.408   0.414   0.417   0.420   0.428
  0.432   0.438   0.446   0.451   0.457   0.463   0.464   0.474
  0.478   0.484   0.492   0.497   0.502   0.508   0.512   0.518
  0.522   0.525   0.532   0.536   0.539   0.551   0.554   0.555
  0.563   0.577   0.580   0.581   0.595   0.602   0.605   0.611
  0.618   0.621   0.635   0.643   0.648   0.652   0.657   0.663
  0.671   0.681   0.689   0.694   0.701   0.704   0.716   0.725
  0.729   0.734   0.739   0.744   0.754   0.762   0.766   0.770
  0.785   0.788   0.791   0.795   0.800   0.804   0.809   0.815
  0.820   0.833   0.841   0.849   0.857   0.859   0.863   0.869
  0.876   0.880   0.887   0.894   0.902   0.909   0.914   0.923
  0.931   0.941   0.957   0.969   0.979   0.988   1.001   1.016
  1.023   1.033   1.038   1.049   1.061   1.081   1.090   1.097
  1.105   1.116   1.123   1.141   1.154   1.168   1.176   1.193
  1.200   1.208   1.223   1.228   1.247   1.253   1.266   1.285
  1.303   1.313   1.333   1.339   1.341   1.358   1.367   1.375
  1.382   1.398   1.410   1.431   1.448   1.463   1.472   1.493
  1.502   1.528   1.540   1.549   1.569   1.586   1.607   1.616
  1.636   1.660   1.699   1.720   1.751   1.775   1.802   1.848
  1.877   1.890   1.902   1.907   1.920   1.939   1.961   1.971
  1.987   1.990   2.002   2.016   2.020   2.029   2.038   2.045
  2.052   2.074   2.080   2.095   2.127   2.137   2.148   2.168
  2.181   2.191   2.210   2.217   2.232   2.264   2.271   2.282
  2.313   2.336   2.356   2.369   2.384   2.391   2.399   2.433
  2.442   2.467   2.470   2.486   2.492   2.518   2.540   2.563
  2.575   2.598   2.609   2.622   2.638   2.656   2.668   2.691
  2.704   2.727   2.745   2.758   2.777   2.797   2.835   2.847
  2.868   2.886   2.908   2.920   2.943   2.959   2.970   2.973
  3.000   3.010   3.039   3.053   3.067   3.079   3.080   3.112
  3.142   3.156   3.200   3.214   3.233   3.266   3.283   3.305
  3.319   3.329   3.339   3.357   3.390   3.396   3.402   3.416
  3.436   3.446   3.460   3.486   3.505   3.522   3.526   3.540
  3.560   3.572   3.582   3.597   3.608   3.620   3.637   3.641
  3.666   3.685   3.688   3.701   3.706   3.718   3.728   3.756
  3.773   3.791   3.810   3.832   3.834   3.849   3.889   3.903
  3.916   3.929   3.975   4.016   4.050   4.069   4.106   4.119
  4.156   4.160   4.207   4.216   4.269   4.278   4.297   4.368
  4.423   4.507   4.584   4.615   4.633   4.643   4.674   4.720
  4.791   4.808   4.829   4.850   4.854   4.953   4.980   4.987
  5.083   5.114   5.173   5.177   5.221   5.318   5.320   5.333
  5.354   5.358   5.378   5.391   5.427   5.501   5.510   5.524
  5.556   5.605   5.625   5.706   5.714   5.716   5.734   5.775
  5.804   5.849   5.987   6.011   6.064   6.076   6.103   6.222
  6.265   6.293   6.304   6.311   6.323   6.401   6.452   6.484
  6.585   6.621   6.630   6.640   6.683   6.695   6.714   6.749
  6.771   6.774   6.810   6.849   6.864   6.942   6.964   6.972
  7.006   7.053   7.067   7.111   7.192   7.212   7.233   7.327
  7.343   7.358   7.379   7.410   7.418   7.527   7.574   7.646
  7.701   8.338  22.709  22.904  22.927  23.261  23.718  44.245
 44.349  44.424  44.501  44.663  44.742
 --------------------------------------------------------------
 
          Ground-State Mulliken Net Atomic Charges

     Atom                 Charge (a.u.)
  ----------------------------------------
      1 C                     0.125834
      2 C                    -0.038175
      3 O                    -0.694332
      4 O                    -0.694491
      5 C                    -0.327503
      6 H                     0.139585
      7 H                     0.251736
      8 O                    -0.458503
      9 H                     0.195707
     10 H                     0.223638
     11 C                     0.784739
     12 C                    -1.019033
     13 H                     0.254223
     14 H                     0.188688
     15 H                     0.226926
     16 O                    -0.837437
     17 O                    -0.288022
     18 O                    -0.406754
     19 H                     0.373175
  ----------------------------------------
  Sum of atomic charges =    -2.000000

 -----------------------------------------------------------------
                    Cartesian Multipole Moments
 -----------------------------------------------------------------
    Charge (ESU x 10^10)
                -9.6064
    Dipole Moment (Debye)
         X       6.6215      Y      -8.8853      Z      10.4625
       Tot      15.2399
    Quadrupole Moments (Debye-Ang)
        XX    -102.7516     XY       2.4137     YY     -92.0166
        XZ     -34.9355     YZ       0.3418     ZZ    -134.6187
    Octopole Moments (Debye-Ang^2)
       XXX      46.0777    XXY     -22.9222    XYY      30.7681
       YYY     -82.1085    XXZ      96.8229    XYZ      -7.8423
       YYZ      40.2734    XZZ     136.0911    YZZ     -52.5031
       ZZZ     257.8630
    Hexadecapole Moments (Debye-Ang^3)
      XXXX   -1054.9907   XXXY      41.1799   XXYY    -241.8726
      XYYY      50.8173   YYYY    -428.1624   XXXZ    -585.3316
      XXYZ      20.9867   XYYZ    -197.5689   YYYZ      43.0049
      XXZZ    -713.9893   XYZZ      47.1672   YYZZ    -502.8281
      XZZZ    -833.8699   YZZZ      68.6000   ZZZZ   -2525.7580
 -----------------------------------------------------------------
 Calculating analytic gradient of the SCF energy
 Gradient of SCF Energy
            1           2           3           4           5           6
    1   0.1449978  -0.0678939   0.0331902   0.0143812  -0.1268410  -0.0504890
    2   0.0159843   0.0070304   0.0389460  -0.0538790   0.0279918  -0.0388746
    3  -0.0129934  -0.0099147   0.0285418   0.0184996   0.0162685  -0.0080401
            7           8           9          10          11          12
    1  -0.0169013  -0.0032645   0.0424376   0.0295800  -0.0266940   0.0271673
    2   0.0373477   0.0009021   0.0376144  -0.0723740  -0.0013688  -0.0220951
    3   0.0036836  -0.0014859  -0.0062705  -0.0246336  -0.0526124   0.0974982
           13          14          15          16          17          18
    1  -0.0470139  -0.0340417   0.0624001   0.0254660  -0.0243355  -0.0280565
    2  -0.0499481   0.0613120   0.0175311  -0.0185071   0.0381096  -0.0569672
    3  -0.0321069   0.0116220  -0.0396063   0.0080404   0.0187101  -0.0295654
           19
    1   0.0459111
    2   0.0312444
    3   0.0143651
 Max gradient component =       1.450E-01
 RMS gradient           =       4.362E-02
 Computing fast CPCM-ISWIG gradient
 Updating gradient with PCM contributions...
 -- total gradient after adding PCM contribution --
---------------------------------------------------
  Atom         X              Y              Z     
---------------------------------------------------
   1       0.000985       0.000033      -0.000002
   2      -0.000257       0.000048      -0.000068
   3      -0.000008      -0.000023      -0.000053
   4       0.000009       0.000027      -0.000034
   5      -0.000204      -0.000035       0.000192
   6      -0.000345      -0.000254      -0.000021
   7      -0.000142       0.000181       0.000043
   8       0.000001      -0.000006      -0.000132
   9      -0.000021      -0.000005       0.000031
  10      -0.000009      -0.000003       0.000010
  11      -0.000054       0.000080       0.000088
  12       0.000006      -0.000005      -0.000014
  13      -0.000012       0.000004       0.000003
  14       0.000002       0.000002      -0.000001
  15      -0.000005      -0.000005      -0.000003
  16       0.000027      -0.000047      -0.000009
  17       0.000040      -0.000021      -0.000042
  18      -0.000030       0.000021       0.000014
  19       0.000017       0.000008      -0.000002
---------------------------------------------------
 Number of fixed atoms: 0
 Gradient time:  CPU 1148.69 s  wall 82.53 s
 ----------------------------------------------------------------
             Standard Nuclear Orientation (Angstroms)
    I     Atom           X                Y                Z
 ----------------------------------------------------------------
    1      C      -0.4360709012    -0.0419873244    -1.7678488720
    2      C      -1.4791253161     0.3376385993    -2.8266134729
    3      O      -2.1181591909    -0.6032154502    -3.3688119869
    4      O      -1.6508406212     1.5649942768    -3.0528833528
    5      C      -1.1054672309    -0.1329567606    -0.3951085884
    6      H       0.3563497815     0.7107848510    -1.7357845681
    7      H       0.0023254825    -1.0147784406    -2.0170776304
    8      O      -0.2259819677    -0.5893008152     0.6240019180
    9      H      -1.9257496639    -0.8583283083    -0.4394685029
   10      H      -1.5163550344     0.8395487810    -0.1073337790
   11      C       0.4733360558     0.4479514030     1.3982011497
   12      C       0.9487305351    -0.2822927871     2.6551244956
   13      H       1.6054412618     0.3836308008     3.2208421802
   14      H       1.4865281796    -1.2041298577     2.4227080901
   15      H       0.0764180816    -0.5250926384     3.2677911932
   16      O      -0.1558612775     1.5561248383     1.5666778353
   17      O       1.6789375923     0.7768818717     0.5576660761
   18      O       2.3633210604    -0.4177299567     0.1588671874
   19      H       1.6158126019    -0.9632915330    -0.1473598516
 ----------------------------------------------------------------
 Nuclear Repulsion Energy =   655.2173914925 hartrees
 There are       44 alpha and       44 beta electrons
 Discretize the solute cavity surface with Lebedev spheres
	Using 110 Lebedev grid points for each H atom
	Using 110 Lebedev grid points for other atoms
	Atomic van der Waals radii will be scaled by 1.20
 Remove points where switching function is < 1.0e-08
 Keep 1112 surface tesserae and discard 978 interior tesserae
 Molecular Surface Area = 196.594 Angst**2
 Requested basis set is def2-TZVPD
 There are 189 shells and 497 basis functions
 A cutoff of  1.0D-14 yielded  16234 shell pairs
 There are    112406 function pairs (    143302 Cartesian)
 Smallest overlap matrix eigenvalue = 4.77E-06
 Guess MOs from SCF MO coefficient file
 Reading MOs from coefficient file
 Reading MOs from coefficient file
 Long-range K will be added via erf
 Coulomb attenuation parameter = 0.3 bohr**(-1)
 A restricted hybrid HF-DFT SCF calculation will be
 performed using Pulay DIIS extrapolation
 Polarizable Continuum solvation model will be applied
 Exchange:     0.1670 Hartree-Fock + 1.0000 wB97X-V + LR-HF
 Correlation:  1.0000 wB97X-V
 Using SG-2 standard quadrature grid
 Nonlocal Correlation:  VV10 with C = 0.0100 and b = 6.00
 Grid used for NLC:  SG-1 standard quadrature
 SCF converges when DIIS error is below 1.0E-08
Using Q-Chem read-in guess as SCF_GUESS READ specified.

 using 16 threads for integral computing
 -------------------------------------------------------
 OpenMP Integral computing Module                
 Release: version 1.0, May 2013, Q-Chem Inc. Pittsburgh 
 -------------------------------------------------------
 using 16 threads for integral computing
 -------------------------------------------------------
 OpenMP Integral computing Module                
 Release: version 1.0, May 2013, Q-Chem Inc. Pittsburgh 
 -------------------------------------------------------
 -------------------------------------------------------
 OpenMP BLAS3 based DFT computing Module                
 Release: version 1.0, May 2013, Q-Chem Inc. Pittsburgh 
 -------------------------------------------------------
 -------------------------------------------------------
 OpenMP BLAS3 based DFT computing Module                
 Release: version 1.0, May 2013, Q-Chem Inc. Pittsburgh 
 -------------------------------------------------------
 -------------------------------------------------------
 OpenMP BLAS3 based DFT computing Module                
 Release: version 1.0, May 2013, Q-Chem Inc. Pittsburgh 
 -------------------------------------------------------
 ---------------------------------------
  Cycle       Energy         DIIS Error
 ---------------------------------------
    1    -646.6564927533      3.59E-04
    2    -646.9529024327      4.12E-04
    3    -646.9596254209      1.83E-04
    4    -646.9606828128      1.32E-04
    5    -646.9613618979      9.77E-05
    6    -646.9617362603      7.40E-05
    7    -646.9620583796      4.45E-05
    8    -646.9622039897      2.01E-05
    9    -646.9622392784      4.70E-06
   10    -646.9622411931      1.14E-06
   11    -646.9622413016      2.10E-07
   12    -646.9622413050      4.70E-08
   13    -646.9622413052      1.46E-08
   14    -646.9622413052      7.42E-09 Convergence criterion met
 ---------------------------------------

************** Final PCM Free Energy Summary **************
 G_electrostatic  =      -0.30478043 hartree =    -191.25260380 kcal/mol
 G_cavitation     =       0.00000000 hartree =       0.00000000 kcal/mol
 G_dispersion     =       0.00000000 hartree =       0.00000000 kcal/mol
 G_repulsion      =       0.00000000 hartree =       0.00000000 kcal/mol
 --------------------------------------------------
 Non-electrostatic Free Energy =       0.00000000 hartree =       0.00000000 kcal/mol
 Total                         =      -0.30478043 hartree =    -191.25260380 kcal/mol
 --------------------------------------------------
 SCF Energy (H0 + V/2)                       =    -646.96224131 
 Solute Internal Energy (H0)                 =    -646.65746088 
 Total Free Energy (H0 + V/2 + non-elec)     =    -646.96224131 hartree
                                             = -405974.93379840 kcal/mol
***********************************************************

 SCF time:  CPU 4595.81 s  wall 321.99 s
 SCF   energy in the final basis set = -646.96224131
 Total energy in the final basis set = -646.96224131
 
 --------------------------------------------------------------
 
                    Orbital Energies (a.u.)
 --------------------------------------------------------------
 
 Alpha MOs
 -- Occupied --
-19.242 -19.234 -19.194 -19.140 -19.140 -19.116 -10.374 -10.341
-10.293 -10.243 -10.235  -1.233  -1.147  -1.143  -1.070  -1.049
 -0.973  -0.879  -0.833  -0.745  -0.669  -0.632  -0.605  -0.585
 -0.561  -0.544  -0.537  -0.525  -0.519  -0.511  -0.492  -0.474
 -0.467  -0.461  -0.449  -0.433  -0.405  -0.367  -0.349  -0.346
 -0.336  -0.331  -0.329  -0.317
 -- Virtual --
  0.060   0.073   0.076   0.082   0.100   0.103   0.106   0.112
  0.119   0.127   0.136   0.140   0.146   0.148   0.150   0.165
  0.167   0.176   0.177   0.183   0.186   0.187   0.198   0.212
  0.216   0.228   0.233   0.238   0.245   0.248   0.256   0.258
  0.265   0.272   0.280   0.283   0.289   0.297   0.301   0.305
  0.306   0.318   0.320   0.331   0.337   0.343   0.347   0.351
  0.353   0.361   0.366   0.370   0.375   0.378   0.385   0.393
  0.398   0.404   0.407   0.408   0.414   0.417   0.420   0.428
  0.432   0.438   0.446   0.451   0.457   0.463   0.464   0.474
  0.478   0.484   0.492   0.497   0.502   0.508   0.512   0.518
  0.522   0.525   0.532   0.536   0.539   0.551   0.554   0.555
  0.563   0.577   0.580   0.581   0.595   0.602   0.605   0.611
  0.618   0.621   0.635   0.643   0.648   0.652   0.657   0.663
  0.671   0.681   0.689   0.694   0.701   0.704   0.716   0.725
  0.729   0.734   0.739   0.744   0.754   0.762   0.766   0.770
  0.785   0.788   0.791   0.795   0.800   0.804   0.809   0.815
  0.820   0.833   0.841   0.849   0.857   0.859   0.863   0.869
  0.876   0.880   0.887   0.894   0.902   0.909   0.914   0.923
  0.931   0.941   0.957   0.969   0.979   0.988   1.001   1.016
  1.023   1.033   1.038   1.049   1.061   1.081   1.090   1.097
  1.105   1.116   1.123   1.141   1.154   1.168   1.176   1.193
  1.200   1.208   1.223   1.228   1.247   1.253   1.266   1.285
  1.303   1.313   1.333   1.339   1.341   1.359   1.367   1.375
  1.382   1.398   1.410   1.431   1.449   1.463   1.472   1.493
  1.502   1.528   1.540   1.549   1.569   1.586   1.607   1.616
  1.636   1.660   1.700   1.720   1.751   1.775   1.802   1.848
  1.877   1.890   1.902   1.907   1.920   1.939   1.960   1.971
  1.987   1.990   2.002   2.016   2.020   2.029   2.038   2.045
  2.052   2.074   2.080   2.095   2.127   2.137   2.148   2.168
  2.181   2.192   2.210   2.218   2.232   2.264   2.271   2.282
  2.314   2.336   2.356   2.369   2.384   2.391   2.399   2.433
  2.442   2.467   2.470   2.486   2.492   2.518   2.540   2.563
  2.575   2.598   2.610   2.623   2.638   2.656   2.668   2.691
  2.704   2.727   2.745   2.758   2.777   2.797   2.835   2.848
  2.868   2.886   2.908   2.920   2.943   2.959   2.970   2.973
  3.000   3.010   3.039   3.053   3.067   3.078   3.080   3.112
  3.142   3.156   3.200   3.214   3.232   3.267   3.283   3.305
  3.318   3.329   3.339   3.357   3.390   3.396   3.402   3.416
  3.436   3.446   3.460   3.486   3.505   3.522   3.526   3.540
  3.560   3.572   3.582   3.597   3.608   3.619   3.637   3.641
  3.666   3.685   3.688   3.701   3.706   3.718   3.727   3.756
  3.772   3.791   3.810   3.832   3.835   3.849   3.889   3.903
  3.917   3.930   3.975   4.017   4.051   4.069   4.107   4.119
  4.156   4.160   4.207   4.216   4.269   4.279   4.297   4.369
  4.423   4.508   4.584   4.614   4.633   4.643   4.674   4.721
  4.792   4.808   4.829   4.850   4.854   4.953   4.980   4.987
  5.083   5.114   5.173   5.177   5.221   5.318   5.320   5.333
  5.354   5.358   5.378   5.391   5.427   5.502   5.510   5.524
  5.556   5.605   5.625   5.706   5.714   5.716   5.734   5.775
  5.804   5.849   5.987   6.011   6.064   6.076   6.103   6.222
  6.265   6.294   6.304   6.311   6.324   6.401   6.452   6.484
  6.585   6.621   6.630   6.640   6.682   6.695   6.714   6.749
  6.771   6.774   6.810   6.849   6.864   6.942   6.964   6.972
  7.006   7.053   7.067   7.111   7.192   7.212   7.233   7.327
  7.343   7.358   7.380   7.410   7.419   7.527   7.574   7.646
  7.701   8.338  22.709  22.904  22.928  23.261  23.718  44.245
 44.349  44.424  44.501  44.663  44.742
 --------------------------------------------------------------
 
          Ground-State Mulliken Net Atomic Charges

     Atom                 Charge (a.u.)
  ----------------------------------------
      1 C                     0.128262
      2 C                    -0.039835
      3 O                    -0.694323
      4 O                    -0.694475
      5 C                    -0.326680
      6 H                     0.138671
      7 H                     0.251535
      8 O                    -0.458519
      9 H                     0.195248
     10 H                     0.223614
     11 C                     0.784738
     12 C                    -1.019043
     13 H                     0.254234
     14 H                     0.188713
     15 H                     0.226942
     16 O                    -0.837421
     17 O                    -0.288020
     18 O                    -0.406723
     19 H                     0.373082
  ----------------------------------------
  Sum of atomic charges =    -2.000000

 -----------------------------------------------------------------
                    Cartesian Multipole Moments
 -----------------------------------------------------------------
    Charge (ESU x 10^10)
                -9.6064
    Dipole Moment (Debye)
         X       6.6221      Y      -8.8854      Z      10.4639
       Tot      15.2413
    Quadrupole Moments (Debye-Ang)
        XX    -102.7522     XY       2.4111     YY     -92.0198
        XZ     -34.9352     YZ       0.3420     ZZ    -134.6211
    Octopole Moments (Debye-Ang^2)
       XXX      46.1089    XXY     -22.9182    XYY      30.7780
       YYY     -82.1068    XXZ      96.8241    XYZ      -7.8380
       YYZ      40.2835    XZZ     136.1105    YZZ     -52.5029
       ZZZ     257.8941
    Hexadecapole Moments (Debye-Ang^3)
      XXXX   -1055.0309   XXXY      41.1636   XXYY    -241.8794
      XYYY      50.8083   YYYY    -428.1741   XXXZ    -585.3705
      XXYZ      20.9806   XYYZ    -197.5849   YYYZ      43.0031
      XXZZ    -714.0109   XYZZ      47.1567   YYZZ    -502.8468
      XZZZ    -833.9681   YZZZ      68.5993   ZZZZ   -2525.8591
 -----------------------------------------------------------------
 Calculating analytic gradient of the SCF energy
 Gradient of SCF Energy
            1           2           3           4           5           6
    1   0.1433354  -0.0674340   0.0331885   0.0143417  -0.1263867  -0.0498433
    2   0.0160485   0.0069404   0.0389539  -0.0538933   0.0278493  -0.0383670
    3  -0.0131689  -0.0096010   0.0285941   0.0185209   0.0160616  -0.0079750
            7           8           9          10          11          12
    1  -0.0166875  -0.0032858   0.0424245   0.0296002  -0.0267512   0.0271753
    2   0.0369388   0.0009386   0.0375626  -0.0722961  -0.0013666  -0.0220791
    3   0.0036187  -0.0014471  -0.0063374  -0.0246126  -0.0525880   0.0974761
           13          14          15          16          17          18
    1  -0.0470125  -0.0340393   0.0623983   0.0254712  -0.0243310  -0.0280578
    2  -0.0499514   0.0613092   0.0175337  -0.0185021   0.0381103  -0.0569658
    3  -0.0321057   0.0116267  -0.0396026   0.0080342   0.0187110  -0.0295616
           19
    1   0.0458941
    2   0.0312363
    3   0.0143566
 Max gradient component =       1.433E-01
 RMS gradient           =       4.345E-02
 Computing fast CPCM-ISWIG gradient
 Updating gradient with PCM contributions...
 -- total gradient after adding PCM contribution --
---------------------------------------------------
  Atom         X              Y              Z     
---------------------------------------------------
   1      -0.001049      -0.000053      -0.000032
   2       0.000254      -0.000025       0.000074
   3       0.000035      -0.000001       0.000068
   4      -0.000008      -0.000006       0.000031
   5       0.000217      -0.000017      -0.000060
   6       0.000365       0.000253       0.000009
   7       0.000201      -0.000166      -0.000038
   8      -0.000027      -0.000015      -0.000006
   9       0.000022      -0.000003      -0.000052
  10       0.000009       0.000006      -0.000029
  11      -0.000067       0.000057       0.000086
  12       0.000010      -0.000002      -0.000013
  13      -0.000011       0.000004       0.000005
  14       0.000002       0.000002      -0.000001
  15      -0.000005      -0.000005      -0.000003
  16       0.000025      -0.000040      -0.000008
  17       0.000043      -0.000019      -0.000044
  18      -0.000029       0.000021       0.000015
  19       0.000017       0.000007      -0.000001
---------------------------------------------------
 Number of fixed atoms: 0
 Gradient time:  CPU 1143.89 s  wall 81.49 s
 ----------------------------------------------------------------
             Standard Nuclear Orientation (Angstroms)
    I     Atom           X                Y                Z
 ----------------------------------------------------------------
    1      C      -0.4350709012    -0.0409873244    -1.7678488720
    2      C      -1.4791253161     0.3376385993    -2.8266134729
    3      O      -2.1181591909    -0.6032154502    -3.3688119869
    4      O      -1.6508406212     1.5649942768    -3.0528833528
    5      C      -1.1054672309    -0.1329567606    -0.3951085884
    6      H       0.3563497815     0.7107848510    -1.7357845681
    7      H       0.0023254825    -1.0147784406    -2.0170776304
    8      O      -0.2259819677    -0.5893008152     0.6240019180
    9      H      -1.9257496639    -0.8583283083    -0.4394685029
   10      H      -1.5163550344     0.8395487810    -0.1073337790
   11      C       0.4733360558     0.4479514030     1.3982011497
   12      C       0.9487305351    -0.2822927871     2.6551244956
   13      H       1.6054412618     0.3836308008     3.2208421802
   14      H       1.4865281796    -1.2041298577     2.4227080901
   15      H       0.0764180816    -0.5250926384     3.2677911932
   16      O      -0.1558612775     1.5561248383     1.5666778353
   17      O       1.6789375923     0.7768818717     0.5576660761
   18      O       2.3633210604    -0.4177299567     0.1588671874
   19      H       1.6158126019    -0.9632915330    -0.1473598516
 ----------------------------------------------------------------
 Nuclear Repulsion Energy =   655.2133173467 hartrees
 There are       44 alpha and       44 beta electrons
 Discretize the solute cavity surface with Lebedev spheres
	Using 110 Lebedev grid points for each H atom
	Using 110 Lebedev grid points for other atoms
	Atomic van der Waals radii will be scaled by 1.20
 Remove points where switching function is < 1.0e-08
 Keep 1113 surface tesserae and discard 977 interior tesserae
 Molecular Surface Area = 196.603 Angst**2
 Requested basis set is def2-TZVPD
 There are 189 shells and 497 basis functions
 A cutoff of  1.0D-14 yielded  16234 shell pairs
 There are    112406 function pairs (    143302 Cartesian)
 Smallest overlap matrix eigenvalue = 4.78E-06
 Guess MOs from SCF MO coefficient file
 Reading MOs from coefficient file
 Reading MOs from coefficient file
 Long-range K will be added via erf
 Coulomb attenuation parameter = 0.3 bohr**(-1)
 A restricted hybrid HF-DFT SCF calculation will be
 performed using Pulay DIIS extrapolation
 Polarizable Continuum solvation model will be applied
 Exchange:     0.1670 Hartree-Fock + 1.0000 wB97X-V + LR-HF
 Correlation:  1.0000 wB97X-V
 Using SG-2 standard quadrature grid
 Nonlocal Correlation:  VV10 with C = 0.0100 and b = 6.00
 Grid used for NLC:  SG-1 standard quadrature
 SCF converges when DIIS error is below 1.0E-08
Using Q-Chem read-in guess as SCF_GUESS READ specified.

 using 16 threads for integral computing
 -------------------------------------------------------
 OpenMP Integral computing Module                
 Release: version 1.0, May 2013, Q-Chem Inc. Pittsburgh 
 -------------------------------------------------------
 using 16 threads for integral computing
 -------------------------------------------------------
 OpenMP Integral computing Module                
 Release: version 1.0, May 2013, Q-Chem Inc. Pittsburgh 
 -------------------------------------------------------
 -------------------------------------------------------
 OpenMP BLAS3 based DFT computing Module                
 Release: version 1.0, May 2013, Q-Chem Inc. Pittsburgh 
 -------------------------------------------------------
 -------------------------------------------------------
 OpenMP BLAS3 based DFT computing Module                
 Release: version 1.0, May 2013, Q-Chem Inc. Pittsburgh 
 -------------------------------------------------------
 -------------------------------------------------------
 OpenMP BLAS3 based DFT computing Module                
 Release: version 1.0, May 2013, Q-Chem Inc. Pittsburgh 
 -------------------------------------------------------
 ---------------------------------------
  Cycle       Energy         DIIS Error
 ---------------------------------------
    1    -646.6577742117      3.59E-04
    2    -646.9528759976      4.13E-04
    3    -646.9596161672      1.83E-04
    4    -646.9606756373      1.32E-04
    5    -646.9613471486      9.86E-05
    6    -646.9616986890      7.68E-05
    7    -646.9619882179      5.24E-05
    8    -646.9621626061      2.92E-05
    9    -646.9622335511      9.15E-06
   10    -646.9622406311      2.61E-06
   11    -646.9622412282      4.29E-07
   12    -646.9622412437      7.95E-08
   13    -646.9622412442      1.54E-08
   14    -646.9622412442      7.91E-09 Convergence criterion met
 ---------------------------------------

************** Final PCM Free Energy Summary **************
 G_electrostatic  =      -0.30477495 hartree =    -191.24916785 kcal/mol
 G_cavitation     =       0.00000000 hartree =       0.00000000 kcal/mol
 G_dispersion     =       0.00000000 hartree =       0.00000000 kcal/mol
 G_repulsion      =       0.00000000 hartree =       0.00000000 kcal/mol
 --------------------------------------------------
 Non-electrostatic Free Energy =       0.00000000 hartree =       0.00000000 kcal/mol
 Total                         =      -0.30477495 hartree =    -191.24916785 kcal/mol
 --------------------------------------------------
 SCF Energy (H0 + V/2)                       =    -646.96224124 
 Solute Internal Energy (H0)                 =    -646.65746629 
 Total Free Energy (H0 + V/2 + non-elec)     =    -646.96224124 hartree
                                             = -405974.93376010 kcal/mol
***********************************************************

 SCF time:  CPU 4608.03 s  wall 325.48 s
 SCF   energy in the final basis set = -646.96224124
 Total energy in the final basis set = -646.96224124
 
 --------------------------------------------------------------
 
                    Orbital Energies (a.u.)
 --------------------------------------------------------------
 
 Alpha MOs
 -- Occupied --
-19.242 -19.234 -19.194 -19.140 -19.140 -19.116 -10.374 -10.341
-10.294 -10.243 -10.235  -1.233  -1.147  -1.143  -1.070  -1.049
 -0.973  -0.879  -0.833  -0.745  -0.669  -0.632  -0.605  -0.585
 -0.561  -0.544  -0.537  -0.525  -0.519  -0.511  -0.492  -0.474
 -0.467  -0.461  -0.449  -0.433  -0.405  -0.367  -0.349  -0.346
 -0.336  -0.331  -0.329  -0.317
 -- Virtual --
  0.060   0.073   0.076   0.082   0.100   0.103   0.106   0.112
  0.119   0.127   0.136   0.140   0.146   0.148   0.150   0.165
  0.167   0.176   0.177   0.183   0.186   0.187   0.198   0.212
  0.216   0.228   0.233   0.238   0.245   0.248   0.256   0.258
  0.265   0.272   0.280   0.283   0.289   0.297   0.301   0.305
  0.306   0.318   0.320   0.331   0.337   0.343   0.347   0.351
  0.353   0.361   0.366   0.370   0.375   0.378   0.385   0.393
  0.398   0.404   0.407   0.408   0.414   0.417   0.420   0.428
  0.432   0.438   0.446   0.451   0.457   0.463   0.464   0.474
  0.478   0.484   0.492   0.497   0.502   0.508   0.512   0.518
  0.522   0.525   0.532   0.536   0.539   0.551   0.554   0.555
  0.563   0.577   0.580   0.581   0.595   0.602   0.605   0.611
  0.618   0.621   0.635   0.643   0.648   0.652   0.657   0.663
  0.671   0.681   0.689   0.694   0.701   0.704   0.716   0.725
  0.729   0.734   0.739   0.744   0.754   0.762   0.766   0.770
  0.785   0.788   0.791   0.795   0.800   0.804   0.809   0.815
  0.820   0.833   0.841   0.849   0.857   0.859   0.863   0.869
  0.876   0.880   0.887   0.894   0.902   0.909   0.914   0.923
  0.931   0.941   0.957   0.969   0.979   0.988   1.001   1.016
  1.023   1.033   1.038   1.049   1.061   1.081   1.090   1.097
  1.105   1.116   1.123   1.141   1.154   1.168   1.176   1.193
  1.200   1.208   1.223   1.228   1.247   1.253   1.266   1.285
  1.303   1.313   1.333   1.339   1.341   1.359   1.367   1.375
  1.382   1.398   1.410   1.431   1.448   1.463   1.472   1.493
  1.502   1.528   1.540   1.549   1.569   1.586   1.607   1.616
  1.636   1.660   1.699   1.720   1.751   1.775   1.802   1.848
  1.877   1.890   1.902   1.907   1.920   1.939   1.960   1.971
  1.987   1.990   2.002   2.016   2.020   2.029   2.038   2.045
  2.052   2.074   2.080   2.095   2.127   2.137   2.148   2.168
  2.181   2.192   2.210   2.217   2.232   2.264   2.272   2.282
  2.313   2.336   2.356   2.369   2.384   2.391   2.399   2.433
  2.442   2.467   2.470   2.486   2.492   2.518   2.540   2.562
  2.575   2.598   2.610   2.622   2.638   2.656   2.668   2.691
  2.704   2.727   2.745   2.758   2.777   2.797   2.835   2.847
  2.868   2.886   2.908   2.920   2.943   2.959   2.970   2.973
  3.000   3.010   3.039   3.053   3.067   3.078   3.080   3.112
  3.142   3.156   3.200   3.214   3.232   3.267   3.283   3.305
  3.319   3.329   3.339   3.357   3.390   3.396   3.402   3.416
  3.436   3.446   3.460   3.486   3.505   3.522   3.526   3.540
  3.560   3.572   3.582   3.597   3.608   3.619   3.637   3.641
  3.666   3.685   3.688   3.701   3.706   3.718   3.727   3.756
  3.773   3.791   3.810   3.831   3.835   3.849   3.889   3.903
  3.917   3.929   3.975   4.017   4.051   4.069   4.107   4.119
  4.156   4.160   4.207   4.216   4.269   4.278   4.297   4.369
  4.423   4.508   4.584   4.615   4.632   4.643   4.674   4.720
  4.791   4.808   4.829   4.850   4.854   4.953   4.980   4.987
  5.083   5.114   5.173   5.177   5.221   5.318   5.320   5.333
  5.354   5.358   5.378   5.391   5.427   5.502   5.510   5.524
  5.556   5.605   5.625   5.706   5.714   5.716   5.734   5.775
  5.804   5.849   5.987   6.011   6.064   6.076   6.103   6.222
  6.265   6.293   6.304   6.311   6.324   6.401   6.452   6.484
  6.585   6.621   6.630   6.640   6.683   6.695   6.714   6.749
  6.771   6.774   6.810   6.849   6.864   6.942   6.964   6.972
  7.006   7.053   7.067   7.111   7.192   7.212   7.233   7.327
  7.343   7.358   7.379   7.410   7.419   7.527   7.574   7.646
  7.701   8.338  22.709  22.904  22.928  23.261  23.718  44.245
 44.349  44.424  44.501  44.663  44.742
 --------------------------------------------------------------
 
          Ground-State Mulliken Net Atomic Charges

     Atom                 Charge (a.u.)
  ----------------------------------------
      1 C                     0.127449
      2 C                    -0.039225
      3 O                    -0.694354
      4 O                    -0.694480
      5 C                    -0.327076
      6 H                     0.139854
      7 H                     0.250737
      8 O                    -0.458576
      9 H                     0.195484
     10 H                     0.223582
     11 C                     0.784813
     12 C                    -1.019039
     13 H                     0.254226
     14 H                     0.188706
     15 H                     0.226943
     16 O                    -0.837405
     17 O                    -0.288051
     18 O                    -0.406740
     19 H                     0.373150
  ----------------------------------------
  Sum of atomic charges =    -2.000000

 -----------------------------------------------------------------
                    Cartesian Multipole Moments
 -----------------------------------------------------------------
    Charge (ESU x 10^10)
                -9.6064
    Dipole Moment (Debye)
         X       6.6221      Y      -8.8845      Z      10.4638
       Tot      15.2407
    Quadrupole Moments (Debye-Ang)
        XX    -102.7508     XY       2.4154     YY     -92.0201
        XZ     -34.9354     YZ       0.3400     ZZ    -134.6213
    Octopole Moments (Debye-Ang^2)
       XXX      46.0917    XXY     -22.9294    XYY      30.7750
       YYY     -82.1206    XXZ      96.8216    XYZ      -7.8463
       YYZ      40.2849    XZZ     136.1007    YZZ     -52.5074
       ZZZ     257.8851
    Hexadecapole Moments (Debye-Ang^3)
      XXXX   -1054.9951   XXXY      41.1957   XXYY    -241.8799
      XYYY      50.8286   YYYY    -428.1767   XXXZ    -585.3430
      XXYZ      21.0020   XYYZ    -197.5840   YYYZ      43.0295
      XXZZ    -713.9908   XYZZ      47.1880   YYZZ    -502.8565
      XZZZ    -833.9110   YZZZ      68.6358   ZZZZ   -2525.8154
 -----------------------------------------------------------------
 Calculating analytic gradient of the SCF energy
 Gradient of SCF Energy
            1           2           3           4           5           6
    1   0.1442744  -0.0676562   0.0331715   0.0143847  -0.1266179  -0.0504754
    2   0.0169558   0.0069351   0.0389671  -0.0538932   0.0276977  -0.0389133
    3  -0.0129751  -0.0097172   0.0285532   0.0185328   0.0161150  -0.0080313
            7           8           9          10          11          12
    1  -0.0165997  -0.0032620   0.0423946   0.0296214  -0.0267441   0.0271731
    2   0.0367230   0.0009066   0.0376117  -0.0723246  -0.0013471  -0.0220919
    3   0.0035411  -0.0014683  -0.0062955  -0.0246320  -0.0525844   0.0974896
           13          14          15          16          17          18
    1  -0.0470144  -0.0340397   0.0623988   0.0254665  -0.0243235  -0.0280587
    2  -0.0499492   0.0613097   0.0175325  -0.0185063   0.0381101  -0.0569662
    3  -0.0321092   0.0116263  -0.0396042   0.0080448   0.0187107  -0.0295639
           19
    1   0.0459066
    2   0.0312423
    3   0.0143675
 Max gradient component =       1.443E-01
 RMS gradient           =       4.355E-02
 Computing fast CPCM-ISWIG gradient
 Updating gradient with PCM contributions...
 -- total gradient after adding PCM contribution --
---------------------------------------------------
  Atom         X              Y              Z     
---------------------------------------------------
   1       0.000013       0.001158       0.000038
   2       0.000031      -0.000133       0.000033
   3      -0.000034      -0.000012      -0.000040
   4       0.000054      -0.000041       0.000058
   5       0.000003      -0.000174       0.000059
   6      -0.000236      -0.000344      -0.000017
   7       0.000192      -0.000479      -0.000101
   8      -0.000012      -0.000009      -0.000038
   9      -0.000024      -0.000005       0.000029
  10       0.000026       0.000009      -0.000057
  11      -0.000061       0.000062       0.000083
  12       0.000009      -0.000003      -0.000013
  13      -0.000012       0.000004       0.000005
  14       0.000002       0.000002      -0.000001
  15      -0.000005      -0.000005      -0.000004
  16       0.000023      -0.000042      -0.000009
  17       0.000044      -0.000020      -0.000040
  18      -0.000031       0.000022       0.000015
  19       0.000018       0.000009      -0.000000
---------------------------------------------------
 Number of fixed atoms: 0
 Gradient time:  CPU 1145.19 s  wall 82.43 s
 ----------------------------------------------------------------
             Standard Nuclear Orientation (Angstroms)
    I     Atom           X                Y                Z
 ----------------------------------------------------------------
    1      C      -0.4350709012    -0.0429873244    -1.7678488720
    2      C      -1.4791253161     0.3376385993    -2.8266134729
    3      O      -2.1181591909    -0.6032154502    -3.3688119869
    4      O      -1.6508406212     1.5649942768    -3.0528833528
    5      C      -1.1054672309    -0.1329567606    -0.3951085884
    6      H       0.3563497815     0.7107848510    -1.7357845681
    7      H       0.0023254825    -1.0147784406    -2.0170776304
    8      O      -0.2259819677    -0.5893008152     0.6240019180
    9      H      -1.9257496639    -0.8583283083    -0.4394685029
   10      H      -1.5163550344     0.8395487810    -0.1073337790
   11      C       0.4733360558     0.4479514030     1.3982011497
   12      C       0.9487305351    -0.2822927871     2.6551244956
   13      H       1.6054412618     0.3836308008     3.2208421802
   14      H       1.4865281796    -1.2041298577     2.4227080901
   15      H       0.0764180816    -0.5250926384     3.2677911932
   16      O      -0.1558612775     1.5561248383     1.5666778353
   17      O       1.6789375923     0.7768818717     0.5576660761
   18      O       2.3633210604    -0.4177299567     0.1588671874
   19      H       1.6158126019    -0.9632915330    -0.1473598516
 ----------------------------------------------------------------
 Nuclear Repulsion Energy =   655.2068651047 hartrees
 There are       44 alpha and       44 beta electrons
 Discretize the solute cavity surface with Lebedev spheres
	Using 110 Lebedev grid points for each H atom
	Using 110 Lebedev grid points for other atoms
	Atomic van der Waals radii will be scaled by 1.20
 Remove points where switching function is < 1.0e-08
 Keep 1112 surface tesserae and discard 978 interior tesserae
 Molecular Surface Area = 196.590 Angst**2
 Requested basis set is def2-TZVPD
 There are 189 shells and 497 basis functions
 A cutoff of  1.0D-14 yielded  16234 shell pairs
 There are    112406 function pairs (    143302 Cartesian)
 Smallest overlap matrix eigenvalue = 4.78E-06
 Guess MOs from SCF MO coefficient file
 Reading MOs from coefficient file
 Reading MOs from coefficient file
 Long-range K will be added via erf
 Coulomb attenuation parameter = 0.3 bohr**(-1)
 A restricted hybrid HF-DFT SCF calculation will be
 performed using Pulay DIIS extrapolation
 Polarizable Continuum solvation model will be applied
 Exchange:     0.1670 Hartree-Fock + 1.0000 wB97X-V + LR-HF
 Correlation:  1.0000 wB97X-V
 Using SG-2 standard quadrature grid
 Nonlocal Correlation:  VV10 with C = 0.0100 and b = 6.00
 Grid used for NLC:  SG-1 standard quadrature
 SCF converges when DIIS error is below 1.0E-08
Using Q-Chem read-in guess as SCF_GUESS READ specified.

 using 16 threads for integral computing
 -------------------------------------------------------
 OpenMP Integral computing Module                
 Release: version 1.0, May 2013, Q-Chem Inc. Pittsburgh 
 -------------------------------------------------------
 using 16 threads for integral computing
 -------------------------------------------------------
 OpenMP Integral computing Module                
 Release: version 1.0, May 2013, Q-Chem Inc. Pittsburgh 
 -------------------------------------------------------
 -------------------------------------------------------
 OpenMP BLAS3 based DFT computing Module                
 Release: version 1.0, May 2013, Q-Chem Inc. Pittsburgh 
 -------------------------------------------------------
 -------------------------------------------------------
 OpenMP BLAS3 based DFT computing Module                
 Release: version 1.0, May 2013, Q-Chem Inc. Pittsburgh 
 -------------------------------------------------------
 -------------------------------------------------------
 OpenMP BLAS3 based DFT computing Module                
 Release: version 1.0, May 2013, Q-Chem Inc. Pittsburgh 
 -------------------------------------------------------
 ---------------------------------------
  Cycle       Energy         DIIS Error
 ---------------------------------------
    1    -646.6578221189      3.58E-04
    2    -646.9529158347      4.11E-04
    3    -646.9596271131      1.83E-04
    4    -646.9606831886      1.32E-04
    5    -646.9613573929      9.79E-05
    6    -646.9617333296      7.42E-05
    7    -646.9620595813      4.43E-05
    8    -646.9622041931      2.00E-05
    9    -646.9622393036      4.54E-06
   10    -646.9622410890      1.15E-06
   11    -646.9622411988      2.06E-07
   12    -646.9622412021      4.94E-08
   13    -646.9622412022      1.46E-08
   14    -646.9622412022      7.10E-09 Convergence criterion met
 ---------------------------------------

************** Final PCM Free Energy Summary **************
 G_electrostatic  =      -0.30478369 hartree =    -191.25465052 kcal/mol
 G_cavitation     =       0.00000000 hartree =       0.00000000 kcal/mol
 G_dispersion     =       0.00000000 hartree =       0.00000000 kcal/mol
 G_repulsion      =       0.00000000 hartree =       0.00000000 kcal/mol
 --------------------------------------------------
 Non-electrostatic Free Energy =       0.00000000 hartree =       0.00000000 kcal/mol
 Total                         =      -0.30478369 hartree =    -191.25465052 kcal/mol
 --------------------------------------------------
 SCF Energy (H0 + V/2)                       =    -646.96224120 
 Solute Internal Energy (H0)                 =    -646.65745751 
 Total Free Energy (H0 + V/2 + non-elec)     =    -646.96224120 hartree
                                             = -405974.93373379 kcal/mol
***********************************************************

 SCF time:  CPU 4592.12 s  wall 321.94 s
 SCF   energy in the final basis set = -646.96224120
 Total energy in the final basis set = -646.96224120
 
 --------------------------------------------------------------
 
                    Orbital Energies (a.u.)
 --------------------------------------------------------------
 
 Alpha MOs
 -- Occupied --
-19.242 -19.234 -19.194 -19.140 -19.140 -19.116 -10.374 -10.341
-10.293 -10.243 -10.235  -1.233  -1.147  -1.143  -1.070  -1.049
 -0.973  -0.879  -0.833  -0.745  -0.669  -0.632  -0.604  -0.585
 -0.560  -0.544  -0.537  -0.525  -0.519  -0.511  -0.492  -0.474
 -0.467  -0.461  -0.449  -0.433  -0.405  -0.367  -0.349  -0.346
 -0.336  -0.331  -0.329  -0.317
 -- Virtual --
  0.060   0.073   0.076   0.082   0.100   0.103   0.106   0.112
  0.119   0.127   0.136   0.140   0.146   0.148   0.150   0.165
  0.167   0.176   0.177   0.183   0.186   0.187   0.198   0.212
  0.216   0.228   0.233   0.238   0.245   0.248   0.256   0.258
  0.265   0.272   0.280   0.283   0.289   0.297   0.300   0.305
  0.306   0.318   0.320   0.331   0.337   0.343   0.347   0.351
  0.353   0.361   0.366   0.370   0.375   0.378   0.385   0.393
  0.398   0.404   0.407   0.408   0.414   0.417   0.420   0.428
  0.432   0.438   0.446   0.451   0.457   0.463   0.464   0.474
  0.478   0.484   0.492   0.497   0.502   0.508   0.512   0.518
  0.522   0.525   0.532   0.536   0.539   0.551   0.554   0.555
  0.563   0.577   0.580   0.581   0.595   0.602   0.605   0.611
  0.618   0.621   0.635   0.643   0.648   0.652   0.657   0.663
  0.671   0.681   0.689   0.694   0.701   0.704   0.716   0.725
  0.729   0.734   0.739   0.744   0.754   0.762   0.766   0.770
  0.785   0.788   0.791   0.795   0.800   0.804   0.809   0.815
  0.820   0.833   0.841   0.849   0.857   0.859   0.863   0.869
  0.876   0.880   0.887   0.894   0.902   0.909   0.914   0.923
  0.931   0.941   0.957   0.969   0.979   0.988   1.001   1.016
  1.023   1.033   1.038   1.049   1.061   1.081   1.090   1.097
  1.105   1.116   1.123   1.141   1.154   1.168   1.176   1.193
  1.200   1.208   1.223   1.227   1.247   1.253   1.266   1.285
  1.303   1.313   1.333   1.338   1.341   1.358   1.367   1.375
  1.382   1.398   1.410   1.431   1.448   1.463   1.472   1.493
  1.502   1.528   1.540   1.549   1.569   1.586   1.607   1.616
  1.636   1.660   1.700   1.720   1.751   1.775   1.802   1.848
  1.877   1.890   1.902   1.907   1.920   1.939   1.960   1.971
  1.987   1.990   2.002   2.016   2.020   2.029   2.038   2.045
  2.052   2.074   2.080   2.095   2.127   2.137   2.148   2.168
  2.181   2.191   2.210   2.217   2.232   2.264   2.271   2.282
  2.314   2.336   2.356   2.369   2.384   2.391   2.399   2.433
  2.442   2.467   2.470   2.486   2.492   2.518   2.540   2.563
  2.575   2.598   2.610   2.622   2.638   2.656   2.668   2.691
  2.704   2.727   2.745   2.758   2.777   2.797   2.835   2.848
  2.868   2.886   2.908   2.920   2.943   2.959   2.970   2.973
  3.000   3.010   3.039   3.053   3.067   3.079   3.080   3.112
  3.142   3.156   3.200   3.214   3.232   3.267   3.283   3.305
  3.319   3.329   3.339   3.357   3.390   3.396   3.402   3.416
  3.436   3.446   3.460   3.486   3.505   3.522   3.526   3.540
  3.560   3.572   3.582   3.597   3.608   3.619   3.637   3.641
  3.666   3.685   3.688   3.701   3.706   3.718   3.728   3.756
  3.772   3.791   3.810   3.832   3.835   3.849   3.889   3.902
  3.916   3.930   3.975   4.017   4.051   4.069   4.107   4.119
  4.156   4.160   4.207   4.216   4.268   4.279   4.297   4.369
  4.423   4.507   4.584   4.615   4.633   4.643   4.674   4.721
  4.791   4.808   4.829   4.850   4.854   4.953   4.980   4.987
  5.083   5.114   5.173   5.177   5.221   5.318   5.320   5.333
  5.354   5.358   5.378   5.391   5.427   5.501   5.510   5.524
  5.556   5.605   5.625   5.706   5.714   5.716   5.734   5.775
  5.804   5.849   5.987   6.011   6.064   6.076   6.103   6.222
  6.265   6.293   6.304   6.311   6.323   6.401   6.452   6.484
  6.585   6.621   6.630   6.640   6.682   6.695   6.714   6.749
  6.771   6.774   6.810   6.848   6.864   6.942   6.964   6.972
  7.006   7.053   7.067   7.111   7.192   7.212   7.233   7.327
  7.343   7.358   7.379   7.410   7.419   7.527   7.574   7.646
  7.701   8.338  22.709  22.904  22.928  23.261  23.718  44.245
 44.349  44.424  44.501  44.663  44.742
 --------------------------------------------------------------
 
          Ground-State Mulliken Net Atomic Charges

     Atom                 Charge (a.u.)
  ----------------------------------------
      1 C                     0.126639
      2 C                    -0.038784
      3 O                    -0.694301
      4 O                    -0.694485
      5 C                    -0.327108
      6 H                     0.138405
      7 H                     0.252539
      8 O                    -0.458446
      9 H                     0.195470
     10 H                     0.223669
     11 C                     0.784664
     12 C                    -1.019038
     13 H                     0.254231
     14 H                     0.188695
     15 H                     0.226925
     16 O                    -0.837454
     17 O                    -0.287991
     18 O                    -0.406737
     19 H                     0.373107
  ----------------------------------------
  Sum of atomic charges =    -2.000000

 -----------------------------------------------------------------
                    Cartesian Multipole Moments
 -----------------------------------------------------------------
    Charge (ESU x 10^10)
[...]
 Red. Mass:       1.5516                 3.4731                 2.5727
 IR Active:          YES                    YES                    YES
 IR Intens:       25.656                288.190                169.408
 Raman Active:       YES                    YES                    YES
               X      Y      Z        X      Y      Z        X      Y      Z
 C          0.018  0.157  0.029   -0.000  0.008  0.012    0.002  0.002 -0.006
 C          0.006  0.003 -0.005   -0.030  0.004  0.017   -0.011  0.001  0.014
 O         -0.036 -0.026 -0.031    0.007  0.010 -0.000   -0.000 -0.003 -0.004
 O          0.018 -0.050  0.023    0.004 -0.017 -0.002    0.003 -0.002 -0.001
 C         -0.007 -0.098 -0.032   -0.147  0.085 -0.207   -0.051  0.029 -0.055
 H          0.398 -0.262  0.427    0.008 -0.012  0.174    0.010 -0.014  0.129
 H         -0.466  0.046 -0.395   -0.043 -0.038  0.140   -0.009 -0.007  0.016
 O          0.004  0.049  0.010    0.151 -0.073  0.180    0.051 -0.019  0.030
 H         -0.224  0.146  0.070   -0.082  0.028 -0.113   -0.043  0.018 -0.087
 H          0.294  0.041 -0.050   -0.078  0.098 -0.211   -0.112  0.040 -0.176
 C         -0.003 -0.003  0.003    0.140  0.010 -0.137    0.046  0.053  0.300
 C          0.001  0.009  0.003   -0.143 -0.040  0.043   -0.007 -0.089 -0.147
 H          0.011 -0.018  0.022    0.108  0.070 -0.357   -0.299  0.439 -0.428
 H         -0.017  0.008 -0.033    0.160  0.184 -0.188    0.147 -0.086  0.301
 H         -0.007 -0.007 -0.016    0.273 -0.284  0.520   -0.134  0.394 -0.148
 O          0.009 -0.021 -0.004   -0.042  0.032  0.033   -0.005 -0.013 -0.054
 O         -0.008  0.004  0.003   -0.008 -0.007 -0.005   -0.012 -0.017 -0.023
 O          0.002 -0.004 -0.001    0.001 -0.001  0.002    0.010  0.002 -0.001
 H          0.003 -0.006 -0.001   -0.005  0.014 -0.026   -0.048  0.081 -0.015
 TransDip   0.019  0.158  0.030   -0.007 -0.071 -0.539   -0.052  0.222  0.349

 Mode:                31                     32                     33
 Frequency:      1229.57                1280.43                1326.42
 Force Cnst:      1.2025                 1.3917                 1.1421
 Red. Mass:       1.3500                 1.4407                 1.1018
 IR Active:          YES                    YES                    YES
 IR Intens:       23.785                  6.540                  0.934
 Raman Active:       YES                    YES                    YES
               X      Y      Z        X      Y      Z        X      Y      Z
 C          0.007  0.037  0.005   -0.017  0.018 -0.167   -0.011 -0.067  0.011
 C         -0.009 -0.014  0.000   -0.062  0.011  0.019    0.007  0.007 -0.000
 O          0.014  0.015  0.011    0.025  0.025  0.009   -0.004 -0.006 -0.003
 O         -0.005  0.018 -0.006    0.013 -0.035  0.001   -0.001 -0.002  0.001
 C         -0.039 -0.130 -0.047    0.039  0.005 -0.013   -0.011  0.029 -0.020
 H          0.007  0.052 -0.513    0.054 -0.089  0.655   -0.098  0.015  0.205
 H         -0.017 -0.124  0.569    0.088 -0.125  0.576    0.081  0.062 -0.327
 O          0.018  0.061  0.022   -0.028  0.005 -0.001    0.008  0.036  0.012
 H         -0.321  0.190 -0.183    0.097 -0.073  0.199   -0.016  0.062 -0.588
 H          0.377 -0.035  0.221    0.069 -0.079  0.317    0.123 -0.120  0.663
 C         -0.005  0.010  0.013    0.004 -0.000  0.003    0.007 -0.008  0.005
 C          0.002 -0.002 -0.002    0.000  0.000  0.001    0.000 -0.002  0.005
 H         -0.010  0.014 -0.009   -0.001  0.001  0.001    0.001  0.020 -0.024
 H         -0.000 -0.002 -0.003    0.000  0.001 -0.003   -0.002  0.007 -0.032
 H         -0.011  0.017 -0.012   -0.001  0.003 -0.000   -0.019  0.010 -0.019
 O          0.009 -0.023 -0.007   -0.002  0.000 -0.001   -0.001 -0.001 -0.002
 O         -0.006 -0.003  0.001    0.001  0.002  0.001   -0.002 -0.002 -0.001
 O          0.001 -0.001 -0.000   -0.002 -0.001 -0.000    0.002 -0.000  0.000
 H         -0.005  0.011 -0.005    0.012 -0.009 -0.015   -0.017  0.022  0.003
 TransDip  -0.114 -0.098 -0.041    0.037  0.004  0.073    0.006  0.013 -0.028

 Mode:                34                     35                     36
 Frequency:      1367.11                1391.36                1411.97
 Force Cnst:      1.6841                 1.4130                 1.5835
 Red. Mass:       1.5294                 1.2388                 1.3481
 IR Active:          YES                    YES                    YES
 IR Intens:      135.464                 43.914                175.563
 Raman Active:       YES                    YES                    YES
               X      Y      Z        X      Y      Z        X      Y      Z
 C         -0.010 -0.004 -0.021    0.024 -0.006  0.046   -0.017  0.005 -0.037
 C          0.000  0.001  0.005   -0.015  0.006 -0.021   -0.026  0.009 -0.020
 O          0.000 -0.001 -0.001    0.005  0.007  0.006    0.012  0.013  0.010
 O          0.001 -0.001 -0.000    0.001 -0.009  0.003    0.005 -0.020  0.005
 C          0.002  0.005  0.027   -0.006  0.012 -0.077    0.013 -0.013  0.091
 H         -0.007 -0.011  0.094    0.001  0.026 -0.131    0.024 -0.039  0.126
 H          0.021 -0.001  0.023   -0.024  0.010 -0.099    0.043 -0.005  0.093
 O          0.026 -0.004  0.019   -0.026  0.004 -0.006    0.020  0.001  0.010
 H         -0.058  0.084 -0.231    0.105 -0.136  0.444   -0.081  0.119 -0.425
 H         -0.080  0.013 -0.108    0.092 -0.062  0.318   -0.084  0.075 -0.352
 C         -0.066  0.116 -0.008    0.019 -0.021  0.018   -0.042  0.043 -0.055
 C         -0.027  0.040 -0.119   -0.013  0.023 -0.042    0.021 -0.022  0.052
 H         -0.057 -0.341  0.391    0.005 -0.113  0.101    0.021  0.109 -0.107
 H          0.055 -0.088  0.542    0.008 -0.018  0.157   -0.023 -0.002 -0.133
 H          0.351 -0.122  0.383    0.104 -0.062  0.095   -0.114  0.022 -0.122
 O          0.043 -0.073 -0.007   -0.009  0.014  0.001    0.013 -0.020  0.005
 O         -0.010 -0.007  0.011   -0.017 -0.041 -0.017   -0.019 -0.045 -0.008
 O          0.002 -0.002 -0.002    0.049  0.001  0.004    0.049  0.001  0.003
 H          0.026 -0.022 -0.022   -0.444  0.568  0.143   -0.441  0.562  0.154
 TransDip  -0.153  0.283  0.189   -0.171  0.118 -0.040   -0.302  0.297 -0.029

 Mode:                37                     38                     39
 Frequency:      1426.94                1437.18                1467.42
 Force Cnst:      4.8593                 3.2310                 1.4264
 Red. Mass:       4.0505                 2.6550                 1.1243
 IR Active:          YES                    YES                    YES
 IR Intens:      321.377                364.657                 20.755
 Raman Active:       YES                    YES                    YES
               X      Y      Z        X      Y      Z        X      Y      Z
 C         -0.010  0.018 -0.096    0.014 -0.010  0.025   -0.005 -0.001  0.004
 C          0.272 -0.094  0.267    0.027 -0.008  0.024    0.010 -0.003  0.010
 O         -0.117 -0.130 -0.103   -0.013 -0.014 -0.011   -0.004 -0.005 -0.004
 O         -0.047  0.186 -0.056   -0.005  0.019 -0.005   -0.002  0.007 -0.002
 C         -0.008 -0.000  0.004    0.006  0.037 -0.090    0.016  0.006 -0.026
 H         -0.328  0.311  0.229   -0.031  0.037 -0.050    0.026 -0.032 -0.015
 H         -0.436 -0.214  0.171   -0.034  0.004 -0.091    0.042  0.025 -0.017
 O         -0.003  0.001  0.012    0.012 -0.020  0.028    0.006 -0.004  0.007
 H          0.165 -0.172 -0.069    0.010  0.003  0.430   -0.081  0.101  0.116
 H          0.228  0.108 -0.061   -0.124 -0.125  0.304   -0.142 -0.090  0.087
 C          0.004 -0.023 -0.007   -0.134  0.245 -0.088   -0.038  0.061  0.004
 C         -0.001  0.010 -0.000    0.047 -0.099  0.072   -0.027  0.023  0.032
 H          0.032 -0.015 -0.014   -0.245  0.227  0.053    0.511 -0.148 -0.396
 H         -0.025 -0.016  0.036    0.090  0.064 -0.407    0.170  0.039  0.356
 H          0.005 -0.066 -0.022   -0.136  0.468  0.048   -0.215 -0.343 -0.396
 O         -0.007  0.013  0.004    0.075 -0.129 -0.005    0.017 -0.028 -0.004
 O         -0.004 -0.014 -0.005   -0.018 -0.018  0.023   -0.003 -0.003  0.005
 O          0.019  0.000  0.002    0.004 -0.002 -0.004   -0.001 -0.001 -0.001
 H         -0.184  0.236  0.059    0.046 -0.041 -0.035    0.026 -0.023 -0.022
 TransDip   0.342 -0.133  0.441   -0.264  0.544 -0.091   -0.046  0.136 -0.023

 Mode:                40                     41                     42
 Frequency:      1470.16                1482.21                1494.37
 Force Cnst:      1.3504                 1.6709                 1.4871
 Red. Mass:       1.0604                 1.2908                 1.1303
 IR Active:          YES                    YES                    YES
 IR Intens:        4.716                 78.426                 17.479
 Raman Active:       YES                    YES                    YES
               X      Y      Z        X      Y      Z        X      Y      Z
 C          0.005  0.000 -0.002   -0.082  0.017 -0.012   -0.055  0.014  0.003
 C         -0.006  0.002 -0.007    0.056 -0.021  0.065    0.008 -0.005  0.018
 O          0.003  0.003  0.002   -0.023 -0.026 -0.021   -0.004 -0.005 -0.005
 O          0.001 -0.004  0.001   -0.009  0.037 -0.012   -0.001  0.007 -0.003
 C         -0.010 -0.003  0.016    0.043 -0.008 -0.023   -0.065  0.015  0.007
 H         -0.026  0.031  0.011    0.345 -0.416 -0.077    0.274 -0.316 -0.098
 H         -0.039 -0.022  0.009    0.486  0.251  0.023    0.368  0.195 -0.002
 O         -0.002  0.002 -0.005    0.003  0.004  0.006   -0.003 -0.005 -0.000
 H          0.058 -0.070 -0.065   -0.250  0.304  0.071    0.350 -0.428 -0.075
 H          0.095  0.058 -0.050   -0.345 -0.191  0.058    0.485  0.257 -0.049
 C         -0.006 -0.032  0.005    0.018 -0.049  0.002   -0.017  0.042 -0.003
 C         -0.046 -0.027 -0.010   -0.005 -0.002 -0.012    0.003 -0.002  0.008
 H          0.223 -0.381  0.121   -0.056 -0.048  0.104    0.032  0.027 -0.059
 H          0.601  0.363 -0.048    0.057  0.052 -0.073   -0.021 -0.026  0.041
 H         -0.153  0.485  0.019    0.026  0.129  0.082   -0.020 -0.061 -0.047
 O         -0.003  0.012  0.001   -0.012  0.023  0.002    0.011 -0.019 -0.001
 O          0.002  0.001 -0.001    0.002 -0.001 -0.004   -0.002 -0.002  0.003
 O          0.000  0.001  0.000    0.003  0.001  0.001   -0.000 -0.001 -0.001
 H         -0.014  0.013  0.011   -0.054  0.070  0.017    0.019 -0.018 -0.016
 TransDip   0.068 -0.016  0.001    0.196 -0.162  0.126    0.080  0.100  0.038

 Mode:                43                     44                     45
 Frequency:      1582.33                3053.96                3062.06
 Force Cnst:     14.5784                 5.8286                 5.7200
 Red. Mass:       9.8825                 1.0607                 1.0354
 IR Active:          YES                    YES                    YES
 IR Intens:     1310.512                 79.635                 24.226
 Raman Active:       YES                    YES                    YES
               X      Y      Z        X      Y      Z        X      Y      Z
 C         -0.011 -0.057 -0.008    0.009 -0.000 -0.001   -0.000  0.001  0.000
 C          0.154  0.737  0.103   -0.001  0.000 -0.000   -0.000  0.000 -0.000
 O         -0.137 -0.222 -0.114    0.000  0.000  0.000    0.000  0.000  0.000
 O          0.030 -0.286  0.043    0.000 -0.000  0.000    0.000 -0.000  0.000
 C         -0.002 -0.010 -0.002   -0.067 -0.013  0.010   -0.006 -0.001  0.001
 H         -0.142  0.122 -0.298   -0.075 -0.075 -0.004    0.002  0.002 -0.000
 H          0.164 -0.037  0.316   -0.028  0.071  0.017    0.004 -0.009 -0.002
 O          0.000  0.000 -0.000   -0.002  0.001 -0.002    0.000 -0.000 -0.000
 H         -0.012  0.002  0.023    0.629  0.576  0.033    0.054  0.049  0.003
 H          0.014  0.003 -0.018    0.174 -0.443 -0.125    0.015 -0.038 -0.011
 C         -0.001 -0.000  0.002    0.001  0.002  0.002   -0.001  0.002 -0.003
 C          0.000  0.000 -0.000   -0.001  0.001 -0.004    0.011 -0.019  0.044
 H          0.001 -0.001  0.000    0.033  0.035  0.027   -0.353 -0.364 -0.297
 H          0.001  0.000  0.001    0.020 -0.034 -0.010   -0.261  0.447  0.125
 H         -0.001  0.000 -0.001   -0.041 -0.011  0.028    0.486  0.130 -0.329
 O          0.000 -0.000 -0.000    0.000 -0.000  0.000    0.000 -0.000  0.000
 O         -0.000  0.000 -0.001   -0.000 -0.000  0.000   -0.000 -0.000  0.000
 O         -0.000 -0.000 -0.000    0.000  0.000  0.000    0.000  0.000 -0.000
 H          0.003 -0.003 -0.001   -0.000 -0.003 -0.002    0.001  0.001  0.000
 TransDip   0.238  1.124  0.158   -0.270 -0.078 -0.055   -0.000 -0.057  0.147

 Mode:                46                     47                     48
 Frequency:      3065.37                3105.88                3132.41
 Force Cnst:      5.8811                 6.2496                 6.3906
 Red. Mass:       1.0623                 1.0996                 1.1054
 IR Active:          YES                    YES                    YES
 IR Intens:       46.447                 12.014                 53.409
 Raman Active:       YES                    YES                    YES
               X      Y      Z        X      Y      Z        X      Y      Z
 C          0.057 -0.036 -0.014    0.018  0.029  0.003   -0.032 -0.080 -0.011
 C         -0.002 -0.000 -0.002   -0.000  0.001 -0.000   -0.000 -0.002 -0.000
 O          0.000  0.000  0.000    0.000 -0.000 -0.000    0.000  0.001  0.000
 O          0.000 -0.000  0.000   -0.000 -0.000  0.000    0.000  0.001  0.000
 C          0.009  0.009  0.002   -0.001 -0.083 -0.019   -0.005 -0.036 -0.008
 H         -0.335 -0.340 -0.016   -0.268 -0.257 -0.012    0.572  0.547  0.021
 H         -0.331  0.772  0.198    0.045 -0.097 -0.022   -0.191  0.415  0.110
 O         -0.000  0.000 -0.000    0.001 -0.000  0.001    0.000  0.000  0.000
 H         -0.107 -0.096 -0.006    0.314  0.279  0.010    0.168  0.151  0.004
 H          0.008 -0.014 -0.005   -0.307  0.725  0.214   -0.114  0.270  0.083
 C          0.000  0.000 -0.000    0.000 -0.002 -0.000   -0.000 -0.001  0.000
 C          0.000 -0.000  0.001   -0.000  0.001  0.001   -0.000  0.001  0.000
 H         -0.007 -0.008 -0.006   -0.004 -0.004 -0.003   -0.003 -0.003 -0.002
 H         -0.005  0.009  0.003    0.004 -0.007 -0.001    0.004 -0.007 -0.002
 H          0.010  0.003 -0.007    0.004  0.001 -0.003    0.000  0.000 -0.000
 O         -0.000  0.000  0.000   -0.001  0.000 -0.000   -0.000  0.000 -0.000
 O          0.000 -0.000  0.000    0.000 -0.000  0.000   -0.000  0.000 -0.000
 O         -0.000 -0.000 -0.000   -0.000  0.000  0.000   -0.000 -0.000 -0.000
 H          0.002  0.003 -0.001   -0.000  0.001  0.000    0.002  0.000  0.001
 TransDip   0.194 -0.092 -0.038    0.071 -0.081  0.026   -0.046 -0.229 -0.000

 Mode:                49                     50                     51
 Frequency:      3139.45                3147.06                3667.20
 Force Cnst:      6.4070                 6.4375                 8.4487
 Red. Mass:       1.1033                 1.1032                 1.0663
 IR Active:          YES                    YES                    YES
 IR Intens:       42.907                 42.714                143.427
 Raman Active:       YES                    YES                    YES
               X      Y      Z        X      Y      Z        X      Y      Z
 C         -0.000 -0.000 -0.000   -0.000 -0.000 -0.000   -0.000  0.000  0.000
 C          0.000 -0.000  0.000    0.000 -0.000  0.000   -0.000  0.000 -0.000
 O         -0.000 -0.000 -0.000   -0.000 -0.000 -0.000    0.000  0.000  0.000
 O         -0.000  0.000 -0.000   -0.000  0.000 -0.000    0.000 -0.000  0.000
 C          0.000  0.000  0.000    0.001 -0.001 -0.000   -0.001  0.000 -0.000
 H          0.001  0.001  0.000    0.003  0.003  0.000    0.000  0.000  0.000
 H         -0.000  0.001  0.000   -0.001  0.002  0.001    0.000 -0.003 -0.002
 O          0.000  0.000 -0.000   -0.000  0.000  0.000    0.000 -0.000 -0.001
 H         -0.002 -0.002 -0.000    0.001  0.001 -0.000    0.001  0.001  0.000
 H         -0.000  0.000 -0.000   -0.006  0.014  0.003    0.002 -0.002  0.000
 C         -0.002 -0.001  0.000    0.000 -0.002 -0.001    0.002  0.001  0.000
 C         -0.087 -0.031  0.012    0.022 -0.078 -0.046   -0.000 -0.000 -0.000
 H          0.360  0.378  0.323    0.320  0.311  0.263    0.000  0.000 -0.000
 H          0.078 -0.165 -0.040   -0.408  0.691  0.178    0.000  0.001 -0.001
 H          0.607  0.165 -0.429   -0.173 -0.062  0.115   -0.001 -0.000  0.002
 O          0.000  0.000 -0.000   -0.000  0.000  0.000   -0.000 -0.000  0.000
 O          0.000  0.000 -0.000    0.000 -0.000  0.000   -0.001 -0.001  0.000
 O         -0.000 -0.000 -0.000    0.000  0.000 -0.000   -0.047 -0.035 -0.020
 H          0.001  0.001  0.000   -0.001 -0.000  0.001    0.751  0.569  0.330
 TransDip  -0.199 -0.064  0.020    0.044 -0.188 -0.082    0.313  0.188  0.118

 STANDARD THERMODYNAMIC QUANTITIES AT   298.15 K  AND     1.00 ATM

   This Molecule has  0 Imaginary Frequencies
   Zero point vibrational energy:       87.048 kcal/mol

   Atom    1 Element C  Has Mass   12.00000
   Atom    2 Element C  Has Mass   12.00000
   Atom    3 Element O  Has Mass   15.99491
   Atom    4 Element O  Has Mass   15.99491
   Atom    5 Element C  Has Mass   12.00000
   Atom    6 Element H  Has Mass    1.00783
   Atom    7 Element H  Has Mass    1.00783
   Atom    8 Element O  Has Mass   15.99491
   Atom    9 Element H  Has Mass    1.00783
   Atom   10 Element H  Has Mass    1.00783
   Atom   11 Element C  Has Mass   12.00000
   Atom   12 Element C  Has Mass   12.00000
   Atom   13 Element H  Has Mass    1.00783
   Atom   14 Element H  Has Mass    1.00783
   Atom   15 Element H  Has Mass    1.00783
   Atom   16 Element O  Has Mass   15.99491
   Atom   17 Element O  Has Mass   15.99491
   Atom   18 Element O  Has Mass   15.99491
   Atom   19 Element H  Has Mass    1.00783
   Molecular Mass:   164.032100 amu
   Principal axes and moments of inertia in amu*Bohr^2:
                             1           2           3
    Eigenvalues --      817.19760  3303.39093  3435.35670
          X               0.52501     0.75448     0.39386
          Y              -0.01912    -0.45219     0.89172
          Z               0.85088    -0.47569    -0.22298
   Rotational Symmetry Number is   1
   The Molecule is an Asymmetric Top
   Translational Enthalpy:        0.889 kcal/mol
   Rotational Enthalpy:           0.889 kcal/mol
   Vibrational Enthalpy:         92.617 kcal/mol
   gas constant (RT):             0.592 kcal/mol
   Translational Entropy:        41.193  cal/mol.K
   Rotational Entropy:           30.606  cal/mol.K
   Vibrational Entropy:          37.294  cal/mol.K

   Total Enthalpy:               94.987 kcal/mol
   Total Entropy:               109.093  cal/mol.K
Archival summary:
1\1\c4-89\FREQ\ProcedureUnspecified\BasisUnspecified\658(2-,1)\leeping\SatMar2117:01:152020SatMar2117:01:152020\0\\#,FREQ,ProcedureUnspecified,BasisUnspecified,\\-2,1\O\C,1,1.42138\H,2,1.09426,1,109.215\H,2,1.0959,1,106.24,3,-116.878,0\C,1,1.47116,2,116.428,3,-29.9084,0\O,5,1.28543,1,116.368,2,31.6017,0\O,5,1.50604,1,103.934,2,-84.5773,0\O,7,1.43336,5,110.822,1,-49.2085,0\H,8,0.974772,7,100.819,5,46.8818,0\C,5,1.52942,1,104.099,2,162.093,0\H,10,1.09226,5,112.404,1,50.8737,0\H,10,1.09305,5,108.736,1,171.872,0\H,10,1.09327,5,108.577,1,-69.7261,0\C,2,1.5304,1,113.027,3,123.234,0\H,14,1.09272,2,109.384,1,-64.2013,0\H,14,1.09533,2,109.04,1,55.1851,0\C,14,1.53465,2,109.604,1,175.081,0\O,17,1.2598,14,117.235,2,90.394,0\O,17,1.25998,14,117.207,2,-87.6763,0\\\@

 Total job time:  59484.74s(wall), 696526.81s(cpu) 
 Sat Mar 21 17:01:15 2020

        *************************************************************
        *                                                           *
        *  Thank you very much for using Q-Chem.  Have a nice day.  *
        *                                                           *
        *************************************************************


