
Running Job 1 of 1 qc-3-tshess.in
qchem qc-3-tshess.in_5679.0 /scratch/lmgong/1191122/qc-3-tshess.d/ 1
/home/leeping/opt/qchem/5.0.2-openmp/exe/qcprog.exe_s qc-3-tshess.in_5679.0 /scratch/lmgong/1191122/qc-3-tshess.d/
Check license passed

                  Welcome to Q-Chem
     A Quantum Leap Into The Future Of Chemistry


 Q-Chem 5.0, Q-Chem, Inc., Pleasanton, CA (2017)

 Yihan Shao,  Zhengting Gan,  E. Epifanovsky,  A. T. B. Gilbert,  M. Wormit,  
 J. Kussmann,  A. W. Lange,  A. Behn,  Jia Deng,  Xintian Feng,  D. Ghosh,  
 M. Goldey,  P. R. Horn,  L. D. Jacobson,  I. Kaliman,  T. Kus,  A. Landau,  
 Jie Liu,  E. I. Proynov,  R. M. Richard,  R. P. Steele,  E. J. Sundstrom,  
 H. L. Woodcock III,  P. M. Zimmerman,  D. Zuev,  B. Albrecht,  E. Alguire,  
 S. A. Baeppler,  D. Barton,  Z. Benda,  Y. A. Bernard,  E. J. Berquist,  
 K. B. Bravaya,  H. Burton,  D. Casanova,  Chun-Min Chang,  Yunqing Chen,  
 A. Chien,  K. D. Closser,  M. P. Coons,  S. Dasgupta,  A. L. Dempwolff,  
 M. Diedenhofen,  Hainam Do,  R. G. Edgar,  Po-Tung Fang,  S. Fatehi,  
 Qingguo Feng,  J. Fosso-Tande,  Qinghui Ge,  A. Ghysels,  G. Gidofalvi,  
 J. Gomes,  J. Gonthier,  A. Gunina,  M. W. D. Hanson-Heine,  
 P. H. P. Harbach,  A. W. Hauser,  J. E. Herr,  E. G. Hohenstein,  
 Z. C. Holden,  Kerwin Hui,  T.-C. Jagau,  Hyunjun Ji,  B. Kaduk,  
 K. Khistyaev,  Jaehoon Kim,  P. Klunzinger,  K. Koh,  D. Kosenkov,  
 L. Koulias,  T. Kowalczyk,  C. M. Krauter,  A. Kunitsa,  Ka Un Lao,  
 A. Laurent,  K. V. Lawler,  Joonho Lee,  D. Lefrancois,  S. Lehtola,  
 D. S. Levine,  Yi-Pei Li,  You-Sheng Lin,  Fenglai Liu,  E. Livshits,  
 A. Luenser,  P. Manohar,  E. Mansoor,  S. F. Manzer,  Shan-Ping Mao,  
 Yuezhi Mao,  N. Mardirossian,  A. V. Marenich,  T. Markovich,  
 L. A. Martinez-Martinez,  S. A. Maurer,  N. J. Mayhall,  S. C. McKenzie,  
 J.-M. Mewes,  A. F. Morrison,  J. W. Mullinax,  K. Nanda,  
 T. S. Nguyen-Beck,  R. Olivares-Amaya,  J. A. Parkhill,  T. M. Perrine,  
 F. Plasser,  S. Prager,  A. Prociuk,  E. Ramos,  D. R. Rehn,  F. Rob,  
 M. Schneider,  N. Sergueev,  S. M. Sharada,  S. Sharma,  D. W. Small,  
 T. Stauch,  T. Stein,  Yu-Chuan Su,  A. J. W. Thom,  A. Tkatchenko,  
 T. Tsuchimochi,  L. Vogt,  O. Vydrov,  M. A. Watson,  J. Wenzel,  
 M. de Wergifosse,  T. A. Wesolowski,  A. White,  J. Witte,  A. Yamada,  
 Jun Yang,  K. Yao,  S. Yeganeh,  S. R. Yost,  Zhi-Qiang You,  A. Zech,  
 Igor Ying Zhang,  Xing Zhang,  Yan Zhao,  Ying Zhu,  B. R. Brooks,  
 G. K. L. Chan,  C. J. Cramer,  M. S. Gordon,  W. J. Hehre,  A. Klamt,  
 M. W. Schmidt,  C. D. Sherrill,  D. G. Truhlar,  A. Aspuru-Guzik,  R. Baer,  
 A. T. Bell,  N. A. Besley,  Jeng-Da Chai,  R. A. DiStasio Jr.,  A. Dreuw,  
 B. D. Dunietz,  T. R. Furlani,  Chao-Ping Hsu,  Yousung Jung,  Jing Kong,  
 D. S. Lambrecht,  WanZhen Liang,  C. Ochsenfeld,  V. A. Rassolov,  
 L. V. Slipchenko,  J. E. Subotnik,  T. Van Voorhis,  J. M. Herbert,  
 A. I. Krylov,  P. M. W. Gill,  M. Head-Gordon

 Contributors to earlier versions of Q-Chem not listed above: 
 R. D. Adamson,  B. Austin,  J. Baker,  G. J. O. Beran,  K. Brandhorst,  
 S. T. Brown,  E. F. C. Byrd,  A. K. Chakraborty,  C.-L. Cheng,  
 Siu Hung Chien,  D. M. Chipman,  D. L. Crittenden,  H. Dachsel,  
 R. J. Doerksen,  A. D. Dutoi,  L. Fusti-Molnar,  W. A. Goddard III,  
 A. Golubeva-Zadorozhnaya,  S. R. Gwaltney,  G. Hawkins,  A. Heyden,  
 S. Hirata,  G. Kedziora,  F. J. Keil,  C. Kelley,  Jihan Kim,  R. A. King,  
 R. Z. Khaliullin,  P. P. Korambath,  W. Kurlancheek,  A. M. Lee,  M. S. Lee,  
 S. V. Levchenko,  Ching Yeh Lin,  D. Liotard,  R. C. Lochan,  I. Lotan,  
 P. E. Maslen,  N. Nair,  D. P. O'Neill,  D. Neuhauser,  E. Neuscamman,  
 C. M. Oana,  R. Olson,  B. Peters,  R. Peverati,  P. A. Pieniazek,  
 Y. M. Rhee,  J. Ritchie,  M. A. Rohrdanz,  E. Rosta,  N. J. Russ,  
 H. F. Schaefer III,  N. E. Schultz,  N. Shenvi,  A. C. Simmonett,  A. Sodt,  
 D. Stuck,  K. S. Thanthiriwatte,  V. Vanovschi,  Tao Wang,  A. Warshel,  
 C. F. Williams,  Q. Wu,  X. Xu,  W. Zhang

 Please cite Q-Chem as follows:
 Y. Shao et al., Mol. Phys. 113, 184-215 (2015)
 DOI: 10.1080/00268976.2014.952696

 Q-Chem 5.0.2 for Intel X86 EM64T Linux

 Parts of Q-Chem use Armadillo 5.200.1 (Boston Tea Smuggler).
 http://arma.sourceforge.net/

 Q-Chem begins on Thu May 10 01:12:21 2018  

Host: 
0

     Scratch files written to /scratch/lmgong/1191122/qc-3-tshess.d//
 Dec517 15110_ 26548  26544 5633   
Processing $rem in /home/leeping/opt/qchem/5.0.2-openmp/config/preferences.
 MEM_STATIC 2000
 MEM_TOTAL  8000
 SYMMETRY   OFF
 SYM_IGNORE TRUE 
Symmetry turned off for PCM/SM12/SMD calculation

Checking the input file for inconsistencies... 	...done.

--------------------------------------------------------------
User input:
--------------------------------------------------------------
$molecule
-2 1
C       -0.4166951826   -0.0073090837   -1.9094325931
C       -1.4492418791    0.6180131287   -2.8513165532
O       -2.2466278132   -0.1648805592   -3.4365242659
O       -1.4628172970    1.8755132969   -2.9497790437
C       -1.0242623554   -0.2152913510   -0.5112313932
H        0.4563237693    0.6471419249   -1.8255826959
H       -0.0968220908   -0.9782611663   -2.3035072594
O       -0.1548252428   -0.8224155391    0.3928600504
H       -1.9390473798   -0.8225617639   -0.6216644959
H       -1.3457607540    0.7698620345   -0.1246409064
C        0.6487346034    0.5423577214    1.6226902913
C        0.9202177981   -0.4612387654    2.7161990474
H        1.5336845893    0.0359002039    3.4762052848
H        1.4474610717   -1.3408494944    2.3528619407
H       -0.0278786800   -0.7575894485    3.1648705552
O       -0.1168944961    1.4898126830    1.7686166891
O        1.7295398178    0.8164793201    0.7636092769
O        2.2391748605   -0.4050178160    0.2230158165
H        1.3057366607   -0.8196653256    0.0527502544
$end

$rem
jobtype               freq
method                wb97x-v
basis                 def2-tzvpd
symmetry              off
sym_ignore            true
incdft                false
incfock               0
!scf_algorithm        diis_gdm
scf_convergence       8
thresh                14
!purecart             112
max_scf_cycles        1000
geom_opt_max_cycles   500
geom_opt_dmax         100
geom_opt_tol_gradient 10
solvent_method        pcm
ideriv                1
rpath_tol_displacement 1000
rpath_max_cycles      100
rpath_direction       1
!scf_guess            read
scf_guess             read
$end

$pcm
theory              cosmo
method              iswig
Radii               bondi
vdwScale            1.20
hpoints             110
heavypoints         110
$end

$solvent
dielectric 78.400000
$end

--------------------------------------------------------------
 ----------------------------------------------------------------
             Standard Nuclear Orientation (Angstroms)
    I     Atom           X                Y                Z
 ----------------------------------------------------------------
    1      C      -0.4166951826    -0.0073090837    -1.9094325931
    2      C      -1.4492418791     0.6180131287    -2.8513165532
    3      O      -2.2466278132    -0.1648805592    -3.4365242659
    4      O      -1.4628172970     1.8755132969    -2.9497790437
    5      C      -1.0242623554    -0.2152913510    -0.5112313932
    6      H       0.4563237693     0.6471419249    -1.8255826959
    7      H      -0.0968220908    -0.9782611663    -2.3035072594
    8      O      -0.1548252428    -0.8224155391     0.3928600504
    9      H      -1.9390473798    -0.8225617639    -0.6216644959
   10      H      -1.3457607540     0.7698620345    -0.1246409064
   11      C       0.6487346034     0.5423577214     1.6226902913
   12      C       0.9202177981    -0.4612387654     2.7161990474
   13      H       1.5336845893     0.0359002039     3.4762052848
   14      H       1.4474610717    -1.3408494944     2.3528619407
   15      H      -0.0278786800    -0.7575894485     3.1648705552
   16      O      -0.1168944961     1.4898126830     1.7686166891
   17      O       1.7295398178     0.8164793201     0.7636092769
   18      O       2.2391748605    -0.4050178160     0.2230158165
   19      H       1.3057366607    -0.8196653256     0.0527502544
 ----------------------------------------------------------------
 Nuclear Repulsion Energy =   646.0899506677 hartrees
 There are       44 alpha and       44 beta electrons
 Requested basis set is def2-TZVPD
 There are 189 shells and 497 basis functions

 Total QAlloc Memory Limit   8000 MB
 Mega-Array Size      1956 MB
 MEM_STATIC part      2000 MB
 Discretize the solute cavity surface with Lebedev spheres
	Using 110 Lebedev grid points for each H atom
	Using 110 Lebedev grid points for other atoms
	Atomic van der Waals radii will be scaled by 1.20
 Remove points where switching function is < 1.0e-08
 Keep 1111 surface tesserae and discard 979 interior tesserae
 Molecular Surface Area = 198.389 Angst**2
 A cutoff of  1.0D-14 yielded  16152 shell pairs
 There are    111688 function pairs (    142297 Cartesian)
 
 -------------------------------------------------------
 OpenMP Integral Computing Module                       
 Release: version 1.0, May 2013, Q-Chem Inc. Pittsburgh 
 -------------------------------------------------------
 Integral Job Info:
 Integral job number is                      11
 Integral operator is                         1
 short-range coefficients              16700000
 long-range coefficients              100000000
 Omega coefficients                         300
 if combine SR and LR in K                    1
 Integral screening is                        0
 Integral computing path is                   2
 max size of driver memory is            800000
 size of driver memory is                776718
 size of scratch memory is              4473992
 max col of scratch BK array              10000
 max len of scratch array in speh3          662
 max len of scratch index in speh4           32
 max int batch size is                      520
 min int batch size is                       52
 fixed nKL is                                52
 max L of basis functions is                  3
 order of int derivative is                   0
 number of shells is                        189
 number of basis is                         563
 number of cartesian basis is               563
 number of contracted shell pairs         16152
 number of primitive shell pairs          32497
 maxK2 (contraction) of shell pair           36
 max number of K2 of shell pair               1
 max number of CS2 of shell pair           2655
 max number of PS2 of shell pair           3738
 mem total for path MDJ                  828956
 -------------------------------------------------------
 Smallest overlap matrix eigenvalue = 5.39E-06
 Guess MOs from SCF MO coefficient file
 Reading MOs from coefficient file
 Reading MOs from coefficient file
 Long-range K will be added via erf
 Coulomb attenuation parameter = 0.3 bohr**(-1)
 A restricted hybrid HF-DFT SCF calculation will be
 performed using Pulay DIIS extrapolation
 Polarizable Continuum solvation model will be applied
 Exchange:     0.1670 Hartree-Fock + 1.0000 wB97X-V + LR-HF
 Correlation:  1.0000 wB97X-V
 Using SG-2 standard quadrature grid
 Nonlocal Correlation:  VV10 with C = 0.0100 and b = 6.00
 Grid used for NLC:  SG-1 standard quadrature
 SCF converges when DIIS error is below 1.0E-08
Using Q-Chem read-in guess as SCF_GUESS READ specified.

 using 4 threads for integral computing
 -------------------------------------------------------
 OpenMP Integral computing Module                
 Release: version 1.0, May 2013, Q-Chem Inc. Pittsburgh 
 -------------------------------------------------------
 using 4 threads for integral computing
 -------------------------------------------------------
 OpenMP Integral computing Module                
 Release: version 1.0, May 2013, Q-Chem Inc. Pittsburgh 
 -------------------------------------------------------
 -------------------------------------------------------
 OpenMP BLAS3 based DFT computing Module                
 Release: version 1.0, May 2013, Q-Chem Inc. Pittsburgh 
 -------------------------------------------------------
 -------------------------------------------------------
 OpenMP BLAS3 based DFT computing Module                
 Release: version 1.0, May 2013, Q-Chem Inc. Pittsburgh 
 -------------------------------------------------------
 -------------------------------------------------------
 OpenMP BLAS3 based DFT computing Module                
 Release: version 1.0, May 2013, Q-Chem Inc. Pittsburgh 
 -------------------------------------------------------
 ---------------------------------------
  Cycle       Energy         DIIS Error
 ---------------------------------------
    1    -646.6485465508      3.11E-04
    2    -646.9429301032      3.26E-04
    3    -646.9475156488      1.51E-04
    4    -646.9482813116      1.12E-04
    5    -646.9487521785      8.59E-05
    6    -646.9490148414      6.80E-05
    7    -646.9491827735      5.35E-05
    8    -646.9492876345      4.21E-05
    9    -646.9493687645      3.04E-05
   10    -646.9494045258      2.34E-05
   11    -646.9494278508      1.74E-05
   12    -646.9494406552      1.30E-05
   13    -646.9494464896      1.04E-05
   14    -646.9494504254      8.21E-06
   15    -646.9494525149      6.75E-06
   16    -646.9494544317      5.04E-06
   17    -646.9494568544      2.35E-09 Convergence criterion met
 ---------------------------------------

************** Final PCM Free Energy Summary **************
 G_electrostatic  =      -0.30091030 hartree =    -188.82406531 kcal/mol
 G_cavitation     =       0.00000000 hartree =       0.00000000 kcal/mol
 G_dispersion     =       0.00000000 hartree =       0.00000000 kcal/mol
 G_repulsion      =       0.00000000 hartree =       0.00000000 kcal/mol
 --------------------------------------------------
 Non-electrostatic Free Energy =       0.00000000 hartree =       0.00000000 kcal/mol
 Total                         =      -0.30091030 hartree =    -188.82406531 kcal/mol
 --------------------------------------------------
 SCF Energy (H0 + V/2)                       =    -646.94945685 
 Solute Internal Energy (H0)                 =    -646.64854655 
 Total Free Energy (H0 + V/2 + non-elec)     =    -646.94945685 hartree
                                             = -405966.91143442 kcal/mol
***********************************************************

 SCF time:  CPU 5032.38 s  wall 1301.35 s
 SCF   energy in the final basis set = -646.94945685
 Total energy in the final basis set = -646.94945685
 
 --------------------------------------------------------------
 
                    Orbital Energies (a.u.)
 --------------------------------------------------------------
 
 Alpha MOs
 -- Occupied --
-19.260 -19.231 -19.167 -19.139 -19.138 -19.138 -10.389 -10.337
-10.279 -10.250 -10.236  -1.251  -1.145  -1.140  -1.062  -1.045
 -0.989  -0.861  -0.845  -0.717  -0.677  -0.610  -0.598  -0.593
 -0.565  -0.551  -0.539  -0.528  -0.511  -0.505  -0.503  -0.481
 -0.466  -0.455  -0.452  -0.437  -0.414  -0.362  -0.353  -0.347
 -0.342  -0.328  -0.322  -0.315
 -- Virtual --
  0.061   0.073   0.075   0.082   0.100   0.103   0.106   0.109
  0.115   0.126   0.132   0.138   0.144   0.148   0.150   0.151
  0.166   0.169   0.172   0.182   0.185   0.186   0.190   0.199
  0.210   0.223   0.231   0.233   0.241   0.242   0.253   0.255
  0.259   0.267   0.275   0.278   0.283   0.290   0.299   0.305
  0.309   0.311   0.324   0.332   0.340   0.345   0.348   0.354
  0.358   0.359   0.363   0.371   0.373   0.382   0.384   0.389
  0.396   0.398   0.405   0.407   0.416   0.421   0.423   0.426
  0.433   0.435   0.442   0.451   0.456   0.459   0.467   0.480
  0.483   0.486   0.490   0.495   0.498   0.504   0.506   0.513
  0.516   0.520   0.526   0.533   0.544   0.548   0.550   0.555
  0.556   0.572   0.576   0.587   0.590   0.596   0.604   0.612
  0.618   0.624   0.639   0.647   0.650   0.654   0.656   0.659
  0.673   0.679   0.684   0.689   0.698   0.703   0.716   0.724
  0.725   0.727   0.732   0.743   0.750   0.755   0.761   0.768
  0.778   0.784   0.790   0.793   0.800   0.801   0.811   0.815
  0.821   0.829   0.832   0.834   0.842   0.853   0.864   0.866
  0.875   0.881   0.883   0.895   0.899   0.907   0.910   0.922
  0.934   0.935   0.951   0.954   0.969   0.975   0.997   1.002
  1.023   1.031   1.040   1.052   1.053   1.065   1.086   1.095
  1.105   1.105   1.119   1.129   1.142   1.145   1.156   1.168
  1.187   1.197   1.209   1.227   1.228   1.245   1.253   1.278
  1.293   1.306   1.322   1.328   1.335   1.344   1.367   1.368
  1.383   1.401   1.415   1.432   1.450   1.462   1.468   1.483
  1.494   1.501   1.523   1.546   1.571   1.583   1.587   1.594
  1.605   1.652   1.667   1.702   1.740   1.771   1.810   1.840
  1.867   1.890   1.907   1.917   1.924   1.931   1.934   1.952
  1.962   1.978   1.991   1.993   2.008   2.023   2.026   2.035
  2.053   2.055   2.076   2.101   2.117   2.127   2.151   2.162
  2.182   2.197   2.211   2.217   2.221   2.245   2.266   2.272
  2.287   2.301   2.348   2.358   2.377   2.397   2.407   2.417
  2.434   2.458   2.470   2.484   2.489   2.516   2.529   2.536
  2.565   2.576   2.592   2.605   2.619   2.629   2.650   2.653
  2.684   2.696   2.738   2.758   2.765   2.803   2.816   2.831
  2.861   2.876   2.898   2.904   2.924   2.937   2.946   2.967
  2.990   3.023   3.028   3.058   3.079   3.090   3.099   3.107
  3.122   3.157   3.190   3.217   3.241   3.255   3.267   3.278
  3.290   3.310   3.320   3.344   3.364   3.368   3.396   3.417
  3.424   3.433   3.457   3.462   3.481   3.489   3.513   3.521
  3.534   3.543   3.551   3.575   3.586   3.596   3.619   3.628
  3.652   3.656   3.675   3.683   3.696   3.714   3.722   3.740
  3.742   3.753   3.775   3.778   3.810   3.823   3.856   3.868
  3.894   3.901   3.930   3.976   4.032   4.068   4.080   4.096
  4.113   4.152   4.167   4.172   4.229   4.264   4.290   4.336
  4.364   4.428   4.507   4.590   4.619   4.631   4.660   4.720
  4.750   4.810   4.813   4.854   4.861   4.874   4.922   4.969
  5.069   5.107   5.129   5.181   5.227   5.274   5.315   5.323
  5.355   5.357   5.365   5.372   5.386   5.451   5.501   5.511
  5.548   5.585   5.610   5.625   5.668   5.713   5.719   5.767
  5.779   5.802   5.979   5.986   6.027   6.063   6.100   6.110
  6.244   6.259   6.297   6.325   6.327   6.355   6.491   6.514
  6.584   6.615   6.632   6.665   6.684   6.698   6.745   6.758
  6.761   6.770   6.777   6.804   6.914   6.938   6.963   6.976
  7.015   7.047   7.065   7.107   7.147   7.159   7.229   7.255
  7.280   7.358   7.371   7.372   7.398   7.419   7.523   7.554
  7.595   8.334  22.710  22.894  22.923  23.453  23.707  44.320
 44.354  44.416  44.441  44.530  44.722
 --------------------------------------------------------------
 
          Ground-State Mulliken Net Atomic Charges

     Atom                 Charge (a.u.)
  ----------------------------------------
      1 C                     0.171500
      2 C                    -0.010223
      3 O                    -0.698457
      4 O                    -0.698800
      5 C                    -0.331408
      6 H                     0.086180
      7 H                     0.238186
      8 O                    -0.833974
      9 H                     0.211950
     10 H                     0.145106
     11 C                     0.710680
     12 C                    -0.764186
     13 H                     0.268503
     14 H                     0.197022
     15 H                     0.213238
     16 O                    -0.649472
     17 O                    -0.203696
     18 O                    -0.476614
     19 H                     0.424464
  ----------------------------------------
  Sum of atomic charges =    -2.000000

 -----------------------------------------------------------------
                    Cartesian Multipole Moments
 -----------------------------------------------------------------
    Charge (ESU x 10^10)
                -9.6064
    Dipole Moment (Debye)
         X       7.4899      Y      -7.4350      Z      13.0794
       Tot      16.8062
    Quadrupole Moments (Debye-Ang)
        XX    -103.0377     XY       6.2029     YY     -92.7675
        XZ     -33.6091     YZ       8.7136     ZZ    -129.6044
    Octopole Moments (Debye-Ang^2)
       XXX      49.9195    XXY     -28.1372    XYY      30.4782
       YYY     -90.6623    XXZ     102.1217    XYZ     -18.5952
       YYZ      51.2693    XZZ     139.7465    YZZ     -72.9564
       ZZZ     270.4203
    Hexadecapole Moments (Debye-Ang^3)
      XXXX   -1037.7573   XXXY      75.4056   XXYY    -243.9078
      XYYY      90.2312   YYYY    -490.6530   XXXZ    -613.4422
      XXYZ      58.1396   XYYZ    -202.4635   YYYZ     149.3294
      XXZZ    -726.7420   XYZZ      86.2731   YYZZ    -526.7669
      XZZZ    -838.8603   YZZZ     194.1919   ZZZZ   -2560.4128
 -----------------------------------------------------------------
 Calculating analytic gradient of the SCF energy
 Gradient of SCF Energy
            1           2           3           4           5           6
    1   0.1540871  -0.0750441   0.0432753   0.0085990  -0.1259688  -0.0583932
    2  -0.0069897   0.0254429   0.0308081  -0.0582738   0.0566786  -0.0373544
    3  -0.0270291   0.0004488   0.0315572   0.0120741   0.0074055  -0.0033489
            7           8           9          10          11          12
    1  -0.0152922  -0.0189056   0.0380755   0.0331149  -0.0204719   0.0050193
    2   0.0431658  -0.0278621   0.0335270  -0.0716209   0.0489811  -0.0622643
    3   0.0113718  -0.0026993  -0.0041171  -0.0232630  -0.0137210   0.0564387
           13          14          15          16          17          18
    1  -0.0396543  -0.0337846   0.0633370   0.0454078  -0.0294270  -0.0160058
    2  -0.0304092   0.0604640   0.0222201  -0.0486187   0.0284088  -0.0445459
    3  -0.0418163   0.0220422  -0.0259710  -0.0007541   0.0254166  -0.0266343
           19
    1   0.0420314
    2   0.0382428
    3   0.0025991
 Max gradient component =       1.541E-01
 RMS gradient           =       4.445E-02
 Computing fast CPCM-ISWIG gradient
 Updating gradient with PCM contributions...
 -- total gradient after adding PCM contribution --
---------------------------------------------------
  Atom         X              Y              Z     
---------------------------------------------------
   1       0.000007       0.000031      -0.000002
   2      -0.000002       0.000030       0.000008
   3       0.000012       0.000030      -0.000011
   4      -0.000021       0.000034       0.000033
   5       0.000007      -0.000007      -0.000008
   6      -0.000005       0.000044       0.000013
   7       0.000024       0.000043      -0.000019
   8       0.000011      -0.000011      -0.000015
   9       0.000016      -0.000021      -0.000023
  10      -0.000013      -0.000020       0.000012
  11      -0.000013      -0.000022       0.000010
  12      -0.000001      -0.000037      -0.000006
  13      -0.000009      -0.000043       0.000005
  14       0.000013      -0.000023      -0.000022
  15       0.000003      -0.000061      -0.000013
  16      -0.000033      -0.000038       0.000029
  17      -0.000017       0.000016       0.000025
  18       0.000008       0.000034      -0.000003
  19       0.000014       0.000021      -0.000012
---------------------------------------------------
 Number of fixed atoms: 0
 Gradient time:  CPU 969.94 s  wall 250.76 s
 ######################################################
 ######################################################
 # Starting finite difference calculation for IDERIV  #
 Finite diff step size:  1.88973e-03 a.u.
 ----------------------------------------------------------------
             Standard Nuclear Orientation (Angstroms)
    I     Atom           X                Y                Z
 ----------------------------------------------------------------
    1      C      -0.4156951826    -0.0073090837    -1.9094325931
    2      C      -1.4492418791     0.6180131287    -2.8513165532
    3      O      -2.2466278132    -0.1648805592    -3.4365242659
    4      O      -1.4628172970     1.8755132969    -2.9497790437
    5      C      -1.0242623554    -0.2152913510    -0.5112313932
    6      H       0.4563237693     0.6471419249    -1.8255826959
    7      H      -0.0968220908    -0.9782611663    -2.3035072594
    8      O      -0.1548252428    -0.8224155391     0.3928600504
    9      H      -1.9390473798    -0.8225617639    -0.6216644959
   10      H      -1.3457607540     0.7698620345    -0.1246409064
   11      C       0.6487346034     0.5423577214     1.6226902913
   12      C       0.9202177981    -0.4612387654     2.7161990474
   13      H       1.5336845893     0.0359002039     3.4762052848
   14      H       1.4474610717    -1.3408494944     2.3528619407
   15      H      -0.0278786800    -0.7575894485     3.1648705552
   16      O      -0.1168944961     1.4898126830     1.7686166891
   17      O       1.7295398178     0.8164793201     0.7636092769
   18      O       2.2391748605    -0.4050178160     0.2230158165
   19      H       1.3057366607    -0.8196653256     0.0527502544
 ----------------------------------------------------------------
 Nuclear Repulsion Energy =   646.0825143347 hartrees
 There are       44 alpha and       44 beta electrons
 Discretize the solute cavity surface with Lebedev spheres
	Using 110 Lebedev grid points for each H atom
	Using 110 Lebedev grid points for other atoms
	Atomic van der Waals radii will be scaled by 1.20
 Remove points where switching function is < 1.0e-08
 Keep 1111 surface tesserae and discard 979 interior tesserae
 Molecular Surface Area = 198.389 Angst**2
 Requested basis set is def2-TZVPD
 There are 189 shells and 497 basis functions
 A cutoff of  1.0D-14 yielded  16153 shell pairs
 There are    111737 function pairs (    142397 Cartesian)
 Smallest overlap matrix eigenvalue = 5.40E-06
 Guess MOs from SCF MO coefficient file
 Reading MOs from coefficient file
 Reading MOs from coefficient file
 Long-range K will be added via erf
 Coulomb attenuation parameter = 0.3 bohr**(-1)
 A restricted hybrid HF-DFT SCF calculation will be
 performed using Pulay DIIS extrapolation
 Polarizable Continuum solvation model will be applied
 Exchange:     0.1670 Hartree-Fock + 1.0000 wB97X-V + LR-HF
 Correlation:  1.0000 wB97X-V
 Using SG-2 standard quadrature grid
 Nonlocal Correlation:  VV10 with C = 0.0100 and b = 6.00
 Grid used for NLC:  SG-1 standard quadrature
 SCF converges when DIIS error is below 1.0E-08
Using Q-Chem read-in guess as SCF_GUESS READ specified.

 using 4 threads for integral computing
 -------------------------------------------------------
 OpenMP Integral computing Module                
 Release: version 1.0, May 2013, Q-Chem Inc. Pittsburgh 
 -------------------------------------------------------
 using 4 threads for integral computing
 -------------------------------------------------------
 OpenMP Integral computing Module                
 Release: version 1.0, May 2013, Q-Chem Inc. Pittsburgh 
 -------------------------------------------------------
 -------------------------------------------------------
 OpenMP BLAS3 based DFT computing Module                
 Release: version 1.0, May 2013, Q-Chem Inc. Pittsburgh 
 -------------------------------------------------------
 -------------------------------------------------------
 OpenMP BLAS3 based DFT computing Module                
 Release: version 1.0, May 2013, Q-Chem Inc. Pittsburgh 
 -------------------------------------------------------
 -------------------------------------------------------
 OpenMP BLAS3 based DFT computing Module                
 Release: version 1.0, May 2013, Q-Chem Inc. Pittsburgh 
 -------------------------------------------------------
 ---------------------------------------
  Cycle       Energy         DIIS Error
 ---------------------------------------
    1    -646.6490123681      3.11E-04
    2    -646.9429197432      3.26E-04
    3    -646.9475137434      1.51E-04
    4    -646.9482815007      1.12E-04
    5    -646.9487575763      8.55E-05
    6    -646.9490382058      6.61E-05
    7    -646.9492457743      4.68E-05
    8    -646.9493743956      2.92E-05
    9    -646.9494440735      1.11E-05
   10    -646.9494549171      3.19E-06
   11    -646.9494558411      6.05E-07
   12    -646.9494558741      1.03E-07
   13    -646.9494558750      1.76E-08
   14    -646.9494558750      7.32E-09 Convergence criterion met
 ---------------------------------------

************** Final PCM Free Energy Summary **************
 G_electrostatic  =      -0.30090927 hartree =    -188.82341796 kcal/mol
 G_cavitation     =       0.00000000 hartree =       0.00000000 kcal/mol
 G_dispersion     =       0.00000000 hartree =       0.00000000 kcal/mol
 G_repulsion      =       0.00000000 hartree =       0.00000000 kcal/mol
 --------------------------------------------------
 Non-electrostatic Free Energy =       0.00000000 hartree =       0.00000000 kcal/mol
 Total                         =      -0.30090927 hartree =    -188.82341796 kcal/mol
 --------------------------------------------------
 SCF Energy (H0 + V/2)                       =    -646.94945588 
 Solute Internal Energy (H0)                 =    -646.64854660 
 Total Free Energy (H0 + V/2 + non-elec)     =    -646.94945588 hartree
                                             = -405966.91081988 kcal/mol
***********************************************************

 SCF time:  CPU 4147.27 s  wall 1072.76 s
 SCF   energy in the final basis set = -646.94945588
 Total energy in the final basis set = -646.94945588
 
 --------------------------------------------------------------
 
                    Orbital Energies (a.u.)
 --------------------------------------------------------------
 
 Alpha MOs
 -- Occupied --
-19.260 -19.231 -19.167 -19.139 -19.138 -19.138 -10.389 -10.337
-10.279 -10.250 -10.236  -1.251  -1.145  -1.140  -1.062  -1.045
 -0.989  -0.861  -0.845  -0.717  -0.677  -0.610  -0.598  -0.593
 -0.565  -0.551  -0.539  -0.528  -0.511  -0.505  -0.503  -0.481
 -0.466  -0.455  -0.452  -0.437  -0.414  -0.362  -0.353  -0.347
 -0.342  -0.328  -0.322  -0.315
 -- Virtual --
  0.061   0.073   0.075   0.082   0.100   0.103   0.106   0.109
  0.115   0.126   0.132   0.138   0.144   0.148   0.150   0.151
  0.166   0.169   0.172   0.182   0.185   0.186   0.190   0.199
  0.210   0.223   0.231   0.233   0.241   0.242   0.253   0.255
  0.259   0.267   0.275   0.278   0.283   0.290   0.299   0.305
  0.309   0.311   0.324   0.332   0.340   0.345   0.348   0.354
  0.358   0.359   0.363   0.371   0.373   0.382   0.384   0.389
  0.396   0.398   0.405   0.407   0.416   0.421   0.423   0.426
  0.433   0.435   0.442   0.451   0.456   0.459   0.466   0.480
  0.483   0.486   0.490   0.495   0.498   0.504   0.506   0.513
  0.516   0.520   0.526   0.533   0.544   0.548   0.550   0.555
  0.556   0.572   0.576   0.587   0.590   0.596   0.604   0.612
  0.618   0.624   0.639   0.647   0.650   0.654   0.656   0.659
  0.673   0.679   0.684   0.689   0.698   0.703   0.716   0.724
  0.725   0.727   0.732   0.743   0.750   0.755   0.761   0.768
  0.778   0.784   0.790   0.793   0.800   0.801   0.811   0.815
  0.821   0.829   0.832   0.834   0.842   0.853   0.864   0.866
  0.875   0.882   0.883   0.895   0.899   0.907   0.910   0.922
  0.934   0.935   0.951   0.954   0.969   0.975   0.997   1.002
  1.023   1.031   1.040   1.052   1.053   1.065   1.086   1.095
  1.105   1.105   1.119   1.129   1.142   1.145   1.156   1.168
  1.187   1.197   1.209   1.227   1.228   1.245   1.253   1.278
  1.293   1.306   1.322   1.328   1.335   1.344   1.367   1.368
  1.383   1.401   1.415   1.432   1.450   1.462   1.468   1.483
  1.494   1.501   1.523   1.546   1.571   1.583   1.587   1.594
  1.605   1.652   1.666   1.702   1.740   1.771   1.810   1.840
  1.867   1.890   1.907   1.917   1.924   1.931   1.934   1.952
  1.962   1.978   1.991   1.993   2.008   2.023   2.026   2.035
  2.052   2.055   2.076   2.101   2.117   2.127   2.151   2.162
  2.182   2.197   2.211   2.217   2.221   2.245   2.266   2.272
  2.287   2.301   2.348   2.358   2.377   2.397   2.407   2.417
  2.434   2.458   2.470   2.484   2.489   2.516   2.529   2.536
  2.565   2.576   2.591   2.605   2.619   2.629   2.650   2.653
  2.684   2.696   2.738   2.758   2.765   2.803   2.816   2.831
  2.860   2.876   2.898   2.904   2.924   2.937   2.946   2.967
  2.990   3.023   3.028   3.058   3.079   3.090   3.099   3.107
  3.122   3.157   3.191   3.217   3.241   3.255   3.267   3.278
  3.290   3.310   3.320   3.344   3.364   3.368   3.396   3.417
  3.424   3.433   3.457   3.462   3.481   3.489   3.513   3.521
  3.534   3.543   3.551   3.575   3.586   3.596   3.619   3.628
  3.652   3.656   3.675   3.683   3.696   3.714   3.722   3.740
  3.742   3.753   3.775   3.778   3.810   3.823   3.856   3.868
  3.894   3.901   3.930   3.976   4.032   4.068   4.080   4.096
  4.113   4.152   4.167   4.172   4.229   4.264   4.290   4.336
  4.363   4.428   4.507   4.591   4.619   4.631   4.660   4.720
  4.750   4.811   4.813   4.854   4.861   4.874   4.922   4.969
  5.069   5.107   5.129   5.181   5.227   5.274   5.315   5.323
  5.355   5.357   5.365   5.372   5.386   5.451   5.501   5.511
  5.548   5.585   5.610   5.625   5.668   5.713   5.719   5.767
  5.778   5.802   5.979   5.985   6.027   6.063   6.100   6.110
  6.244   6.259   6.297   6.325   6.327   6.355   6.491   6.514
  6.584   6.615   6.632   6.665   6.684   6.698   6.745   6.758
  6.761   6.770   6.777   6.804   6.914   6.938   6.963   6.976
  7.015   7.047   7.065   7.107   7.147   7.159   7.229   7.255
  7.280   7.357   7.371   7.372   7.398   7.419   7.523   7.554
  7.595   8.334  22.710  22.895  22.923  23.453  23.707  44.320
 44.354  44.416  44.441  44.530  44.722
 --------------------------------------------------------------
 
          Ground-State Mulliken Net Atomic Charges

     Atom                 Charge (a.u.)
  ----------------------------------------
      1 C                     0.170398
      2 C                    -0.009348
      3 O                    -0.698477
      4 O                    -0.698813
      5 C                    -0.331828
      6 H                     0.086709
      7 H                     0.238061
      8 O                    -0.833996
      9 H                     0.212209
     10 H                     0.145127
     11 C                     0.710631
     12 C                    -0.764175
     13 H                     0.268505
     14 H                     0.197019
     15 H                     0.213228
     16 O                    -0.649478
     17 O                    -0.203706
     18 O                    -0.476622
     19 H                     0.424558
  ----------------------------------------
  Sum of atomic charges =    -2.000000

 -----------------------------------------------------------------
                    Cartesian Multipole Moments
 -----------------------------------------------------------------
    Charge (ESU x 10^10)
                -9.6064
    Dipole Moment (Debye)
         X       7.4898      Y      -7.4348      Z      13.0788
       Tot      16.8056
    Quadrupole Moments (Debye-Ang)
        XX    -103.0367     XY       6.2048     YY     -92.7668
        XZ     -33.6094     YZ       8.7134     ZZ    -129.6040
    Octopole Moments (Debye-Ang^2)
       XXX      49.9032    XXY     -28.1398    XYY      30.4743
       YYY     -90.6631    XXZ     102.1196    XYZ     -18.5984
       YYZ      51.2656    XZZ     139.7370    YZZ     -72.9560
       ZZZ     270.4078
    Hexadecapole Moments (Debye-Ang^3)
      XXXX   -1037.7305   XXXY      75.4158   XXYY    -243.9062
      XYYY      90.2384   YYYY    -490.6533   XXXZ    -613.4159
      XXYZ      58.1430   XYYZ    -202.4571   YYYZ     149.3323
      XXZZ    -726.7266   XYZZ      86.2799   YYZZ    -526.7619
      XZZZ    -838.8081   YZZZ     194.1909   ZZZZ   -2560.3739
 -----------------------------------------------------------------
 Calculating analytic gradient of the SCF energy
 Gradient of SCF Energy
            1           2           3           4           5           6
    1   0.1549131  -0.0752475   0.0432715   0.0086227  -0.1261637  -0.0588108
    2  -0.0070666   0.0255420   0.0308114  -0.0582718   0.0567730  -0.0375834
    3  -0.0269729   0.0002953   0.0315330   0.0120665   0.0075085  -0.0033827
            7           8           9          10          11          12
    1  -0.0153536  -0.0188958   0.0380920   0.0331005  -0.0204679   0.0050236
    2   0.0433235  -0.0278897   0.0335453  -0.0716624   0.0489855  -0.0622669
    3   0.0114237  -0.0027140  -0.0040793  -0.0232803  -0.0137354   0.0564449
           13          14          15          16          17          18
    1  -0.0396544  -0.0337855   0.0633375   0.0454086  -0.0294277  -0.0160055
    2  -0.0304087   0.0604658   0.0222214  -0.0486204   0.0284073  -0.0445493
    3  -0.0418164   0.0220418  -0.0259722  -0.0007528   0.0254112  -0.0266333
           19
    1   0.0420428
    2   0.0382438
    3   0.0026146
 Max gradient component =       1.549E-01
 RMS gradient           =       4.454E-02
 Computing fast CPCM-ISWIG gradient
 Updating gradient with PCM contributions...
 -- total gradient after adding PCM contribution --
---------------------------------------------------
  Atom         X              Y              Z     
---------------------------------------------------
   1       0.001032       0.000084       0.000030
   2      -0.000260       0.000092      -0.000056
   3      -0.000022       0.000031      -0.000074
   4      -0.000005       0.000042       0.000010
   5      -0.000191      -0.000022       0.000101
   6      -0.000412      -0.000198      -0.000022
   7      -0.000112       0.000170       0.000027
   8       0.000025      -0.000000      -0.000077
   9      -0.000007      -0.000026       0.000022
  10      -0.000018      -0.000025       0.000025
  11      -0.000010      -0.000011       0.000013
  12      -0.000002      -0.000039      -0.000006
  13      -0.000010      -0.000043       0.000003
  14       0.000013      -0.000022      -0.000022
  15       0.000003      -0.000061      -0.000014
  16      -0.000031      -0.000042       0.000028
  17      -0.000019       0.000015       0.000026
  18       0.000008       0.000034      -0.000003
  19       0.000016       0.000022      -0.000014
---------------------------------------------------
 Number of fixed atoms: 0
 Gradient time:  CPU 970.91 s  wall 251.36 s
 ----------------------------------------------------------------
             Standard Nuclear Orientation (Angstroms)
    I     Atom           X                Y                Z
 ----------------------------------------------------------------
    1      C      -0.4176951826    -0.0073090837    -1.9094325931
    2      C      -1.4492418791     0.6180131287    -2.8513165532
    3      O      -2.2466278132    -0.1648805592    -3.4365242659
    4      O      -1.4628172970     1.8755132969    -2.9497790437
    5      C      -1.0242623554    -0.2152913510    -0.5112313932
    6      H       0.4563237693     0.6471419249    -1.8255826959
    7      H      -0.0968220908    -0.9782611663    -2.3035072594
    8      O      -0.1548252428    -0.8224155391     0.3928600504
    9      H      -1.9390473798    -0.8225617639    -0.6216644959
   10      H      -1.3457607540     0.7698620345    -0.1246409064
   11      C       0.6487346034     0.5423577214     1.6226902913
   12      C       0.9202177981    -0.4612387654     2.7161990474
   13      H       1.5336845893     0.0359002039     3.4762052848
   14      H       1.4474610717    -1.3408494944     2.3528619407
   15      H      -0.0278786800    -0.7575894485     3.1648705552
   16      O      -0.1168944961     1.4898126830     1.7686166891
   17      O       1.7295398178     0.8164793201     0.7636092769
   18      O       2.2391748605    -0.4050178160     0.2230158165
   19      H       1.3057366607    -0.8196653256     0.0527502544
 ----------------------------------------------------------------
 Nuclear Repulsion Energy =   646.0973852928 hartrees
 There are       44 alpha and       44 beta electrons
 Discretize the solute cavity surface with Lebedev spheres
	Using 110 Lebedev grid points for each H atom
	Using 110 Lebedev grid points for other atoms
	Atomic van der Waals radii will be scaled by 1.20
 Remove points where switching function is < 1.0e-08
 Keep 1111 surface tesserae and discard 979 interior tesserae
 Molecular Surface Area = 198.388 Angst**2
 Requested basis set is def2-TZVPD
 There are 189 shells and 497 basis functions
 A cutoff of  1.0D-14 yielded  16152 shell pairs
 There are    111688 function pairs (    142297 Cartesian)
 Smallest overlap matrix eigenvalue = 5.39E-06
 Guess MOs from SCF MO coefficient file
 Reading MOs from coefficient file
 Reading MOs from coefficient file
 Long-range K will be added via erf
 Coulomb attenuation parameter = 0.3 bohr**(-1)
 A restricted hybrid HF-DFT SCF calculation will be
 performed using Pulay DIIS extrapolation
 Polarizable Continuum solvation model will be applied
 Exchange:     0.1670 Hartree-Fock + 1.0000 wB97X-V + LR-HF
 Correlation:  1.0000 wB97X-V
 Using SG-2 standard quadrature grid
 Nonlocal Correlation:  VV10 with C = 0.0100 and b = 6.00
 Grid used for NLC:  SG-1 standard quadrature
 SCF converges when DIIS error is below 1.0E-08
Using Q-Chem read-in guess as SCF_GUESS READ specified.

 using 4 threads for integral computing
 -------------------------------------------------------
 OpenMP Integral computing Module                
 Release: version 1.0, May 2013, Q-Chem Inc. Pittsburgh 
 -------------------------------------------------------
 using 4 threads for integral computing
 -------------------------------------------------------
 OpenMP Integral computing Module                
 Release: version 1.0, May 2013, Q-Chem Inc. Pittsburgh 
 -------------------------------------------------------
 -------------------------------------------------------
 OpenMP BLAS3 based DFT computing Module                
 Release: version 1.0, May 2013, Q-Chem Inc. Pittsburgh 
 -------------------------------------------------------
 -------------------------------------------------------
 OpenMP BLAS3 based DFT computing Module                
 Release: version 1.0, May 2013, Q-Chem Inc. Pittsburgh 
 -------------------------------------------------------
 -------------------------------------------------------
 OpenMP BLAS3 based DFT computing Module                
 Release: version 1.0, May 2013, Q-Chem Inc. Pittsburgh 
 -------------------------------------------------------
 ---------------------------------------
  Cycle       Energy         DIIS Error
 ---------------------------------------
    1    -646.6476193550      3.12E-04
    2    -646.9429483867      3.25E-04
    3    -646.9475258215      1.50E-04
    4    -646.9482922853      1.12E-04
    5    -646.9487826882      8.39E-05
    6    -646.9490994240      6.10E-05
    7    -646.9493436797      3.42E-05
    8    -646.9494352063      1.47E-05
    9    -646.9494549239      3.19E-06
   10    -646.9494558596      6.94E-07
   11    -646.9494558988      1.30E-07
   12    -646.9494559002      3.03E-08
   13    -646.9494559003      1.50E-08
   14    -646.9494559003      6.06E-09 Convergence criterion met
 ---------------------------------------

************** Final PCM Free Energy Summary **************
 G_electrostatic  =      -0.30091155 hartree =    -188.82484661 kcal/mol
 G_cavitation     =       0.00000000 hartree =       0.00000000 kcal/mol
 G_dispersion     =       0.00000000 hartree =       0.00000000 kcal/mol
 G_repulsion      =       0.00000000 hartree =       0.00000000 kcal/mol
 --------------------------------------------------
 Non-electrostatic Free Energy =       0.00000000 hartree =       0.00000000 kcal/mol
 Total                         =      -0.30091155 hartree =    -188.82484661 kcal/mol
 --------------------------------------------------
 SCF Energy (H0 + V/2)                       =    -646.94945590 
 Solute Internal Energy (H0)                 =    -646.64854435 
 Total Free Energy (H0 + V/2 + non-elec)     =    -646.94945590 hartree
                                             = -405966.91083571 kcal/mol
***********************************************************

 SCF time:  CPU 4142.70 s  wall 1070.82 s
 SCF   energy in the final basis set = -646.94945590
 Total energy in the final basis set = -646.94945590
 
 --------------------------------------------------------------
 
                    Orbital Energies (a.u.)
 --------------------------------------------------------------
 
 Alpha MOs
 -- Occupied --
-19.260 -19.231 -19.167 -19.139 -19.138 -19.137 -10.389 -10.337
-10.279 -10.250 -10.236  -1.251  -1.145  -1.140  -1.062  -1.045
 -0.989  -0.861  -0.845  -0.717  -0.677  -0.610  -0.598  -0.593
 -0.565  -0.551  -0.539  -0.528  -0.512  -0.505  -0.503  -0.481
 -0.466  -0.455  -0.452  -0.437  -0.414  -0.362  -0.353  -0.347
 -0.342  -0.328  -0.322  -0.315
 -- Virtual --
  0.061   0.073   0.075   0.082   0.100   0.103   0.106   0.109
  0.115   0.126   0.132   0.138   0.144   0.148   0.150   0.151
  0.166   0.169   0.172   0.182   0.185   0.186   0.190   0.199
  0.210   0.223   0.231   0.233   0.241   0.242   0.253   0.255
  0.259   0.267   0.275   0.278   0.283   0.290   0.299   0.305
  0.309   0.311   0.324   0.332   0.340   0.345   0.348   0.354
  0.358   0.359   0.363   0.371   0.373   0.382   0.384   0.389
  0.396   0.398   0.405   0.407   0.416   0.421   0.423   0.426
  0.433   0.435   0.442   0.451   0.456   0.459   0.467   0.480
  0.483   0.486   0.490   0.495   0.498   0.504   0.506   0.513
  0.516   0.520   0.526   0.533   0.544   0.548   0.550   0.555
  0.556   0.572   0.576   0.587   0.590   0.596   0.604   0.612
  0.618   0.624   0.639   0.647   0.650   0.654   0.656   0.659
  0.673   0.679   0.684   0.689   0.698   0.703   0.716   0.724
  0.725   0.727   0.732   0.743   0.750   0.755   0.761   0.768
  0.778   0.784   0.790   0.793   0.800   0.801   0.811   0.815
  0.821   0.829   0.832   0.834   0.842   0.853   0.864   0.866
  0.875   0.881   0.883   0.895   0.899   0.907   0.910   0.922
  0.934   0.935   0.951   0.954   0.969   0.975   0.997   1.002
  1.023   1.031   1.040   1.052   1.053   1.065   1.086   1.095
  1.105   1.105   1.119   1.129   1.142   1.145   1.156   1.168
  1.187   1.197   1.209   1.227   1.228   1.245   1.253   1.278
  1.293   1.306   1.322   1.328   1.335   1.344   1.367   1.368
  1.383   1.401   1.415   1.432   1.450   1.462   1.468   1.483
  1.494   1.501   1.523   1.546   1.571   1.583   1.587   1.594
  1.605   1.652   1.667   1.703   1.740   1.771   1.810   1.840
  1.867   1.890   1.907   1.917   1.924   1.931   1.934   1.952
  1.962   1.978   1.991   1.993   2.008   2.023   2.026   2.035
  2.053   2.055   2.076   2.101   2.117   2.127   2.151   2.162
  2.182   2.197   2.211   2.217   2.221   2.245   2.266   2.272
  2.287   2.301   2.348   2.358   2.377   2.397   2.407   2.417
  2.434   2.458   2.470   2.484   2.489   2.516   2.529   2.536
  2.566   2.576   2.592   2.605   2.619   2.629   2.651   2.653
  2.684   2.696   2.738   2.758   2.765   2.803   2.816   2.831
  2.861   2.876   2.898   2.904   2.924   2.938   2.946   2.967
  2.990   3.023   3.028   3.057   3.079   3.090   3.099   3.107
  3.122   3.157   3.190   3.217   3.241   3.255   3.267   3.278
  3.290   3.310   3.320   3.344   3.364   3.368   3.396   3.417
  3.424   3.433   3.457   3.463   3.481   3.489   3.513   3.521
  3.534   3.543   3.551   3.575   3.586   3.596   3.619   3.628
  3.652   3.656   3.675   3.683   3.696   3.714   3.722   3.740
  3.742   3.753   3.775   3.778   3.810   3.823   3.856   3.868
  3.894   3.901   3.930   3.976   4.032   4.069   4.080   4.097
  4.113   4.152   4.168   4.172   4.229   4.265   4.290   4.336
  4.365   4.428   4.508   4.590   4.619   4.631   4.660   4.720
  4.751   4.810   4.813   4.854   4.861   4.874   4.922   4.969
  5.069   5.107   5.129   5.181   5.227   5.274   5.315   5.323
  5.355   5.357   5.365   5.372   5.386   5.451   5.501   5.511
  5.548   5.585   5.610   5.625   5.668   5.713   5.719   5.767
  5.779   5.802   5.979   5.986   6.027   6.063   6.100   6.111
  6.244   6.259   6.297   6.325   6.327   6.355   6.491   6.514
  6.584   6.615   6.632   6.665   6.684   6.698   6.745   6.758
  6.761   6.770   6.777   6.804   6.914   6.939   6.963   6.976
  7.015   7.047   7.065   7.107   7.147   7.159   7.229   7.255
  7.280   7.358   7.372   7.372   7.398   7.419   7.523   7.554
  7.595   8.334  22.710  22.894  22.923  23.453  23.708  44.320
 44.354  44.416  44.441  44.530  44.722
 --------------------------------------------------------------
 
          Ground-State Mulliken Net Atomic Charges

     Atom                 Charge (a.u.)
  ----------------------------------------
      1 C                     0.172588
      2 C                    -0.011095
      3 O                    -0.698437
      4 O                    -0.698788
      5 C                    -0.330984
      6 H                     0.085657
      7 H                     0.238314
      8 O                    -0.833952
      9 H                     0.211692
     10 H                     0.145082
     11 C                     0.710728
     12 C                    -0.764197
     13 H                     0.268501
     14 H                     0.197026
     15 H                     0.213250
     16 O                    -0.649466
     17 O                    -0.203685
     18 O                    -0.476606
     19 H                     0.424371
  ----------------------------------------
  Sum of atomic charges =    -2.000000

 -----------------------------------------------------------------
                    Cartesian Multipole Moments
 -----------------------------------------------------------------
    Charge (ESU x 10^10)
                -9.6064
    Dipole Moment (Debye)
         X       7.4900      Y      -7.4353      Z      13.0800
       Tot      16.8068
    Quadrupole Moments (Debye-Ang)
        XX    -103.0386     XY       6.2010     YY     -92.7683
        XZ     -33.6088     YZ       8.7138     ZZ    -129.6048
    Octopole Moments (Debye-Ang^2)
       XXX      49.9358    XXY     -28.1347    XYY      30.4821
       YYY     -90.6616    XXZ     102.1239    XYZ     -18.5920
       YYZ      51.2730    XZZ     139.7560    YZZ     -72.9569
       ZZZ     270.4329
    Hexadecapole Moments (Debye-Ang^3)
      XXXX   -1037.7838   XXXY      75.3953   XXYY    -243.9093
      XYYY      90.2239   YYYY    -490.6527   XXXZ    -613.4682
      XXYZ      58.1362   XYYZ    -202.4699   YYYZ     149.3264
      XXZZ    -726.7571   XYZZ      86.2662   YYZZ    -526.7717
      XZZZ    -838.9120   YZZZ     194.1930   ZZZZ   -2560.4501
 -----------------------------------------------------------------
 Calculating analytic gradient of the SCF energy
 Gradient of SCF Energy
            1           2           3           4           5           6
    1   0.1532623  -0.0748406   0.0432796   0.0085753  -0.1257744  -0.0579777
    2  -0.0069121   0.0253442   0.0308052  -0.0582767   0.0565847  -0.0371273
    3  -0.0270866   0.0006035   0.0315818   0.0120817   0.0073026  -0.0033155
            7           8           9          10          11          12
    1  -0.0152305  -0.0189158   0.0380594   0.0331297  -0.0204764   0.0050152
    2   0.0430092  -0.0278346   0.0335093  -0.0715805   0.0489777  -0.0622627
    3   0.0113201  -0.0026847  -0.0041545  -0.0232462  -0.0137068   0.0564334
           13          14          15          16          17          18
    1  -0.0396547  -0.0337841   0.0633374   0.0454076  -0.0294266  -0.0160062
    2  -0.0304103   0.0604630   0.0222190  -0.0486178   0.0284107  -0.0445432
    3  -0.0418169   0.0220429  -0.0259701  -0.0007550   0.0254223  -0.0266354
           19
    1   0.0420205
    2   0.0382423
    3   0.0025835
 Max gradient component =       1.533E-01
 RMS gradient           =       4.437E-02
 Computing fast CPCM-ISWIG gradient
 Updating gradient with PCM contributions...
 -- total gradient after adding PCM contribution --
---------------------------------------------------
  Atom         X              Y              Z     
---------------------------------------------------
   1      -0.001016      -0.000020      -0.000035
   2       0.000255      -0.000033       0.000072
   3       0.000047       0.000030       0.000053
   4      -0.000037       0.000025       0.000055
   5       0.000203       0.000009      -0.000117
   6       0.000399       0.000283       0.000048
   7       0.000160      -0.000083      -0.000065
   8      -0.000002      -0.000023       0.000047
   9       0.000039      -0.000015      -0.000068
  10      -0.000007      -0.000016      -0.000002
  11      -0.000017      -0.000032       0.000006
  12       0.000001      -0.000036      -0.000005
  13      -0.000009      -0.000043       0.000005
  14       0.000013      -0.000023      -0.000022
  15       0.000003      -0.000061      -0.000014
  16      -0.000035      -0.000034       0.000029
  17      -0.000016       0.000017       0.000024
  18       0.000007       0.000034      -0.000003
  19       0.000012       0.000020      -0.000010
---------------------------------------------------
 Number of fixed atoms: 0
 Gradient time:  CPU 973.61 s  wall 251.88 s
 ----------------------------------------------------------------
             Standard Nuclear Orientation (Angstroms)
    I     Atom           X                Y                Z
 ----------------------------------------------------------------
    1      C      -0.4166951826    -0.0063090837    -1.9094325931
    2      C      -1.4492418791     0.6180131287    -2.8513165532
    3      O      -2.2466278132    -0.1648805592    -3.4365242659
    4      O      -1.4628172970     1.8755132969    -2.9497790437
    5      C      -1.0242623554    -0.2152913510    -0.5112313932
    6      H       0.4563237693     0.6471419249    -1.8255826959
    7      H      -0.0968220908    -0.9782611663    -2.3035072594
    8      O      -0.1548252428    -0.8224155391     0.3928600504
    9      H      -1.9390473798    -0.8225617639    -0.6216644959
   10      H      -1.3457607540     0.7698620345    -0.1246409064
   11      C       0.6487346034     0.5423577214     1.6226902913
   12      C       0.9202177981    -0.4612387654     2.7161990474
   13      H       1.5336845893     0.0359002039     3.4762052848
   14      H       1.4474610717    -1.3408494944     2.3528619407
   15      H      -0.0278786800    -0.7575894485     3.1648705552
   16      O      -0.1168944961     1.4898126830     1.7686166891
   17      O       1.7295398178     0.8164793201     0.7636092769
   18      O       2.2391748605    -0.4050178160     0.2230158165
   19      H       1.3057366607    -0.8196653256     0.0527502544
 ----------------------------------------------------------------
 Nuclear Repulsion Energy =   646.0939839621 hartrees
 There are       44 alpha and       44 beta electrons
 Discretize the solute cavity surface with Lebedev spheres
	Using 110 Lebedev grid points for each H atom
	Using 110 Lebedev grid points for other atoms
	Atomic van der Waals radii will be scaled by 1.20
 Remove points where switching function is < 1.0e-08
 Keep 1111 surface tesserae and discard 979 interior tesserae
 Molecular Surface Area = 198.390 Angst**2
 Requested basis set is def2-TZVPD
 There are 189 shells and 497 basis functions
 A cutoff of  1.0D-14 yielded  16152 shell pairs
 There are    111688 function pairs (    142297 Cartesian)
 Smallest overlap matrix eigenvalue = 5.39E-06
 Guess MOs from SCF MO coefficient file
 Reading MOs from coefficient file
 Reading MOs from coefficient file
 Long-range K will be added via erf
 Coulomb attenuation parameter = 0.3 bohr**(-1)
 A restricted hybrid HF-DFT SCF calculation will be
 performed using Pulay DIIS extrapolation
 Polarizable Continuum solvation model will be applied
 Exchange:     0.1670 Hartree-Fock + 1.0000 wB97X-V + LR-HF
 Correlation:  1.0000 wB97X-V
 Using SG-2 standard quadrature grid
 Nonlocal Correlation:  VV10 with C = 0.0100 and b = 6.00
 Grid used for NLC:  SG-1 standard quadrature
 SCF converges when DIIS error is below 1.0E-08
Using Q-Chem read-in guess as SCF_GUESS READ specified.

 using 4 threads for integral computing
 -------------------------------------------------------
 OpenMP Integral computing Module                
 Release: version 1.0, May 2013, Q-Chem Inc. Pittsburgh 
 -------------------------------------------------------
 using 4 threads for integral computing
 -------------------------------------------------------
 OpenMP Integral computing Module                
 Release: version 1.0, May 2013, Q-Chem Inc. Pittsburgh 
 -------------------------------------------------------
 -------------------------------------------------------
 OpenMP BLAS3 based DFT computing Module                
 Release: version 1.0, May 2013, Q-Chem Inc. Pittsburgh 
 -------------------------------------------------------
 -------------------------------------------------------
 OpenMP BLAS3 based DFT computing Module                
 Release: version 1.0, May 2013, Q-Chem Inc. Pittsburgh 
 -------------------------------------------------------
 -------------------------------------------------------
 OpenMP BLAS3 based DFT computing Module                
 Release: version 1.0, May 2013, Q-Chem Inc. Pittsburgh 
 -------------------------------------------------------
 ---------------------------------------
  Cycle       Energy         DIIS Error
 ---------------------------------------
    1    -646.6487926758      3.12E-04
    2    -646.9429142415      3.26E-04
    3    -646.9475141629      1.51E-04
    4    -646.9482834650      1.12E-04
    5    -646.9487655276      8.50E-05
    6    -646.9490603763      6.43E-05
    7    -646.9492878839      4.18E-05
    8    -646.9494081856      2.23E-05
    9    -646.9494518251      6.39E-06
   10    -646.9494555332      1.47E-06
   11    -646.9494557266      2.27E-07
   12    -646.9494557311      3.75E-08
   13    -646.9494557312      1.49E-08
   14    -646.9494557312      8.22E-09 Convergence criterion met
 ---------------------------------------

************** Final PCM Free Energy Summary **************
 G_electrostatic  =      -0.30090900 hartree =    -188.82324769 kcal/mol
 G_cavitation     =       0.00000000 hartree =       0.00000000 kcal/mol
 G_dispersion     =       0.00000000 hartree =       0.00000000 kcal/mol
 G_repulsion      =       0.00000000 hartree =       0.00000000 kcal/mol
 --------------------------------------------------
 Non-electrostatic Free Energy =       0.00000000 hartree =       0.00000000 kcal/mol
 Total                         =      -0.30090900 hartree =    -188.82324769 kcal/mol
 --------------------------------------------------
 SCF Energy (H0 + V/2)                       =    -646.94945573 
 Solute Internal Energy (H0)                 =    -646.64854673 
 Total Free Energy (H0 + V/2 + non-elec)     =    -646.94945573 hartree
                                             = -405966.91072961 kcal/mol
***********************************************************

 SCF time:  CPU 4144.55 s  wall 1071.61 s
 SCF   energy in the final basis set = -646.94945573
 Total energy in the final basis set = -646.94945573
 
 --------------------------------------------------------------
 
                    Orbital Energies (a.u.)
 --------------------------------------------------------------
 
 Alpha MOs
 -- Occupied --
-19.260 -19.231 -19.167 -19.139 -19.138 -19.138 -10.389 -10.337
-10.279 -10.250 -10.236  -1.251  -1.145  -1.140  -1.062  -1.045
 -0.989  -0.861  -0.845  -0.717  -0.677  -0.610  -0.598  -0.593
 -0.565  -0.551  -0.539  -0.528  -0.511  -0.505  -0.503  -0.481
 -0.466  -0.455  -0.452  -0.437  -0.414  -0.362  -0.353  -0.347
 -0.342  -0.328  -0.322  -0.315
 -- Virtual --
  0.061   0.073   0.075   0.082   0.100   0.103   0.106   0.109
  0.115   0.126   0.132   0.138   0.144   0.148   0.150   0.151
  0.166   0.169   0.172   0.182   0.185   0.186   0.190   0.199
  0.210   0.223   0.231   0.233   0.241   0.242   0.253   0.255
  0.259   0.267   0.275   0.278   0.283   0.290   0.299   0.305
  0.309   0.311   0.324   0.332   0.340   0.345   0.348   0.354
  0.358   0.359   0.363   0.371   0.373   0.382   0.384   0.389
  0.396   0.398   0.405   0.407   0.416   0.421   0.423   0.426
  0.433   0.435   0.442   0.451   0.456   0.459   0.467   0.480
  0.483   0.486   0.490   0.495   0.498   0.504   0.506   0.513
  0.516   0.520   0.526   0.533   0.544   0.548   0.550   0.555
  0.556   0.572   0.576   0.587   0.590   0.596   0.604   0.612
  0.618   0.624   0.639   0.647   0.650   0.654   0.656   0.659
  0.673   0.679   0.684   0.689   0.698   0.703   0.716   0.724
  0.725   0.727   0.732   0.743   0.750   0.755   0.761   0.768
  0.778   0.784   0.790   0.793   0.800   0.801   0.811   0.815
  0.821   0.829   0.832   0.834   0.842   0.853   0.864   0.866
  0.875   0.882   0.883   0.895   0.899   0.907   0.910   0.922
  0.934   0.935   0.951   0.954   0.969   0.975   0.997   1.002
  1.023   1.031   1.040   1.052   1.053   1.065   1.086   1.095
  1.105   1.105   1.119   1.129   1.142   1.145   1.156   1.168
  1.187   1.197   1.209   1.227   1.228   1.245   1.253   1.278
  1.293   1.306   1.322   1.328   1.335   1.344   1.367   1.368
  1.383   1.401   1.415   1.432   1.450   1.462   1.468   1.483
  1.494   1.501   1.523   1.546   1.571   1.583   1.587   1.594
  1.605   1.652   1.666   1.703   1.740   1.771   1.810   1.840
  1.867   1.890   1.907   1.917   1.924   1.931   1.934   1.952
  1.962   1.978   1.991   1.993   2.008   2.023   2.026   2.035
  2.053   2.055   2.076   2.101   2.117   2.127   2.151   2.162
  2.182   2.197   2.211   2.217   2.221   2.245   2.266   2.272
  2.287   2.301   2.348   2.358   2.377   2.397   2.407   2.417
  2.434   2.458   2.470   2.484   2.489   2.516   2.529   2.536
  2.565   2.576   2.592   2.605   2.619   2.629   2.651   2.653
  2.684   2.696   2.738   2.758   2.765   2.803   2.816   2.831
  2.861   2.876   2.898   2.904   2.924   2.937   2.946   2.967
  2.990   3.023   3.028   3.057   3.079   3.090   3.099   3.107
  3.122   3.157   3.190   3.217   3.241   3.255   3.267   3.278
  3.290   3.310   3.320   3.344   3.364   3.368   3.396   3.418
  3.424   3.433   3.457   3.462   3.481   3.489   3.513   3.521
  3.534   3.543   3.551   3.575   3.586   3.596   3.619   3.628
  3.652   3.656   3.675   3.683   3.696   3.715   3.722   3.740
  3.742   3.753   3.775   3.778   3.810   3.823   3.856   3.868
  3.894   3.901   3.930   3.976   4.032   4.068   4.080   4.097
  4.113   4.152   4.167   4.172   4.229   4.265   4.290   4.336
  4.364   4.428   4.508   4.590   4.619   4.631   4.660   4.720
  4.750   4.810   4.813   4.854   4.861   4.874   4.922   4.969
  5.069   5.107   5.129   5.181   5.227   5.274   5.315   5.323
  5.355   5.357   5.365   5.372   5.386   5.451   5.501   5.511
  5.548   5.585   5.610   5.625   5.668   5.713   5.719   5.767
  5.779   5.802   5.979   5.986   6.027   6.063   6.100   6.110
  6.244   6.259   6.297   6.325   6.327   6.355   6.491   6.514
  6.584   6.615   6.632   6.665   6.684   6.698   6.745   6.758
  6.761   6.770   6.777   6.804   6.914   6.938   6.963   6.976
  7.015   7.047   7.065   7.107   7.147   7.159   7.229   7.255
  7.280   7.358   7.371   7.372   7.398   7.419   7.523   7.554
  7.595   8.334  22.710  22.894  22.923  23.453  23.708  44.320
 44.354  44.416  44.441  44.530  44.722
 --------------------------------------------------------------
 
          Ground-State Mulliken Net Atomic Charges

     Atom                 Charge (a.u.)
  ----------------------------------------
      1 C                     0.171845
      2 C                    -0.010552
      3 O                    -0.698494
      4 O                    -0.698803
      5 C                    -0.331200
      6 H                     0.086860
      7 H                     0.237369
      8 O                    -0.834000
      9 H                     0.211975
     10 H                     0.145004
     11 C                     0.710647
     12 C                    -0.764223
     13 H                     0.268512
     14 H                     0.197028
     15 H                     0.213247
     16 O                    -0.649446
     17 O                    -0.203695
     18 O                    -0.476621
     19 H                     0.424548
  ----------------------------------------
  Sum of atomic charges =    -2.000000

 -----------------------------------------------------------------
                    Cartesian Multipole Moments
 -----------------------------------------------------------------
    Charge (ESU x 10^10)
                -9.6064
    Dipole Moment (Debye)
         X       7.4906      Y      -7.4343      Z      13.0806
       Tot      16.8072
    Quadrupole Moments (Debye-Ang)
        XX    -103.0361     XY       6.2055     YY     -92.7701
        XZ     -33.6097     YZ       8.7113     ZZ    -129.6077
    Octopole Moments (Debye-Ang^2)
       XXX      49.9184    XXY     -28.1456    XYY      30.4816
       YYY     -90.6776    XXZ     102.1195    XYZ     -18.6002
       YYZ      51.2792    XZZ     139.7479    YZZ     -72.9582
       ZZZ     270.4354
    Hexadecapole Moments (Debye-Ang^3)
      XXXX   -1037.7357   XXXY      75.4247   XXYY    -243.9139
      XYYY      90.2492   YYYY    -490.6701   XXXZ    -613.4323
      XXYZ      58.1546   XYYZ    -202.4747   YYYZ     149.3619
      XXZZ    -726.7309   XYZZ      86.2932   YYZZ    -526.7962
      XZZZ    -838.8535   YZZZ     194.2169   ZZZZ   -2560.4438
 -----------------------------------------------------------------
 Calculating analytic gradient of the SCF energy
 Gradient of SCF Energy
            1           2           3           4           5           6
    1   0.1542148  -0.0750339   0.0432618   0.0086229  -0.1259598  -0.0587023
    2  -0.0060913   0.0253585   0.0308333  -0.0582871   0.0564717  -0.0375830
    3  -0.0268595   0.0005009   0.0315494   0.0120963   0.0073863  -0.0033916
            7           8           9          10          11          12
    1  -0.0151332  -0.0188972   0.0380510   0.0331346  -0.0204887   0.0050228
    2   0.0427548  -0.0278791   0.0335531  -0.0716062   0.0489962  -0.0622674
    3   0.0111898  -0.0026953  -0.0041040  -0.0232888  -0.0137172   0.0564341
           13          14          15          16          17          18
    1  -0.0396547  -0.0337841   0.0633365   0.0454059  -0.0294209  -0.0160041
    2  -0.0304091   0.0604647   0.0222201  -0.0486189   0.0284103  -0.0445456
    3  -0.0418173   0.0220410  -0.0259687  -0.0007509   0.0254131  -0.0266343
           19
    1   0.0420286
    2   0.0382250
    3   0.0026169
 Max gradient component =       1.542E-01
 RMS gradient           =       4.445E-02
 Computing fast CPCM-ISWIG gradient
 Updating gradient with PCM contributions...
 -- total gradient after adding PCM contribution --
---------------------------------------------------
  Atom         X              Y              Z     
---------------------------------------------------
   1       0.000061       0.001157       0.000089
   2       0.000051      -0.000136       0.000052
   3      -0.000025       0.000044      -0.000044
   4       0.000030      -0.000034       0.000085
   5      -0.000001      -0.000146      -0.000011
   6      -0.000238      -0.000238      -0.000012
   7       0.000141      -0.000437      -0.000180
   8       0.000014      -0.000017       0.000031
   9      -0.000006      -0.000025       0.000013
  10       0.000011      -0.000014      -0.000036
  11      -0.000014      -0.000028       0.000005
  12      -0.000000      -0.000037      -0.000005
  13      -0.000010      -0.000043       0.000005
  14       0.000013      -0.000022      -0.000022
  15       0.000003      -0.000061      -0.000014
  16      -0.000035      -0.000036       0.000029
  17      -0.000016       0.000016       0.000026
  18       0.000010       0.000034       0.000000
  19       0.000011       0.000023      -0.000012
---------------------------------------------------
 Number of fixed atoms: 0
 Gradient time:  CPU 970.74 s  wall 250.87 s
 ----------------------------------------------------------------
             Standard Nuclear Orientation (Angstroms)
    I     Atom           X                Y                Z
 ----------------------------------------------------------------
    1      C      -0.4166951826    -0.0083090837    -1.9094325931
    2      C      -1.4492418791     0.6180131287    -2.8513165532
    3      O      -2.2466278132    -0.1648805592    -3.4365242659
    4      O      -1.4628172970     1.8755132969    -2.9497790437
    5      C      -1.0242623554    -0.2152913510    -0.5112313932
    6      H       0.4563237693     0.6471419249    -1.8255826959
    7      H      -0.0968220908    -0.9782611663    -2.3035072594
    8      O      -0.1548252428    -0.8224155391     0.3928600504
    9      H      -1.9390473798    -0.8225617639    -0.6216644959
   10      H      -1.3457607540     0.7698620345    -0.1246409064
   11      C       0.6487346034     0.5423577214     1.6226902913
   12      C       0.9202177981    -0.4612387654     2.7161990474
   13      H       1.5336845893     0.0359002039     3.4762052848
   14      H       1.4474610717    -1.3408494944     2.3528619407
   15      H      -0.0278786800    -0.7575894485     3.1648705552
   16      O      -0.1168944961     1.4898126830     1.7686166891
   17      O       1.7295398178     0.8164793201     0.7636092769
   18      O       2.2391748605    -0.4050178160     0.2230158165
   19      H       1.3057366607    -0.8196653256     0.0527502544
 ----------------------------------------------------------------
 Nuclear Repulsion Energy =   646.0859094590 hartrees
 There are       44 alpha and       44 beta electrons
 Discretize the solute cavity surface with Lebedev spheres
	Using 110 Lebedev grid points for each H atom
	Using 110 Lebedev grid points for other atoms
	Atomic van der Waals radii will be scaled by 1.20
 Remove points where switching function is < 1.0e-08
 Keep 1111 surface tesserae and discard 979 interior tesserae
 Molecular Surface Area = 198.388 Angst**2
 Requested basis set is def2-TZVPD
 There are 189 shells and 497 basis functions
 A cutoff of  1.0D-14 yielded  16152 shell pairs
 There are    111688 function pairs (    142297 Cartesian)
 Smallest overlap matrix eigenvalue = 5.39E-06
 Guess MOs from SCF MO coefficient file
 Reading MOs from coefficient file
 Reading MOs from coefficient file
 Long-range K will be added via erf
 Coulomb attenuation parameter = 0.3 bohr**(-1)
 A restricted hybrid HF-DFT SCF calculation will be
 performed using Pulay DIIS extrapolation
 Polarizable Continuum solvation model will be applied
 Exchange:     0.1670 Hartree-Fock + 1.0000 wB97X-V + LR-HF
 Correlation:  1.0000 wB97X-V
 Using SG-2 standard quadrature grid
 Nonlocal Correlation:  VV10 with C = 0.0100 and b = 6.00
 Grid used for NLC:  SG-1 standard quadrature
 SCF converges when DIIS error is below 1.0E-08
Using Q-Chem read-in guess as SCF_GUESS READ specified.

 using 4 threads for integral computing
 -------------------------------------------------------
 OpenMP Integral computing Module                
 Release: version 1.0, May 2013, Q-Chem Inc. Pittsburgh 
 -------------------------------------------------------
 using 4 threads for integral computing
 -------------------------------------------------------
 OpenMP Integral computing Module                
 Release: version 1.0, May 2013, Q-Chem Inc. Pittsburgh 
 -------------------------------------------------------
 -------------------------------------------------------
 OpenMP BLAS3 based DFT computing Module                
 Release: version 1.0, May 2013, Q-Chem Inc. Pittsburgh 
 -------------------------------------------------------
 -------------------------------------------------------
 OpenMP BLAS3 based DFT computing Module                
 Release: version 1.0, May 2013, Q-Chem Inc. Pittsburgh 
 -------------------------------------------------------
 -------------------------------------------------------
 OpenMP BLAS3 based DFT computing Module                
 Release: version 1.0, May 2013, Q-Chem Inc. Pittsburgh 
 -------------------------------------------------------
 ---------------------------------------
  Cycle       Energy         DIIS Error
 ---------------------------------------
    1    -646.6489896854      3.12E-04
    2    -646.9429377081      3.25E-04
    3    -646.9475223862      1.50E-04
    4    -646.9482903866      1.12E-04
    5    -646.9487800491      8.41E-05
    6    -646.9491021380      6.08E-05
    7    -646.9493477654      3.35E-05
    8    -646.9494366224      1.41E-05
    9    -646.9494550190      2.93E-06
   10    -646.9494558105      6.59E-07
   11    -646.9494558455      1.17E-07
   12    -646.9494558466      3.10E-08
   13    -646.9494558467      1.45E-08
   14    -646.9494558467      5.84E-09 Convergence criterion met
 ---------------------------------------

************** Final PCM Free Energy Summary **************
 G_electrostatic  =      -0.30091177 hartree =    -188.82498445 kcal/mol
 G_cavitation     =       0.00000000 hartree =       0.00000000 kcal/mol
 G_dispersion     =       0.00000000 hartree =       0.00000000 kcal/mol
 G_repulsion      =       0.00000000 hartree =       0.00000000 kcal/mol
 --------------------------------------------------
 Non-electrostatic Free Energy =       0.00000000 hartree =       0.00000000 kcal/mol
 Total                         =      -0.30091177 hartree =    -188.82498445 kcal/mol
 --------------------------------------------------
 SCF Energy (H0 + V/2)                       =    -646.94945585 
 Solute Internal Energy (H0)                 =    -646.64854408 
 Total Free Energy (H0 + V/2 + non-elec)     =    -646.94945585 hartree
                                             = -405966.91080208 kcal/mol
***********************************************************

 SCF time:  CPU 4144.82 s  wall 1071.19 s
 SCF   energy in the final basis set = -646.94945585
 Total energy in the final basis set = -646.94945585
 
 --------------------------------------------------------------
 
                    Orbital Energies (a.u.)
 --------------------------------------------------------------
 
 Alpha MOs
 -- Occupied --
-19.260 -19.231 -19.167 -19.139 -19.138 -19.137 -10.389 -10.337
-10.279 -10.250 -10.236  -1.251  -1.145  -1.140  -1.062  -1.045
 -0.989  -0.861  -0.845  -0.717  -0.677  -0.610  -0.598  -0.593
 -0.565  -0.551  -0.539  -0.528  -0.511  -0.505  -0.503  -0.481
 -0.466  -0.455  -0.452  -0.437  -0.414  -0.362  -0.353  -0.347
 -0.342  -0.328  -0.322  -0.315
 -- Virtual --
  0.061   0.073   0.075   0.082   0.100   0.103   0.106   0.109
  0.115   0.126   0.132   0.138   0.144   0.148   0.150   0.151
  0.166   0.169   0.172   0.182   0.185   0.186   0.190   0.199
  0.210   0.223   0.231   0.233   0.241   0.242   0.253   0.255
  0.259   0.267   0.275   0.278   0.283   0.290   0.299   0.305
  0.309   0.311   0.324   0.332   0.340   0.345   0.348   0.354
  0.358   0.359   0.363   0.371   0.373   0.382   0.384   0.389
  0.396   0.398   0.405   0.407   0.416   0.421   0.423   0.426
  0.433   0.435   0.442   0.451   0.456   0.459   0.466   0.480
  0.483   0.486   0.490   0.495   0.498   0.504   0.506   0.513
  0.516   0.520   0.526   0.533   0.544   0.548   0.550   0.555
  0.556   0.572   0.576   0.587   0.590   0.596   0.604   0.612
  0.618   0.624   0.639   0.647   0.650   0.654   0.656   0.659
  0.673   0.679   0.684   0.689   0.698   0.703   0.716   0.724
  0.725   0.727   0.732   0.743   0.750   0.755   0.761   0.768
  0.778   0.784   0.790   0.793   0.800   0.801   0.811   0.815
  0.821   0.829   0.832   0.834   0.842   0.853   0.864   0.866
  0.875   0.881   0.883   0.895   0.899   0.907   0.910   0.922
  0.934   0.935   0.951   0.954   0.969   0.975   0.997   1.002
  1.023   1.031   1.040   1.052   1.053   1.065   1.086   1.095
  1.105   1.105   1.119   1.129   1.142   1.145   1.156   1.168
  1.187   1.197   1.209   1.227   1.228   1.245   1.253   1.278
  1.293   1.306   1.322   1.328   1.335   1.344   1.367   1.368
  1.383   1.401   1.415   1.432   1.450   1.462   1.468   1.483
  1.494   1.501   1.523   1.546   1.571   1.583   1.587   1.594
  1.605   1.652   1.667   1.702   1.740   1.771   1.810   1.840
  1.867   1.890   1.907   1.917   1.924   1.931   1.934   1.952
  1.962   1.978   1.991   1.993   2.008   2.023   2.026   2.035
  2.053   2.055   2.076   2.101   2.117   2.127   2.151   2.162
  2.182   2.197   2.211   2.217   2.221   2.245   2.266   2.272
  2.287   2.301   2.348   2.358   2.377   2.397   2.407   2.417
  2.434   2.458   2.470   2.484   2.489   2.516   2.529   2.536
  2.565   2.576   2.592   2.605   2.619   2.629   2.650   2.653
  2.684   2.696   2.738   2.758   2.765   2.803   2.816   2.831
  2.861   2.876   2.899   2.904   2.924   2.937   2.946   2.967
  2.990   3.023   3.028   3.058   3.079   3.090   3.099   3.107
  3.122   3.157   3.190   3.217   3.241   3.255   3.267   3.278
  3.290   3.310   3.320   3.344   3.364   3.368   3.396   3.417
  3.424   3.433   3.457   3.462   3.481   3.489   3.513   3.521
  3.534   3.543   3.551   3.575   3.586   3.596   3.619   3.628
  3.652   3.655   3.675   3.683   3.696   3.714   3.722   3.740
  3.742   3.753   3.775   3.778   3.810   3.823   3.856   3.868
  3.894   3.901   3.930   3.976   4.032   4.068   4.080   4.096
  4.113   4.152   4.167   4.172   4.229   4.264   4.290   4.336
  4.364   4.428   4.507   4.591   4.619   4.631   4.660   4.720
  4.750   4.810   4.813   4.854   4.861   4.874   4.922   4.969
  5.069   5.107   5.129   5.181   5.227   5.274   5.315   5.323
  5.355   5.357   5.365   5.372   5.386   5.451   5.501   5.511
  5.548   5.585   5.610   5.625   5.668   5.713   5.719   5.767
  5.778   5.802   5.979   5.985   6.027   6.063   6.100   6.111
  6.244   6.259   6.297   6.325   6.327   6.355   6.491   6.514
  6.584   6.615   6.632   6.665   6.684   6.698   6.745   6.758
  6.761   6.770   6.777   6.804   6.914   6.938   6.963   6.976
  7.015   7.047   7.064   7.107   7.147   7.159   7.229   7.255
  7.280   7.357   7.371   7.372   7.398   7.419   7.523   7.554
  7.595   8.334  22.710  22.894  22.923  23.453  23.707  44.320
 44.354  44.416  44.441  44.530  44.722
 --------------------------------------------------------------
 
          Ground-State Mulliken Net Atomic Charges

     Atom                 Charge (a.u.)
  ----------------------------------------
      1 C                     0.171137
      2 C                    -0.009890
      3 O                    -0.698420
      4 O                    -0.698798
      5 C                    -0.331613
      6 H                     0.085505
      7 H                     0.239010
      8 O                    -0.833947
      9 H                     0.211926
     10 H                     0.145206
     11 C                     0.710712
     12 C                    -0.764149
     13 H                     0.268494
     14 H                     0.197017
     15 H                     0.213231
     16 O                    -0.649498
     17 O                    -0.203696
     18 O                    -0.476607
     19 H                     0.424381
  ----------------------------------------
  Sum of atomic charges =    -2.000000

 -----------------------------------------------------------------
                    Cartesian Multipole Moments
 -----------------------------------------------------------------
    Charge (ESU x 10^10)
[...]
 Red. Mass:       1.8545                 3.0307                 3.3649
 IR Active:          YES                    YES                    YES
 IR Intens:       87.372                321.172                360.403
 Raman Active:       YES                    YES                    YES
               X      Y      Z        X      Y      Z        X      Y      Z
 C          0.092 -0.001 -0.088    0.000  0.005  0.003   -0.000 -0.004 -0.013
 C         -0.046  0.004  0.058   -0.029  0.008  0.016   -0.001  0.002  0.005
 O          0.003 -0.005 -0.016    0.010  0.010  0.002   -0.002 -0.002 -0.002
 O          0.010 -0.002 -0.010    0.002 -0.019 -0.003    0.001 -0.003  0.000
 C         -0.165  0.065 -0.000   -0.166  0.122 -0.196    0.003  0.023  0.007
 H          0.096 -0.031  0.040    0.007 -0.028  0.155    0.003 -0.029  0.124
 H          0.061 -0.007 -0.087   -0.035 -0.053  0.132    0.008  0.021 -0.066
 O          0.073 -0.029  0.017    0.158 -0.110  0.172    0.006 -0.002 -0.020
 H         -0.116 -0.006  0.118   -0.114  0.100 -0.218    0.058 -0.066  0.039
 H         -0.133  0.036  0.061   -0.091  0.123 -0.235   -0.083  0.011 -0.029
 C          0.005  0.005 -0.024    0.038  0.018  0.049   -0.194 -0.137  0.327
 C         -0.019  0.015  0.013   -0.023 -0.043 -0.040    0.095  0.020 -0.118
 H          0.060 -0.073  0.005   -0.059  0.189 -0.150   -0.261  0.297 -0.026
 H         -0.004  0.055 -0.075    0.086 -0.034  0.112   -0.124 -0.144  0.028
 H          0.031 -0.104  0.035    0.012  0.072  0.104   -0.216  0.550 -0.419
 O         -0.002 -0.006  0.008   -0.019  0.013 -0.008    0.042  0.002 -0.048
 O          0.023 -0.061 -0.018   -0.010 -0.010 -0.015    0.084  0.019 -0.084
 O         -0.003  0.069 -0.008    0.012 -0.015  0.022   -0.021  0.021  0.009
 H         -0.062 -0.353  0.835   -0.112  0.387 -0.621    0.013 -0.035  0.189
 TransDip  -0.283 -0.054  0.083   -0.311  0.213 -0.433   -0.363  0.026  0.487

 Mode:                31                     32                     33
 Frequency:      1216.09                1273.16                1313.23
 Force Cnst:      1.1360                 1.4092                 1.0976
 Red. Mass:       1.3038                 1.4755                 1.0802
 IR Active:          YES                    YES                    YES
 IR Intens:       34.124                  4.948                  2.605
 Raman Active:       YES                    YES                    YES
               X      Y      Z        X      Y      Z        X      Y      Z
 C          0.010  0.034  0.000   -0.022  0.055 -0.164   -0.022 -0.061 -0.017
 C         -0.011 -0.013  0.003   -0.058  0.019  0.025    0.002  0.008  0.001
 O          0.017  0.011  0.011    0.028  0.020  0.009   -0.002 -0.003 -0.001
 O         -0.002  0.019 -0.005    0.008 -0.040 -0.003   -0.000 -0.006  0.000
 C         -0.051 -0.123 -0.046    0.048 -0.008 -0.009    0.006  0.026 -0.001
 H         -0.011  0.115 -0.481    0.081 -0.187  0.634   -0.077 -0.027  0.285
 H          0.006 -0.189  0.534    0.063 -0.217  0.583    0.093  0.076 -0.262
 O          0.021  0.042  0.014   -0.030  0.005  0.003    0.010  0.025  0.009
 H         -0.317  0.286 -0.143    0.087 -0.108  0.227   -0.058  0.204 -0.580
 H          0.380 -0.086  0.210    0.058 -0.081  0.193    0.089 -0.205  0.625
 C         -0.011 -0.009  0.024    0.006  0.003 -0.005    0.004 -0.001  0.002
 C          0.005  0.002 -0.007   -0.001 -0.001  0.001   -0.001 -0.001  0.000
 H         -0.014  0.019 -0.004    0.001 -0.002  0.001    0.002  0.004 -0.006
 H         -0.007 -0.005 -0.004    0.005  0.002  0.004    0.003  0.003 -0.002
 H         -0.014  0.031 -0.029    0.004 -0.005  0.011   -0.002  0.001 -0.001
 O          0.004 -0.003 -0.004   -0.002  0.001  0.001   -0.001  0.002  0.000
 O          0.006  0.000 -0.006   -0.002  0.001  0.003    0.001  0.001  0.001
 O         -0.004  0.004 -0.001   -0.001 -0.003  0.001   -0.004  0.000 -0.000
 H          0.014 -0.049  0.067    0.015  0.020 -0.077    0.021 -0.030 -0.004
 TransDip  -0.113 -0.147  0.026    0.059  0.005  0.040    0.045  0.026 -0.001

 Mode:                34                     35                     36
 Frequency:      1387.83                1394.61                1425.99
 Force Cnst:      1.4941                 1.5225                 4.3992
 Red. Mass:       1.3166                 1.3286                 3.6719
 IR Active:          YES                    YES                    YES
 IR Intens:      183.824                 41.085                261.525
 Raman Active:       YES                    YES                    YES
               X      Y      Z        X      Y      Z        X      Y      Z
 C          0.029 -0.024  0.057    0.009 -0.008  0.018    0.009  0.015 -0.063
 C         -0.024  0.015 -0.028   -0.009  0.005 -0.010    0.255 -0.152  0.218
 O          0.011  0.009  0.010    0.004  0.003  0.004   -0.131 -0.094 -0.099
 O          0.001 -0.015  0.004    0.000 -0.006  0.001   -0.023  0.185 -0.032
 C         -0.002  0.032 -0.120   -0.001  0.010 -0.039   -0.007  0.019 -0.059
 H          0.024  0.015 -0.185    0.008  0.003 -0.057   -0.324  0.378  0.229
 H          0.032  0.057 -0.144    0.013  0.019 -0.046   -0.510 -0.178  0.069
 O         -0.035  0.005  0.003   -0.008  0.002  0.002   -0.009 -0.003  0.016
 H          0.069 -0.181  0.603    0.013 -0.045  0.181    0.139 -0.208  0.178
 H          0.060 -0.220  0.560    0.007 -0.072  0.176    0.204 -0.036  0.216
 C          0.018 -0.009 -0.003   -0.025 -0.003  0.039    0.005 -0.004  0.001
 C          0.002 -0.028  0.033   -0.013  0.090 -0.124   -0.001  0.001 -0.003
 H          0.036  0.134 -0.102   -0.155 -0.435  0.345   -0.005 -0.012  0.009
 H          0.028  0.062 -0.145   -0.044 -0.173  0.459    0.009  0.004  0.005
 H         -0.097  0.087 -0.109    0.322 -0.215  0.405    0.006  0.006  0.016
 O         -0.012  0.013  0.002    0.017 -0.016 -0.006   -0.003  0.003  0.001
 O         -0.006 -0.014 -0.006    0.002  0.000 -0.006   -0.000  0.000  0.000
 O          0.025  0.004  0.003    0.006 -0.001  0.001    0.000 -0.001  0.001
 H         -0.164  0.188  0.009   -0.038  0.063 -0.016   -0.003  0.022 -0.044
 TransDip  -0.249  0.068 -0.349   -0.173 -0.001  0.110    0.329 -0.224  0.331

 Mode:                37                     38                     39
 Frequency:      1460.08                1469.91                1477.55
 Force Cnst:      1.3338                 1.3346                 1.6734
 Red. Mass:       1.0619                 1.0484                 1.3009
 IR Active:          YES                    YES                    YES
 IR Intens:       10.495                 25.418                124.773
 Raman Active:       YES                    YES                    YES
               X      Y      Z        X      Y      Z        X      Y      Z
 C          0.001 -0.000  0.000   -0.002  0.000  0.001   -0.084  0.030 -0.006
 C         -0.000  0.000 -0.000    0.001 -0.001  0.001    0.063 -0.037  0.067
 O          0.000  0.000  0.000   -0.000 -0.000 -0.000   -0.031 -0.023 -0.025
 O         -0.000 -0.000  0.000   -0.000  0.001 -0.000   -0.005  0.042 -0.008
 C          0.000  0.000 -0.001    0.001  0.001 -0.003    0.032  0.002 -0.036
 H         -0.003  0.005  0.002    0.009 -0.012 -0.008    0.313 -0.462 -0.165
 H         -0.006 -0.002  0.000    0.015  0.006 -0.001    0.540  0.209  0.028
 O         -0.000 -0.000 -0.000    0.002 -0.002 -0.002    0.011 -0.005  0.010
 H          0.004 -0.006  0.003   -0.009  0.010  0.017   -0.169  0.246  0.165
 H          0.005 -0.000  0.003   -0.020 -0.007  0.001   -0.328 -0.132  0.039
 C         -0.004 -0.013  0.031   -0.011 -0.019  0.004    0.004  0.005  0.003
 C         -0.027  0.052  0.012   -0.048 -0.019 -0.015    0.002  0.000  0.002
 H          0.506 -0.081 -0.340    0.272 -0.423  0.011   -0.007  0.034 -0.014
 H         -0.025 -0.142  0.441    0.622  0.314  0.148   -0.040 -0.022 -0.004
 H         -0.097 -0.416 -0.465   -0.164  0.441  0.017    0.007 -0.037 -0.010
 O         -0.005  0.009 -0.003   -0.002  0.008  0.000    0.001 -0.001 -0.001
 O          0.003 -0.000 -0.006    0.004  0.006  0.001    0.003  0.010  0.005
 O          0.002 -0.001  0.001   -0.011 -0.000  0.000   -0.018 -0.003  0.000
 H         -0.020  0.043 -0.014    0.074 -0.082 -0.031    0.145 -0.156 -0.079
 TransDip   0.025 -0.101  0.006    0.159 -0.026  0.003    0.328 -0.095  0.106

 Mode:                40                     41                     42
 Frequency:      1491.64                1513.82                1571.96
 Force Cnst:      1.4886                 1.5663                14.3361
 Red. Mass:       1.1356                 1.1600                 9.8468
 IR Active:          YES                    YES                    YES
 IR Intens:       54.669                300.780               1303.326
 Raman Active:       YES                    YES                    YES
               X      Y      Z        X      Y      Z        X      Y      Z
 C         -0.051  0.019 -0.005    0.001  0.003 -0.017   -0.017 -0.059 -0.011
 C          0.021 -0.010  0.025    0.013 -0.007  0.008    0.264  0.692  0.165
 O         -0.010 -0.008 -0.009   -0.006 -0.003 -0.004   -0.174 -0.189 -0.126
 O         -0.001  0.012 -0.003   -0.001  0.007 -0.001   -0.008 -0.286  0.013
 C         -0.049  0.004  0.032    0.054 -0.028  0.021   -0.001 -0.010 -0.004
 H          0.187 -0.274 -0.099   -0.044  0.049  0.069   -0.164  0.209 -0.277
 H          0.320  0.123  0.020   -0.071 -0.038  0.033    0.135 -0.101  0.280
 O         -0.015  0.004 -0.003   -0.009  0.002  0.002    0.000  0.001 -0.000
 H          0.250 -0.358 -0.226   -0.223  0.371 -0.010   -0.015  0.010  0.026
 H          0.477  0.180 -0.036   -0.375 -0.116 -0.077    0.002 -0.000 -0.019
 C         -0.011 -0.007 -0.008   -0.036  0.007 -0.020    0.000 -0.001  0.001
 C          0.000  0.001 -0.001    0.004 -0.002  0.004   -0.000  0.000 -0.000
 H          0.008 -0.044  0.022    0.016 -0.054  0.027    0.000 -0.000 -0.000
 H          0.040  0.021  0.007    0.051  0.025  0.003    0.000  0.000  0.000
 H         -0.008  0.040  0.007   -0.022  0.058 -0.008   -0.000  0.000 -0.000
 O          0.001  0.001  0.002    0.013 -0.012  0.001   -0.000  0.000 -0.000
 O         -0.006 -0.022 -0.010   -0.010 -0.034 -0.013    0.000  0.001 -0.000
 O          0.039  0.004  0.001    0.059  0.006  0.001   -0.001 -0.000 -0.000
 H         -0.310  0.356  0.140   -0.482  0.569  0.238    0.010 -0.014  0.003
 TransDip  -0.219  0.018  0.090   -0.523  0.141  0.125    0.404  1.054  0.249

 Mode:                43                     44                     45
 Frequency:      1676.27                2578.35                2945.72
 Force Cnst:     16.0514                 4.1904                 5.4126
 Red. Mass:       9.6956                 1.0698                 1.0587
 IR Active:          YES                    YES                    YES
 IR Intens:      653.529               1339.913                115.426
 Raman Active:       YES                    YES                    YES
               X      Y      Z        X      Y      Z        X      Y      Z
 C          0.007 -0.007  0.009    0.000 -0.001  0.001   -0.000  0.002  0.000
 C         -0.006  0.004 -0.002   -0.001  0.000 -0.000    0.001 -0.000  0.000
 O          0.002  0.001  0.001    0.000  0.000  0.000   -0.000 -0.000 -0.000
 O          0.001 -0.003  0.001    0.000 -0.000  0.000   -0.000  0.000  0.000
 C         -0.024  0.027 -0.031   -0.000  0.002 -0.008    0.047 -0.041 -0.026
 H         -0.000  0.004 -0.019    0.002  0.002  0.000   -0.006 -0.003 -0.001
 H          0.011  0.011 -0.032   -0.001  0.001 -0.001    0.005 -0.020 -0.006
 O          0.022  0.001  0.028    0.009 -0.005 -0.002    0.003 -0.002  0.004
 H          0.086 -0.160  0.082   -0.017 -0.026  0.006   -0.363 -0.267 -0.052
 H          0.132  0.023  0.149   -0.000  0.028  0.022   -0.238  0.795  0.315
 C         -0.426  0.572 -0.056    0.009  0.008 -0.001   -0.000 -0.003 -0.001
 C          0.038 -0.083  0.060   -0.002 -0.001 -0.000    0.001  0.000  0.001
 H          0.119  0.051 -0.073   -0.000  0.005 -0.002   -0.004 -0.004 -0.005
 H          0.088 -0.093  0.158    0.003  0.000 -0.004   -0.000  0.001  0.000
 H         -0.146  0.083 -0.169    0.004  0.000  0.003    0.001  0.001 -0.001
 O          0.274 -0.337 -0.035   -0.002 -0.001  0.000   -0.001  0.001  0.000
 O         -0.019 -0.028  0.035   -0.007 -0.007  0.000    0.000  0.000 -0.000
 O          0.001 -0.005 -0.009   -0.051 -0.031 -0.015    0.002  0.001  0.001
 H          0.163 -0.152 -0.169    0.730  0.601  0.315   -0.037 -0.018 -0.009
 TransDip  -0.366  0.715  0.157    1.112  0.323  0.184    0.306 -0.157  0.008

 Mode:                46                     47                     48
 Frequency:      2972.64                3057.13                3066.44
 Force Cnst:      5.7218                 5.8341                 5.7864
 Red. Mass:       1.0990                 1.0595                 1.0445
 IR Active:          YES                    YES                    YES
 IR Intens:      117.512                 52.474                 23.033
 Raman Active:       YES                    YES                    YES
               X      Y      Z        X      Y      Z        X      Y      Z
 C          0.001  0.006  0.002    0.058 -0.031 -0.019    0.000  0.000 -0.000
 C         -0.001  0.000 -0.000   -0.002  0.001 -0.002    0.000 -0.000  0.000
 O          0.000  0.000 -0.000    0.000  0.000  0.000   -0.000  0.000 -0.000
 O          0.000 -0.000  0.000    0.000 -0.000  0.000    0.000  0.000 -0.000
 C         -0.049 -0.074 -0.019    0.000 -0.003  0.001    0.001 -0.000 -0.000
 H         -0.043 -0.030 -0.004   -0.452 -0.359 -0.051   -0.003 -0.002 -0.000
 H          0.018 -0.052 -0.019   -0.222  0.725  0.291    0.000 -0.000 -0.000
 O         -0.000  0.001 -0.001   -0.000  0.000 -0.000   -0.000  0.000 -0.000
 H          0.732  0.502  0.075    0.007  0.006 -0.001   -0.006 -0.003 -0.001
 H         -0.135  0.385  0.161   -0.005  0.018  0.006   -0.001  0.005  0.001
 C          0.000  0.000  0.000    0.000  0.000 -0.000    0.000 -0.002  0.001
 C         -0.000  0.000 -0.000   -0.000 -0.000  0.000   -0.023  0.002 -0.053
 H          0.002  0.002  0.001   -0.000 -0.000 -0.001    0.473  0.386  0.584
 H          0.001 -0.002 -0.001   -0.000  0.001  0.000    0.160 -0.278 -0.125
 H         -0.001 -0.000  0.000    0.001  0.000 -0.001   -0.356 -0.112  0.156
 O         -0.000  0.000 -0.000   -0.000  0.000 -0.000   -0.000  0.000  0.000
 O         -0.000 -0.000  0.000   -0.000 -0.000  0.000    0.000  0.000 -0.000
 O         -0.001 -0.000 -0.000   -0.000 -0.000  0.000   -0.000 -0.000  0.000
 H          0.011  0.002  0.001    0.001  0.001 -0.002   -0.001 -0.000  0.001
 TransDip  -0.233 -0.248 -0.066    0.187 -0.118 -0.071   -0.057 -0.023 -0.141

 Mode:                49                     50                     51
 Frequency:      3113.13                3152.17                3193.40
 Force Cnst:      6.3117                 6.3974                 6.6309
 Red. Mass:       1.1054                 1.0928                 1.1036
 IR Active:          YES                    YES                    YES
 IR Intens:       69.573                 19.926                 13.873
 Raman Active:       YES                    YES                    YES
               X      Y      Z        X      Y      Z        X      Y      Z
 C         -0.040 -0.082 -0.022   -0.000  0.000 -0.000    0.000  0.000  0.000
 C         -0.001 -0.003 -0.000    0.000 -0.000  0.000    0.000 -0.000  0.000
 O          0.000  0.001  0.000   -0.000 -0.000 -0.000   -0.000 -0.000 -0.000
 O          0.000  0.001  0.000   -0.000  0.000  0.000   -0.000  0.000  0.000
 C         -0.003 -0.007 -0.002    0.000 -0.000 -0.000    0.000 -0.000 -0.000
 H          0.648  0.488  0.062   -0.000 -0.000  0.000   -0.001 -0.000 -0.000
 H         -0.169  0.503  0.206    0.000 -0.001 -0.000    0.000 -0.001 -0.000
 O          0.000  0.000  0.000   -0.000  0.000 -0.000   -0.000  0.000  0.000
 H          0.048  0.034  0.003   -0.001 -0.000 -0.000   -0.000  0.000 -0.000
 H         -0.013  0.043  0.019   -0.001  0.002  0.001   -0.000  0.001  0.001
 C         -0.000 -0.000  0.000   -0.002 -0.000 -0.002    0.001 -0.001 -0.001
 C         -0.000 -0.000 -0.000   -0.059 -0.064 -0.013    0.067 -0.047 -0.045
 H          0.002  0.001  0.002    0.278  0.225  0.354    0.056  0.032  0.051
 H         -0.000  0.000  0.000   -0.217  0.335  0.143   -0.403  0.682  0.285
 H         -0.001 -0.000  0.000    0.651  0.195 -0.312   -0.458 -0.151  0.210
 O          0.000  0.000 -0.000    0.000  0.000  0.000   -0.000  0.000  0.000
 O         -0.000  0.000 -0.000    0.000 -0.000 -0.000   -0.000 -0.000  0.000
 O          0.000  0.000 -0.000    0.000  0.000 -0.000   -0.000  0.000 -0.001
 H         -0.002 -0.003  0.001   -0.003 -0.001 -0.000    0.003  0.002  0.003
 TransDip  -0.107 -0.237 -0.063   -0.104 -0.098 -0.009    0.091 -0.069 -0.036

 STANDARD THERMODYNAMIC QUANTITIES AT   298.15 K  AND     1.00 ATM

   This Molecule has  1 Imaginary Frequencies
   Zero point vibrational energy:       85.673 kcal/mol

   Atom    1 Element C  Has Mass   12.00000
   Atom    2 Element C  Has Mass   12.00000
   Atom    3 Element O  Has Mass   15.99491
   Atom    4 Element O  Has Mass   15.99491
   Atom    5 Element C  Has Mass   12.00000
   Atom    6 Element H  Has Mass    1.00783
   Atom    7 Element H  Has Mass    1.00783
   Atom    8 Element O  Has Mass   15.99491
   Atom    9 Element H  Has Mass    1.00783
   Atom   10 Element H  Has Mass    1.00783
   Atom   11 Element C  Has Mass   12.00000
   Atom   12 Element C  Has Mass   12.00000
   Atom   13 Element H  Has Mass    1.00783
   Atom   14 Element H  Has Mass    1.00783
   Atom   15 Element H  Has Mass    1.00783
   Atom   16 Element O  Has Mass   15.99491
   Atom   17 Element O  Has Mass   15.99491
   Atom   18 Element O  Has Mass   15.99491
   Atom   19 Element H  Has Mass    1.00783
   Molecular Mass:   164.032100 amu
   Principal axes and moments of inertia in amu*Bohr^2:
                             1           2           3
    Eigenvalues --      819.76902  3487.03781  3552.00241
          X               0.50869    -0.56195     0.65227
          Y              -0.07691     0.72492     0.68453
          Z               0.85751     0.39837    -0.32554
   Rotational Symmetry Number is   1
   The Molecule is an Asymmetric Top
   Translational Enthalpy:        0.889 kcal/mol
   Rotational Enthalpy:           0.889 kcal/mol
   Vibrational Enthalpy:         91.043 kcal/mol
   gas constant (RT):             0.592 kcal/mol
   Translational Entropy:        41.193  cal/mol.K
   Rotational Entropy:           30.696  cal/mol.K
   Vibrational Entropy:          37.247  cal/mol.K

   Total Enthalpy:               93.413 kcal/mol
   Total Entropy:               109.136  cal/mol.K
Archival summary:
1\1\c4-84\FREQ\ProcedureUnspecified\BasisUnspecified\658(2-,1)\lmgong\FriMay1122:30:092018FriMay1122:30:092018\0\\#,FREQ,ProcedureUnspecified,BasisUnspecified,\\-2,1\O\C,1,1.39352\H,2,1.10354,1,110.021\H,2,1.10605,1,110.038,3,117.054,0\H,1,1.49964,2,117.369,3,138.848,0\O,5,1.03549,1,147.288,2,102.985,0\O,6,1.42969,5,94.759,1,-21.4722,0\C,7,1.40759,6,109.761,5,41.9198,0\O,8,1.22685,7,113.664,6,-156.676,0\C,8,1.50886,7,115.702,6,53.4495,0\H,10,1.08799,8,112.514,7,-45.3927,0\H,10,1.08996,8,108.824,7,-167.345,0\H,10,1.09595,8,107.552,7,74.7691,0\C,2,1.53862,1,113.709,3,-121.419,0\H,14,1.0943,2,109.041,1,-61.1152,0\H,14,1.09561,2,108.805,1,57.5916,0\C,14,1.53112,2,110.361,1,178.039,0\O,17,1.26142,14,117.543,2,92.796,0\O,17,1.26143,14,117.271,2,-85.0885,0\\\@

 Total job time:  163068.79s(wall), 612004.60s(cpu) 
 Fri May 11 22:30:10 2018

        *************************************************************
        *                                                           *
        *  Thank you very much for using Q-Chem.  Have a nice day.  *
        *                                                           *
        *************************************************************


