19   
From 3-product-freq.out: Frame 1 / 115, Energy=    -646.9797278751
C       -0.4026642934   -0.2877547841   -1.9704569266
C       -1.5485832261    0.6437762870   -2.3859438481
O       -2.3961212164    0.1904739575   -3.2002418610
O       -1.5828922405    1.7855673624   -1.8537244945
C       -0.7846351248   -1.0619205855   -0.7073324755
H        0.4950502106    0.3024464365   -1.7630027395
H       -0.1876018867   -1.0003066892   -2.7724763344
O        0.2415050301   -1.9336343247   -0.2670933505
H       -1.6702073568   -1.6762412657   -0.9079192183
H       -1.0547381783   -0.3491158816    0.0870789743
C        0.9636284473    1.1838070804    1.6323765178
C        0.7184180538    0.1720925524    2.7130440134
H        1.6678988599   -0.1468980789    3.1474424594
H        0.2420978334   -0.7167135199    2.2931714791
H        0.0810868448    0.6227352783    3.4733687949
O        0.4914442431    2.3129220257    1.6401018414
O        1.7337895835    0.8442458519    0.6084450283
O        2.2535148519   -0.4964964590    0.6458504472
H        1.0133090686   -1.3778827165    0.0593020286
